<LesHouchesEvents version="3.0">
<header>
<!--
#*********************************************************************
#                                                                    *
#                        MadGraph5_aMC@NLO                           *
#                                                                    *
#                           Going Beyond                             *
#                                                                    *
#                   http://madgraph.hep.uiuc.edu                     *
#                   http://madgraph.phys.ucl.ac.be                   *
#                   http://amcatnlo.cern.ch                          *
#                                                                    *
#                     The MadGraph5_aMC@NLO team                     *
#                                                                    *
#....................................................................*
#                                                                    *
# This file contains all the information necessary to reproduce      *
# the events generated:                                              *
#                                                                    *
# 1. software version                                                *
# 2. proc_card          : code generation info including model       *
# 3. param_card         : model primary parameters in the LH format  *
# 4. run_card           : running parameters (collider and cuts)     *
# 5. pythia_card        : present only if pythia has been run        *
# 6. pgs_card           : present only if pgs has been run           *
# 7. delphes_cards      : present only if delphes has been run       *
#                                                                    *
#                                                                    *
#*********************************************************************
-->
<MGVersion>
#5.2.4.2
</MGVersion>
<MG5ProcCard>
#************************************************************
#*                     MadGraph5_aMC@NLO                    *
#*                                                          *
#*                *                       *                 *
#*                  *        * *        *                   *
#*                    * * * * 5 * * * *                     *
#*                  *        * *        *                   *
#*                *                       *                 *
#*                                                          *
#*                                                          *
#*         VERSION 2.4.2                 2016-06-10         *
#*                                                          *
#*    The MadGraph5_aMC@NLO Development Team - Find us at   *
#*    https://server06.fynu.ucl.ac.be/projects/madgraph     *
#*                                                          *
#************************************************************
#*                                                          *
#*               Command File for MadGraph5_aMC@NLO         *
#*                                                          *
#*     run as ./bin/mg5_aMC  filename                       *
#*                                                          *
#************************************************************
set loop_optimized_output True
set loop_color_flows False
set max_npoint_for_channel 0
set group_subprocesses Auto
set ignore_six_quark_processes False
set gauge unitary
set complex_mass_scheme False
import model RS_bulk_ktilda
define j = g u c d s u~ c~ d~ s~
define l+ = e+ mu+
define l- = e- mu-
define vl = ve vm vt
define vl~ = ve~ vm~ vt~
define p = g u c d s u~ c~ d~ s~
generate p p > y > H H
output BulkGraviton_hh_M2200 -nojpeg
</MG5ProcCard>
<MGProcCard>
#*********************************************************************
#                        MadGraph/MadEvent                           *
#                   http://madgraph.hep.uiuc.edu                     *
#                                                                    *
#                          proc_card.dat                             *
#*********************************************************************
#                                                                    *
#            This Files is generated by MADGRAPH 5                   *
#                                                                    *
# WARNING: This Files is generated for MADEVENT (compatibility issue)*
#          This files is NOT a valid MG4 proc_card.dat               *
#          Running this in MG4 will NEVER reproduce the result of MG5*
#                                                                    *
#*********************************************************************
#*********************************************************************
# Process(es) requested : mg2 input                                  *
#*********************************************************************
# Begin PROCESS # This is TAG. Do not modify this line
p p > y > H H           #Process
# Be carefull the coupling are here in MG5 convention
          
end_coup           # End the couplings input

done               # this tells MG there are no more procs
# End PROCESS  # This is TAG. Do not modify this line
#*********************************************************************
# Model information                                                  *
#*********************************************************************
# Begin MODEL  # This is TAG. Do not modify this line
RS_bulk_ktilda
# End   MODEL  # This is TAG. Do not modify this line
#*********************************************************************
# Start multiparticle definitions                                    *
#*********************************************************************
# Begin MULTIPARTICLES # This is TAG. Do not modify this line

# End  MULTIPARTICLES # This is TAG. Do not modify this line
</MGProcCard>
<MGRunCard>
#*********************************************************************
#                       MadGraph5_aMC@NLO                            *
#                                                                    *
#                     run_card.dat MadEvent                          *
#                                                                    *
#  This file is used to set the parameters of the run.               *
#                                                                    *
#  Some notation/conventions:                                        *
#                                                                    *
#   Lines starting with a '# ' are info or comments                  *
#                                                                    *
#   mind the format:   value    = variable     ! comment             *
#*********************************************************************
#
#*******************                                                 
# Running parameters
#*******************                                                 
#                                                                    
#*********************************************************************
# Tag name for the run (one word)                                    *
#*********************************************************************
  tag_1	= run_tag ! name of the run 
#*********************************************************************
# Run to generate the grid pack                                      *
#*********************************************************************
  True	= gridpack !True = setting up the grid pack
#*********************************************************************
# Number of events and rnd seed                                      *
# Warning: Do not generate more than 1M events in a single run       *
# If you want to run Pythia, avoid more than 50k events in a run.    *
#*********************************************************************
  1000	= nevents ! Number of unweighted events requested 
 23410 = iseed ! rnd seed (0=assigned automatically=default))
#*********************************************************************
# Collider type and energy                                           *
# lpp: 0=No PDF, 1=proton, -1=antiproton, 2=photon from proton,      *
#                                         3=photon from electron     *
#*********************************************************************
  1	= lpp1 ! beam 1 type 
  1	= lpp2 ! beam 2 type
  6500.0	= ebeam1 ! beam 1 total energy in GeV
  6500.0	= ebeam2 ! beam 2 total energy in GeV
#*********************************************************************
# Beam polarization from -100 (left-handed) to 100 (right-handed)    *
#*********************************************************************
  0.0	= polbeam1 ! beam polarization for beam 1
  0.0	= polbeam2 ! beam polarization for beam 2
#*********************************************************************
# PDF CHOICE: this automatically fixes also alpha_s and its evol.    *
#*********************************************************************
  lhapdf	= pdlabel ! PDF set                                     
  320900	= lhaid ! if pdlabel=lhapdf, this is the lhapdf number
#*********************************************************************
# Renormalization and factorization scales                           *
#*********************************************************************
  False	= fixed_ren_scale ! if .true. use fixed ren scale
  False	= fixed_fac_scale ! if .true. use fixed fac scale
  91.188	= scale ! fixed ren scale
  91.188	= dsqrt_q2fact1 ! fixed fact scale for pdf1
  91.188	= dsqrt_q2fact2 ! fixed fact scale for pdf2
  -1	= dynamical_scale_choice ! Choose one of the preselected dynamical choices
  1.0	= scalefact ! scale factor for event-by-event scales
#*********************************************************************
# Time of flight information. (-1 means not run)
#*********************************************************************
  -1.0	= time_of_flight ! threshold below which info is not written
#*********************************************************************
# Matching - Warning! ickkw > 1 is still beta
#*********************************************************************
  0	= ickkw ! 0 no matching, 1 MLM, 2 CKKW matching
  1	= highestmult ! for ickkw=2, highest mult group
  1	= ktscheme ! for ickkw=1, 1 Durham kT, 2 Pythia pTE
  1.0	= alpsfact ! scale factor for QCD emission vx
  False	= chcluster ! cluster only according to channel diag
  False	= pdfwgt ! for ickkw=1, perform pdf reweighting
  5	= asrwgtflavor ! highest quark flavor for a_s reweight
  True	= clusinfo ! include clustering tag in output
  3.0	= lhe_version ! Change the way clustering information pass to shower.        
#*********************************************************************
#**********************************************************
#
#**********************************************************
# Automatic ptj and mjj cuts if xqcut > 0
# (turn off for VBF and single top processes)
#**********************************************************
  True	= auto_ptj_mjj ! Automatic setting of ptj and mjj
#**********************************************************
#                                                                    
#**********************************
# BW cutoff (M+/-bwcutoff*Gamma)
#**********************************
  15.0	= bwcutoff ! (M+/-bwcutoff*Gamma)
#**********************************************************
# Apply pt/E/eta/dr/mij/kt_durham cuts on decay products or not
# (note that etmiss/ptll/ptheavy/ht/sorted cuts always apply)
#*************************************************************
  False	= cut_decays ! Cut decay products 
#*************************************************************
# Number of helicities to sum per event (0 = all helicities)
# 0 gives more stable result, but longer run time (needed for
# long decay chains e.g.).
# Use >=2 if most helicities contribute, e.g. pure QCD.
#*************************************************************
  0	= nhel ! Number of helicities used per event
#*******************                                                 
# Standard Cuts
#*******************                                                 
#                                                                    
#*********************************************************************
# Minimum and maximum pt's (for max, -1 means no cut)                *
#*********************************************************************
  10.0	= ptj ! minimum pt for the jets 
  0.0	= ptb ! minimum pt for the b 
  10.0	= pta ! minimum pt for the photons 
  10.0	= ptl ! minimum pt for the charged leptons 
  0.0	= misset ! minimum missing Et (sum of neutrino's momenta)
  0.0	= ptheavy ! minimum pt for one heavy final state
  -1.0	= ptjmax ! maximum pt for the jets
  -1.0	= ptbmax ! maximum pt for the b
  -1.0	= ptamax ! maximum pt for the photons
  -1.0	= ptlmax ! maximum pt for the charged leptons
  -1.0	= missetmax ! maximum missing Et (sum of neutrino's momenta)
#*********************************************************************
# Minimum and maximum E's (in the center of mass frame)              *
#*********************************************************************
  0.0	= ej ! minimum E for the jets 
  0.0	= eb ! minimum E for the b 
  0.0	= ea ! minimum E for the photons 
  0.0	= el ! minimum E for the charged leptons 
  -1.0	= ejmax ! maximum E for the jets
  -1.0	= ebmax ! maximum E for the b
  -1.0	= eamax ! maximum E for the photons
  -1.0	= elmax ! maximum E for the charged leptons
#*********************************************************************
# Maximum and minimum absolute rapidity (for max, -1 means no cut)   *
#*********************************************************************
  -1.0	= etaj ! max rap for the jets 
  -1.0	= etab ! max rap for the b
  -1.0	= etaa ! max rap for the photons 
  -1.0	= etal ! max rap for the charged leptons 
  0.0	= etajmin ! min rap for the jets
  0.0	= etabmin ! min rap for the b
  0.0	= etaamin ! min rap for the photons
  0.0	= etalmin ! main rap for the charged leptons
#*********************************************************************
# Minimum and maximum DeltaR distance                                *
#*********************************************************************
  0.0001	= drjj ! min distance between jets 
  0.0	= drbb ! min distance between b's 
  0.0	= drll ! min distance between leptons 
  0.0	= draa ! min distance between gammas 
  0.0	= drbj ! min distance between b and jet 
  0.1	= draj ! min distance between gamma and jet 
  0.0	= drjl ! min distance between jet and lepton 
  0.0	= drab ! min distance between gamma and b 
  0.0	= drbl ! min distance between b and lepton 
  0.1	= dral ! min distance between gamma and lepton 
  -1.0	= drjjmax ! max distance between jets
  -1.0	= drbbmax ! max distance between b's
  -1.0	= drllmax ! max distance between leptons
  -1.0	= draamax ! max distance between gammas
  -1.0	= drbjmax ! max distance between b and jet
  -1.0	= drajmax ! max distance between gamma and jet
  -1.0	= drjlmax ! max distance between jet and lepton
  -1.0	= drabmax ! max distance between gamma and b
  -1.0	= drblmax ! max distance between b and lepton
  -1.0	= dralmax ! maxdistance between gamma and lepton
#*********************************************************************
# Minimum and maximum invariant mass for pairs                       *
# WARNING: for four lepton final state mmll cut require to have      *
#          different lepton masses for each flavor!                  *           
#*********************************************************************
  0.0	= mmjj ! min invariant mass of a jet pair 
  0.0	= mmbb ! min invariant mass of a b pair 
  0.0	= mmaa ! min invariant mass of gamma gamma pair
  0.0	= mmll ! min invariant mass of l+l- (same flavour) lepton pair
  -1.0	= mmjjmax ! max invariant mass of a jet pair
  -1.0	= mmbbmax ! max invariant mass of a b pair
  -1.0	= mmaamax ! max invariant mass of gamma gamma pair
  -1.0	= mmllmax ! max invariant mass of l+l- (same flavour) lepton pair
#*********************************************************************
# Minimum and maximum invariant mass for all letpons                 *
#*********************************************************************
  0.0	= mmnl ! min invariant mass for all letpons (l+- and vl) 
  -1.0	= mmnlmax ! max invariant mass for all letpons (l+- and vl) 
#*********************************************************************
# Minimum and maximum pt for 4-momenta sum of leptons                *
#*********************************************************************
  0.0	= ptllmin ! Minimum pt for 4-momenta sum of leptons(l and vl)
  -1.0	= ptllmax ! Maximum pt for 4-momenta sum of leptons(l and vl)
#*********************************************************************
# Inclusive cuts                                                     *
#*********************************************************************
  0.0	= xptj ! minimum pt for at least one jet  
  0.0	= xptb ! minimum pt for at least one b 
  0.0	= xpta ! minimum pt for at least one photon 
  0.0	= xptl ! minimum pt for at least one charged lepton 
#*********************************************************************
# Control the pt's of the jets sorted by pt                          *
#*********************************************************************
  0.0	= ptj1min ! minimum pt for the leading jet in pt
  0.0	= ptj2min ! minimum pt for the second jet in pt
  0.0	= ptj3min ! minimum pt for the third jet in pt
  0.0	= ptj4min ! minimum pt for the fourth jet in pt
  -1.0	= ptj1max ! maximum pt for the leading jet in pt 
  -1.0	= ptj2max ! maximum pt for the second jet in pt
  -1.0	= ptj3max ! maximum pt for the third jet in pt
  -1.0	= ptj4max ! maximum pt for the fourth jet in pt
  0	= cutuse ! reject event if fails any (0) / all (1) jet pt cuts
#*********************************************************************
# Control the pt's of leptons sorted by pt                           *
#*********************************************************************
  0.0	= ptl1min ! minimum pt for the leading lepton in pt
  0.0	= ptl2min ! minimum pt for the second lepton in pt
  0.0	= ptl3min ! minimum pt for the third lepton in pt
  0.0	= ptl4min ! minimum pt for the fourth lepton in pt
  -1.0	= ptl1max ! maximum pt for the leading lepton in pt 
  -1.0	= ptl2max ! maximum pt for the second lepton in pt
  -1.0	= ptl3max ! maximum pt for the third lepton in pt
  -1.0	= ptl4max ! maximum pt for the fourth lepton in pt
#*********************************************************************
# Control the Ht(k)=Sum of k leading jets                            *
#*********************************************************************
  0.0	= htjmin ! minimum jet HT=Sum(jet pt)
  -1.0	= htjmax ! maximum jet HT=Sum(jet pt)
  0.0	= ihtmin !inclusive Ht for all partons (including b)
  -1.0	= ihtmax !inclusive Ht for all partons (including b)
  0.0	= ht2min ! minimum Ht for the two leading jets
  0.0	= ht3min ! minimum Ht for the three leading jets
  0.0	= ht4min ! minimum Ht for the four leading jets
  -1.0	= ht2max ! maximum Ht for the two leading jets
  -1.0	= ht3max ! maximum Ht for the three leading jets
  -1.0	= ht4max ! maximum Ht for the four leading jets
#***********************************************************************
# Photon-isolation cuts, according to hep-ph/9801442                   *
# When ptgmin=0, all the other parameters are ignored                  *
# When ptgmin>0, pta and draj are not going to be used                 *
#***********************************************************************
  0.0	= ptgmin ! Min photon transverse momentum
  0.4	= r0gamma ! Radius of isolation code
  1.0	= xn ! n parameter of eq.(3.4) in hep-ph/9801442
  1.0	= epsgamma ! epsilon_gamma parameter of eq.(3.4) in hep-ph/9801442
  True	= isoem ! isolate photons from EM energy (photons and leptons)
#*********************************************************************
# WBF cuts                                                           *
#*********************************************************************
  0.0	= xetamin ! minimum rapidity for two jets in the WBF case  
  0.0	= deltaeta ! minimum rapidity for two jets in the WBF case 
#*********************************************************************
# KT DURHAM CUT                                                      *
#*********************************************************************
  -1.0	= ktdurham 
  0.4	= dparameter 
#*********************************************************************
# maximal pdg code for quark to be considered as a light jet         *
# (otherwise b cuts are applied)                                     *
#*********************************************************************
  4	= maxjetflavor ! Maximum jet pdg code
#*********************************************************************
# Jet measure cuts                                                   *
#*********************************************************************
  0.0	= xqcut ! minimum kt jet measure between partons
#*********************************************************************
#
#*********************************************************************
# Store info for systematics studies                                 *
# WARNING: If use_syst is T, matched Pythia output is                *
#          meaningful ONLY if plotted taking matchscale              *
#          reweighting into account!                                 *
#*********************************************************************
  True	= use_syst ! Enable systematics studies
#
#**************************************
# Parameter of the systematics study
#  will be used by SysCalc (if installed)
#**************************************                                  
#
  0.5 1 2	= sys_scalefact # factorization/renormalization scale factor
  None	= sys_alpsfact # \alpha_s emission scale factors
  30 50	= sys_matchscale # variation of merging scale
# PDF sets and number of members (0 or none for all members).
  NNPDF23_lo_as_0130_qed	= sys_pdf # matching scales
# MSTW2008nlo68cl.LHgrid 1  = sys_pdf
#********************************************************************* 
#  Additional parameter
#*********************************************************************
  1.0	= ptonium # hidden parameter
  -1.0	= etaonium # hidden parameter
</MGRunCard>
<slha>
######################################################################
## PARAM_CARD AUTOMATICALY GENERATED BY MG5                       ####
######################################################################
###################################
## INFORMATION FOR CKMBLOCK
###################################
BLOCK CKMBLOCK # 
      1 4.880000e-01 # cabi
###################################
## INFORMATION FOR FRBLOCK
###################################
BLOCK FRBLOCK # 
      1 3.000000e+03 # lrs
      2 1.000000e-01 # ktilda
      3 1.000000e-04 # clight
      4 1.000000e+00 # ctop
      5 1.370000e-02 # cg
      6 2.312000e-01 # sw2
###################################
## INFORMATION FOR MASS
###################################
BLOCK MASS # 
      4 0.000000e+00 # mc
      5 4.800000e+00 # mb
      6 1.725000e+02 # mt
      15 1.777000e+00 # mta
      23 9.118760e+01 # mz
      24 8.038500e+01 # mw
      25 1.250000e+02 # mh
      39 2.200000e+03 # mgr
      1 0.000000e+00 # d : 0.0
      2 0.000000e+00 # u : 0.0
      3 0.000000e+00 # s : 0.0
      11 0.000000e+00 # e- : 0.0
      12 0.000000e+00 # ve : 0.0
      13 0.000000e+00 # mu- : 0.0
      14 0.000000e+00 # vm : 0.0
      16 0.000000e+00 # vt : 0.0
      21 0.000000e+00 # g : 0.0
      22 0.000000e+00 # a : 0.0
###################################
## INFORMATION FOR SMINPUTS
###################################
BLOCK SMINPUTS # 
      1 1.279000e+02 # aewm1
      2 1.166378e-05 # gf
      3 1.180000e-01 # as
###################################
## INFORMATION FOR YUKAWA
###################################
BLOCK YUKAWA # 
      4 0.000000e+00 # ymc
      5 4.800000e+00 # ymb
      6 1.725000e+02 # ymt
      15 1.777000e+00 # ymtau
###################################
## INFORMATION FOR DECAY
###################################
DECAY 6 1.491500e+00 # wt
DECAY 23 2.495200e+00 # wz
DECAY 24 2.085000e+00 # ww
DECAY 25 6.382339e-03 # wh
DECAY 39 1.100000e+02 # wgr
DECAY 1 0.000000e+00 # d : 0.0
DECAY 2 0.000000e+00 # u : 0.0
DECAY 3 0.000000e+00 # s : 0.0
DECAY 4 0.000000e+00 # c : 0.0
DECAY 5 0.000000e+00 # b : 0.0
DECAY 11 0.000000e+00 # e- : 0.0
DECAY 12 0.000000e+00 # ve : 0.0
DECAY 13 0.000000e+00 # mu- : 0.0
DECAY 14 0.000000e+00 # vm : 0.0
DECAY 15 0.000000e+00 # ta- : 0.0
DECAY 16 0.000000e+00 # vt : 0.0
DECAY 21 0.000000e+00 # g : 0.0
DECAY 22 0.000000e+00 # a : 0.0
###################################
## INFORMATION FOR QNUMBERS 39
###################################
BLOCK QNUMBERS 39 #  y
      1 0 # 3 times electric charge
      2 5 # number of spin states (2s+1)
      3 1 # colour rep (1: singlet, 3: triplet, 8: octet)
      4 0 # particle/antiparticle distinction (0=own anti)
</slha>
## END BANNER##
<MGGenerationInfo>
#  Number of Events        :         5000
#  Integrated weight (pb)  :  0.28925E-07
#  Truncated wgt (pb)      :  0.00000E+00
#  Unit wgt                :  0.57900E-11
</MGGenerationInfo>
<initrwgt>
  <weightgroup name="Central scale variation" combine="envelope">
    <weight id="1" MUR="1" MUF="1" PDF="320900"> mur=1 muf=1 </weight>
    <weight id="2" MUR="1" MUF="2" PDF="320900"> mur=1 muf=2 </weight>
    <weight id="3" MUR="1" MUF="0.5" PDF="320900"> mur=1 muf=0.5 </weight>
    <weight id="4" MUR="2" MUF="1" PDF="320900"> mur=2 muf=1 </weight>
    <weight id="5" MUR="2" MUF="2" PDF="320900"> mur=2 muf=2 </weight>
    <weight id="6" MUR="2" MUF="0.5" PDF="320900"> mur=2 muf=0.5 </weight>
    <weight id="7" MUR="0.5" MUF="1" PDF="320900"> mur=0.5 muf=1 </weight>
    <weight id="8" MUR="0.5" MUF="2" PDF="320900"> mur=0.5 muf=2 </weight>
    <weight id="9" MUR="0.5" MUF="0.5" PDF="320900"> mur=0.5 muf=0.5 </weight>
  </weightgroup>
  <weightgroup name="NNPDF31_nnlo_hessian_pdfas" combine="hessian">
    <weight id="10" MUR="1" MUF="1" PDF="306000"> Member 0 of sets NNPDF31_nnlo_hessian_pdfas</weight>
    <weight id="11" MUR="1" MUF="1" PDF="306001"> Member 1 of sets NNPDF31_nnlo_hessian_pdfas</weight>
    <weight id="12" MUR="1" MUF="1" PDF="306002"> Member 2 of sets NNPDF31_nnlo_hessian_pdfas</weight>
    <weight id="13" MUR="1" MUF="1" PDF="306003"> Member 3 of sets NNPDF31_nnlo_hessian_pdfas</weight>
    <weight id="14" MUR="1" MUF="1" PDF="306004"> Member 4 of sets NNPDF31_nnlo_hessian_pdfas</weight>
    <weight id="15" MUR="1" MUF="1" PDF="306005"> Member 5 of sets NNPDF31_nnlo_hessian_pdfas</weight>
    <weight id="16" MUR="1" MUF="1" PDF="306006"> Member 6 of sets NNPDF31_nnlo_hessian_pdfas</weight>
    <weight id="17" MUR="1" MUF="1" PDF="306007"> Member 7 of sets NNPDF31_nnlo_hessian_pdfas</weight>
    <weight id="18" MUR="1" MUF="1" PDF="306008"> Member 8 of sets NNPDF31_nnlo_hessian_pdfas</weight>
    <weight id="19" MUR="1" MUF="1" PDF="306009"> Member 9 of sets NNPDF31_nnlo_hessian_pdfas</weight>
    <weight id="20" MUR="1" MUF="1" PDF="306010"> Member 10 of sets NNPDF31_nnlo_hessian_pdfas</weight>
    <weight id="21" MUR="1" MUF="1" PDF="306011"> Member 11 of sets NNPDF31_nnlo_hessian_pdfas</weight>
    <weight id="22" MUR="1" MUF="1" PDF="306012"> Member 12 of sets NNPDF31_nnlo_hessian_pdfas</weight>
    <weight id="23" MUR="1" MUF="1" PDF="306013"> Member 13 of sets NNPDF31_nnlo_hessian_pdfas</weight>
    <weight id="24" MUR="1" MUF="1" PDF="306014"> Member 14 of sets NNPDF31_nnlo_hessian_pdfas</weight>
    <weight id="25" MUR="1" MUF="1" PDF="306015"> Member 15 of sets NNPDF31_nnlo_hessian_pdfas</weight>
    <weight id="26" MUR="1" MUF="1" PDF="306016"> Member 16 of sets NNPDF31_nnlo_hessian_pdfas</weight>
    <weight id="27" MUR="1" MUF="1" PDF="306017"> Member 17 of sets NNPDF31_nnlo_hessian_pdfas</weight>
    <weight id="28" MUR="1" MUF="1" PDF="306018"> Member 18 of sets NNPDF31_nnlo_hessian_pdfas</weight>
    <weight id="29" MUR="1" MUF="1" PDF="306019"> Member 19 of sets NNPDF31_nnlo_hessian_pdfas</weight>
    <weight id="30" MUR="1" MUF="1" PDF="306020"> Member 20 of sets NNPDF31_nnlo_hessian_pdfas</weight>
    <weight id="31" MUR="1" MUF="1" PDF="306021"> Member 21 of sets NNPDF31_nnlo_hessian_pdfas</weight>
    <weight id="32" MUR="1" MUF="1" PDF="306022"> Member 22 of sets NNPDF31_nnlo_hessian_pdfas</weight>
    <weight id="33" MUR="1" MUF="1" PDF="306023"> Member 23 of sets NNPDF31_nnlo_hessian_pdfas</weight>
    <weight id="34" MUR="1" MUF="1" PDF="306024"> Member 24 of sets NNPDF31_nnlo_hessian_pdfas</weight>
    <weight id="35" MUR="1" MUF="1" PDF="306025"> Member 25 of sets NNPDF31_nnlo_hessian_pdfas</weight>
    <weight id="36" MUR="1" MUF="1" PDF="306026"> Member 26 of sets NNPDF31_nnlo_hessian_pdfas</weight>
    <weight id="37" MUR="1" MUF="1" PDF="306027"> Member 27 of sets NNPDF31_nnlo_hessian_pdfas</weight>
    <weight id="38" MUR="1" MUF="1" PDF="306028"> Member 28 of sets NNPDF31_nnlo_hessian_pdfas</weight>
    <weight id="39" MUR="1" MUF="1" PDF="306029"> Member 29 of sets NNPDF31_nnlo_hessian_pdfas</weight>
    <weight id="40" MUR="1" MUF="1" PDF="306030"> Member 30 of sets NNPDF31_nnlo_hessian_pdfas</weight>
    <weight id="41" MUR="1" MUF="1" PDF="306031"> Member 31 of sets NNPDF31_nnlo_hessian_pdfas</weight>
    <weight id="42" MUR="1" MUF="1" PDF="306032"> Member 32 of sets NNPDF31_nnlo_hessian_pdfas</weight>
    <weight id="43" MUR="1" MUF="1" PDF="306033"> Member 33 of sets NNPDF31_nnlo_hessian_pdfas</weight>
    <weight id="44" MUR="1" MUF="1" PDF="306034"> Member 34 of sets NNPDF31_nnlo_hessian_pdfas</weight>
    <weight id="45" MUR="1" MUF="1" PDF="306035"> Member 35 of sets NNPDF31_nnlo_hessian_pdfas</weight>
    <weight id="46" MUR="1" MUF="1" PDF="306036"> Member 36 of sets NNPDF31_nnlo_hessian_pdfas</weight>
    <weight id="47" MUR="1" MUF="1" PDF="306037"> Member 37 of sets NNPDF31_nnlo_hessian_pdfas</weight>
    <weight id="48" MUR="1" MUF="1" PDF="306038"> Member 38 of sets NNPDF31_nnlo_hessian_pdfas</weight>
    <weight id="49" MUR="1" MUF="1" PDF="306039"> Member 39 of sets NNPDF31_nnlo_hessian_pdfas</weight>
    <weight id="50" MUR="1" MUF="1" PDF="306040"> Member 40 of sets NNPDF31_nnlo_hessian_pdfas</weight>
    <weight id="51" MUR="1" MUF="1" PDF="306041"> Member 41 of sets NNPDF31_nnlo_hessian_pdfas</weight>
    <weight id="52" MUR="1" MUF="1" PDF="306042"> Member 42 of sets NNPDF31_nnlo_hessian_pdfas</weight>
    <weight id="53" MUR="1" MUF="1" PDF="306043"> Member 43 of sets NNPDF31_nnlo_hessian_pdfas</weight>
    <weight id="54" MUR="1" MUF="1" PDF="306044"> Member 44 of sets NNPDF31_nnlo_hessian_pdfas</weight>
    <weight id="55" MUR="1" MUF="1" PDF="306045"> Member 45 of sets NNPDF31_nnlo_hessian_pdfas</weight>
    <weight id="56" MUR="1" MUF="1" PDF="306046"> Member 46 of sets NNPDF31_nnlo_hessian_pdfas</weight>
    <weight id="57" MUR="1" MUF="1" PDF="306047"> Member 47 of sets NNPDF31_nnlo_hessian_pdfas</weight>
    <weight id="58" MUR="1" MUF="1" PDF="306048"> Member 48 of sets NNPDF31_nnlo_hessian_pdfas</weight>
    <weight id="59" MUR="1" MUF="1" PDF="306049"> Member 49 of sets NNPDF31_nnlo_hessian_pdfas</weight>
    <weight id="60" MUR="1" MUF="1" PDF="306050"> Member 50 of sets NNPDF31_nnlo_hessian_pdfas</weight>
    <weight id="61" MUR="1" MUF="1" PDF="306051"> Member 51 of sets NNPDF31_nnlo_hessian_pdfas</weight>
    <weight id="62" MUR="1" MUF="1" PDF="306052"> Member 52 of sets NNPDF31_nnlo_hessian_pdfas</weight>
    <weight id="63" MUR="1" MUF="1" PDF="306053"> Member 53 of sets NNPDF31_nnlo_hessian_pdfas</weight>
    <weight id="64" MUR="1" MUF="1" PDF="306054"> Member 54 of sets NNPDF31_nnlo_hessian_pdfas</weight>
    <weight id="65" MUR="1" MUF="1" PDF="306055"> Member 55 of sets NNPDF31_nnlo_hessian_pdfas</weight>
    <weight id="66" MUR="1" MUF="1" PDF="306056"> Member 56 of sets NNPDF31_nnlo_hessian_pdfas</weight>
    <weight id="67" MUR="1" MUF="1" PDF="306057"> Member 57 of sets NNPDF31_nnlo_hessian_pdfas</weight>
    <weight id="68" MUR="1" MUF="1" PDF="306058"> Member 58 of sets NNPDF31_nnlo_hessian_pdfas</weight>
    <weight id="69" MUR="1" MUF="1" PDF="306059"> Member 59 of sets NNPDF31_nnlo_hessian_pdfas</weight>
    <weight id="70" MUR="1" MUF="1" PDF="306060"> Member 60 of sets NNPDF31_nnlo_hessian_pdfas</weight>
    <weight id="71" MUR="1" MUF="1" PDF="306061"> Member 61 of sets NNPDF31_nnlo_hessian_pdfas</weight>
    <weight id="72" MUR="1" MUF="1" PDF="306062"> Member 62 of sets NNPDF31_nnlo_hessian_pdfas</weight>
    <weight id="73" MUR="1" MUF="1" PDF="306063"> Member 63 of sets NNPDF31_nnlo_hessian_pdfas</weight>
    <weight id="74" MUR="1" MUF="1" PDF="306064"> Member 64 of sets NNPDF31_nnlo_hessian_pdfas</weight>
    <weight id="75" MUR="1" MUF="1" PDF="306065"> Member 65 of sets NNPDF31_nnlo_hessian_pdfas</weight>
    <weight id="76" MUR="1" MUF="1" PDF="306066"> Member 66 of sets NNPDF31_nnlo_hessian_pdfas</weight>
    <weight id="77" MUR="1" MUF="1" PDF="306067"> Member 67 of sets NNPDF31_nnlo_hessian_pdfas</weight>
    <weight id="78" MUR="1" MUF="1" PDF="306068"> Member 68 of sets NNPDF31_nnlo_hessian_pdfas</weight>
    <weight id="79" MUR="1" MUF="1" PDF="306069"> Member 69 of sets NNPDF31_nnlo_hessian_pdfas</weight>
    <weight id="80" MUR="1" MUF="1" PDF="306070"> Member 70 of sets NNPDF31_nnlo_hessian_pdfas</weight>
    <weight id="81" MUR="1" MUF="1" PDF="306071"> Member 71 of sets NNPDF31_nnlo_hessian_pdfas</weight>
    <weight id="82" MUR="1" MUF="1" PDF="306072"> Member 72 of sets NNPDF31_nnlo_hessian_pdfas</weight>
    <weight id="83" MUR="1" MUF="1" PDF="306073"> Member 73 of sets NNPDF31_nnlo_hessian_pdfas</weight>
    <weight id="84" MUR="1" MUF="1" PDF="306074"> Member 74 of sets NNPDF31_nnlo_hessian_pdfas</weight>
    <weight id="85" MUR="1" MUF="1" PDF="306075"> Member 75 of sets NNPDF31_nnlo_hessian_pdfas</weight>
    <weight id="86" MUR="1" MUF="1" PDF="306076"> Member 76 of sets NNPDF31_nnlo_hessian_pdfas</weight>
    <weight id="87" MUR="1" MUF="1" PDF="306077"> Member 77 of sets NNPDF31_nnlo_hessian_pdfas</weight>
    <weight id="88" MUR="1" MUF="1" PDF="306078"> Member 78 of sets NNPDF31_nnlo_hessian_pdfas</weight>
    <weight id="89" MUR="1" MUF="1" PDF="306079"> Member 79 of sets NNPDF31_nnlo_hessian_pdfas</weight>
    <weight id="90" MUR="1" MUF="1" PDF="306080"> Member 80 of sets NNPDF31_nnlo_hessian_pdfas</weight>
    <weight id="91" MUR="1" MUF="1" PDF="306081"> Member 81 of sets NNPDF31_nnlo_hessian_pdfas</weight>
    <weight id="92" MUR="1" MUF="1" PDF="306082"> Member 82 of sets NNPDF31_nnlo_hessian_pdfas</weight>
    <weight id="93" MUR="1" MUF="1" PDF="306083"> Member 83 of sets NNPDF31_nnlo_hessian_pdfas</weight>
    <weight id="94" MUR="1" MUF="1" PDF="306084"> Member 84 of sets NNPDF31_nnlo_hessian_pdfas</weight>
    <weight id="95" MUR="1" MUF="1" PDF="306085"> Member 85 of sets NNPDF31_nnlo_hessian_pdfas</weight>
    <weight id="96" MUR="1" MUF="1" PDF="306086"> Member 86 of sets NNPDF31_nnlo_hessian_pdfas</weight>
    <weight id="97" MUR="1" MUF="1" PDF="306087"> Member 87 of sets NNPDF31_nnlo_hessian_pdfas</weight>
    <weight id="98" MUR="1" MUF="1" PDF="306088"> Member 88 of sets NNPDF31_nnlo_hessian_pdfas</weight>
    <weight id="99" MUR="1" MUF="1" PDF="306089"> Member 89 of sets NNPDF31_nnlo_hessian_pdfas</weight>
    <weight id="100" MUR="1" MUF="1" PDF="306090"> Member 90 of sets NNPDF31_nnlo_hessian_pdfas</weight>
    <weight id="101" MUR="1" MUF="1" PDF="306091"> Member 91 of sets NNPDF31_nnlo_hessian_pdfas</weight>
    <weight id="102" MUR="1" MUF="1" PDF="306092"> Member 92 of sets NNPDF31_nnlo_hessian_pdfas</weight>
    <weight id="103" MUR="1" MUF="1" PDF="306093"> Member 93 of sets NNPDF31_nnlo_hessian_pdfas</weight>
    <weight id="104" MUR="1" MUF="1" PDF="306094"> Member 94 of sets NNPDF31_nnlo_hessian_pdfas</weight>
    <weight id="105" MUR="1" MUF="1" PDF="306095"> Member 95 of sets NNPDF31_nnlo_hessian_pdfas</weight>
    <weight id="106" MUR="1" MUF="1" PDF="306096"> Member 96 of sets NNPDF31_nnlo_hessian_pdfas</weight>
    <weight id="107" MUR="1" MUF="1" PDF="306097"> Member 97 of sets NNPDF31_nnlo_hessian_pdfas</weight>
    <weight id="108" MUR="1" MUF="1" PDF="306098"> Member 98 of sets NNPDF31_nnlo_hessian_pdfas</weight>
    <weight id="109" MUR="1" MUF="1" PDF="306099"> Member 99 of sets NNPDF31_nnlo_hessian_pdfas</weight>
    <weight id="110" MUR="1" MUF="1" PDF="306100"> Member 100 of sets NNPDF31_nnlo_hessian_pdfas</weight>
    <weight id="111" MUR="1" MUF="1" PDF="306101"> Member 101 of sets NNPDF31_nnlo_hessian_pdfas</weight>
    <weight id="112" MUR="1" MUF="1" PDF="306102"> Member 102 of sets NNPDF31_nnlo_hessian_pdfas</weight>
  </weightgroup>
  <weightgroup name="CT10nlo_nf4" combine="hessian">
    <weight id="113" MUR="1" MUF="1" PDF="11082"> Member 0 of sets CT10nlo_nf4</weight>
  </weightgroup>
  <weightgroup name="CT14nnlo_NF4" combine="hessian">
    <weight id="114" MUR="1" MUF="1" PDF="13091"> Member 0 of sets CT14nnlo_NF4</weight>
  </weightgroup>
  <weightgroup name="CT14nlo_NF4" combine="hessian">
    <weight id="115" MUR="1" MUF="1" PDF="13191"> Member 0 of sets CT14nlo_NF4</weight>
  </weightgroup>
  <weightgroup name="CT14lo_NF4" combine="hessian">
    <weight id="116" MUR="1" MUF="1" PDF="13202"> Member 0 of sets CT14lo_NF4</weight>
  </weightgroup>
  <weightgroup name="MSTW2008lo68cl_nf4" combine="hessian">
    <weight id="117" MUR="1" MUF="1" PDF="23100"> Member 0 of sets MSTW2008lo68cl_nf4</weight>
    <weight id="118" MUR="1" MUF="1" PDF="23101"> Member 1 of sets MSTW2008lo68cl_nf4</weight>
    <weight id="119" MUR="1" MUF="1" PDF="23102"> Member 2 of sets MSTW2008lo68cl_nf4</weight>
    <weight id="120" MUR="1" MUF="1" PDF="23103"> Member 3 of sets MSTW2008lo68cl_nf4</weight>
    <weight id="121" MUR="1" MUF="1" PDF="23104"> Member 4 of sets MSTW2008lo68cl_nf4</weight>
    <weight id="122" MUR="1" MUF="1" PDF="23105"> Member 5 of sets MSTW2008lo68cl_nf4</weight>
    <weight id="123" MUR="1" MUF="1" PDF="23106"> Member 6 of sets MSTW2008lo68cl_nf4</weight>
    <weight id="124" MUR="1" MUF="1" PDF="23107"> Member 7 of sets MSTW2008lo68cl_nf4</weight>
    <weight id="125" MUR="1" MUF="1" PDF="23108"> Member 8 of sets MSTW2008lo68cl_nf4</weight>
    <weight id="126" MUR="1" MUF="1" PDF="23109"> Member 9 of sets MSTW2008lo68cl_nf4</weight>
    <weight id="127" MUR="1" MUF="1" PDF="23110"> Member 10 of sets MSTW2008lo68cl_nf4</weight>
    <weight id="128" MUR="1" MUF="1" PDF="23111"> Member 11 of sets MSTW2008lo68cl_nf4</weight>
    <weight id="129" MUR="1" MUF="1" PDF="23112"> Member 12 of sets MSTW2008lo68cl_nf4</weight>
    <weight id="130" MUR="1" MUF="1" PDF="23113"> Member 13 of sets MSTW2008lo68cl_nf4</weight>
    <weight id="131" MUR="1" MUF="1" PDF="23114"> Member 14 of sets MSTW2008lo68cl_nf4</weight>
    <weight id="132" MUR="1" MUF="1" PDF="23115"> Member 15 of sets MSTW2008lo68cl_nf4</weight>
    <weight id="133" MUR="1" MUF="1" PDF="23116"> Member 16 of sets MSTW2008lo68cl_nf4</weight>
    <weight id="134" MUR="1" MUF="1" PDF="23117"> Member 17 of sets MSTW2008lo68cl_nf4</weight>
    <weight id="135" MUR="1" MUF="1" PDF="23118"> Member 18 of sets MSTW2008lo68cl_nf4</weight>
    <weight id="136" MUR="1" MUF="1" PDF="23119"> Member 19 of sets MSTW2008lo68cl_nf4</weight>
    <weight id="137" MUR="1" MUF="1" PDF="23120"> Member 20 of sets MSTW2008lo68cl_nf4</weight>
    <weight id="138" MUR="1" MUF="1" PDF="23121"> Member 21 of sets MSTW2008lo68cl_nf4</weight>
    <weight id="139" MUR="1" MUF="1" PDF="23122"> Member 22 of sets MSTW2008lo68cl_nf4</weight>
    <weight id="140" MUR="1" MUF="1" PDF="23123"> Member 23 of sets MSTW2008lo68cl_nf4</weight>
    <weight id="141" MUR="1" MUF="1" PDF="23124"> Member 24 of sets MSTW2008lo68cl_nf4</weight>
    <weight id="142" MUR="1" MUF="1" PDF="23125"> Member 25 of sets MSTW2008lo68cl_nf4</weight>
    <weight id="143" MUR="1" MUF="1" PDF="23126"> Member 26 of sets MSTW2008lo68cl_nf4</weight>
    <weight id="144" MUR="1" MUF="1" PDF="23127"> Member 27 of sets MSTW2008lo68cl_nf4</weight>
    <weight id="145" MUR="1" MUF="1" PDF="23128"> Member 28 of sets MSTW2008lo68cl_nf4</weight>
    <weight id="146" MUR="1" MUF="1" PDF="23129"> Member 29 of sets MSTW2008lo68cl_nf4</weight>
    <weight id="147" MUR="1" MUF="1" PDF="23130"> Member 30 of sets MSTW2008lo68cl_nf4</weight>
    <weight id="148" MUR="1" MUF="1" PDF="23131"> Member 31 of sets MSTW2008lo68cl_nf4</weight>
    <weight id="149" MUR="1" MUF="1" PDF="23132"> Member 32 of sets MSTW2008lo68cl_nf4</weight>
    <weight id="150" MUR="1" MUF="1" PDF="23133"> Member 33 of sets MSTW2008lo68cl_nf4</weight>
    <weight id="151" MUR="1" MUF="1" PDF="23134"> Member 34 of sets MSTW2008lo68cl_nf4</weight>
    <weight id="152" MUR="1" MUF="1" PDF="23135"> Member 35 of sets MSTW2008lo68cl_nf4</weight>
    <weight id="153" MUR="1" MUF="1" PDF="23136"> Member 36 of sets MSTW2008lo68cl_nf4</weight>
    <weight id="154" MUR="1" MUF="1" PDF="23137"> Member 37 of sets MSTW2008lo68cl_nf4</weight>
    <weight id="155" MUR="1" MUF="1" PDF="23138"> Member 38 of sets MSTW2008lo68cl_nf4</weight>
    <weight id="156" MUR="1" MUF="1" PDF="23139"> Member 39 of sets MSTW2008lo68cl_nf4</weight>
    <weight id="157" MUR="1" MUF="1" PDF="23140"> Member 40 of sets MSTW2008lo68cl_nf4</weight>
  </weightgroup>
  <weightgroup name="MSTW2008nlo68cl_nf4" combine="hessian">
    <weight id="158" MUR="1" MUF="1" PDF="23300"> Member 0 of sets MSTW2008nlo68cl_nf4</weight>
    <weight id="159" MUR="1" MUF="1" PDF="23301"> Member 1 of sets MSTW2008nlo68cl_nf4</weight>
    <weight id="160" MUR="1" MUF="1" PDF="23302"> Member 2 of sets MSTW2008nlo68cl_nf4</weight>
    <weight id="161" MUR="1" MUF="1" PDF="23303"> Member 3 of sets MSTW2008nlo68cl_nf4</weight>
    <weight id="162" MUR="1" MUF="1" PDF="23304"> Member 4 of sets MSTW2008nlo68cl_nf4</weight>
    <weight id="163" MUR="1" MUF="1" PDF="23305"> Member 5 of sets MSTW2008nlo68cl_nf4</weight>
    <weight id="164" MUR="1" MUF="1" PDF="23306"> Member 6 of sets MSTW2008nlo68cl_nf4</weight>
    <weight id="165" MUR="1" MUF="1" PDF="23307"> Member 7 of sets MSTW2008nlo68cl_nf4</weight>
    <weight id="166" MUR="1" MUF="1" PDF="23308"> Member 8 of sets MSTW2008nlo68cl_nf4</weight>
    <weight id="167" MUR="1" MUF="1" PDF="23309"> Member 9 of sets MSTW2008nlo68cl_nf4</weight>
    <weight id="168" MUR="1" MUF="1" PDF="23310"> Member 10 of sets MSTW2008nlo68cl_nf4</weight>
    <weight id="169" MUR="1" MUF="1" PDF="23311"> Member 11 of sets MSTW2008nlo68cl_nf4</weight>
    <weight id="170" MUR="1" MUF="1" PDF="23312"> Member 12 of sets MSTW2008nlo68cl_nf4</weight>
    <weight id="171" MUR="1" MUF="1" PDF="23313"> Member 13 of sets MSTW2008nlo68cl_nf4</weight>
    <weight id="172" MUR="1" MUF="1" PDF="23314"> Member 14 of sets MSTW2008nlo68cl_nf4</weight>
    <weight id="173" MUR="1" MUF="1" PDF="23315"> Member 15 of sets MSTW2008nlo68cl_nf4</weight>
    <weight id="174" MUR="1" MUF="1" PDF="23316"> Member 16 of sets MSTW2008nlo68cl_nf4</weight>
    <weight id="175" MUR="1" MUF="1" PDF="23317"> Member 17 of sets MSTW2008nlo68cl_nf4</weight>
    <weight id="176" MUR="1" MUF="1" PDF="23318"> Member 18 of sets MSTW2008nlo68cl_nf4</weight>
    <weight id="177" MUR="1" MUF="1" PDF="23319"> Member 19 of sets MSTW2008nlo68cl_nf4</weight>
    <weight id="178" MUR="1" MUF="1" PDF="23320"> Member 20 of sets MSTW2008nlo68cl_nf4</weight>
    <weight id="179" MUR="1" MUF="1" PDF="23321"> Member 21 of sets MSTW2008nlo68cl_nf4</weight>
    <weight id="180" MUR="1" MUF="1" PDF="23322"> Member 22 of sets MSTW2008nlo68cl_nf4</weight>
    <weight id="181" MUR="1" MUF="1" PDF="23323"> Member 23 of sets MSTW2008nlo68cl_nf4</weight>
    <weight id="182" MUR="1" MUF="1" PDF="23324"> Member 24 of sets MSTW2008nlo68cl_nf4</weight>
    <weight id="183" MUR="1" MUF="1" PDF="23325"> Member 25 of sets MSTW2008nlo68cl_nf4</weight>
    <weight id="184" MUR="1" MUF="1" PDF="23326"> Member 26 of sets MSTW2008nlo68cl_nf4</weight>
    <weight id="185" MUR="1" MUF="1" PDF="23327"> Member 27 of sets MSTW2008nlo68cl_nf4</weight>
    <weight id="186" MUR="1" MUF="1" PDF="23328"> Member 28 of sets MSTW2008nlo68cl_nf4</weight>
    <weight id="187" MUR="1" MUF="1" PDF="23329"> Member 29 of sets MSTW2008nlo68cl_nf4</weight>
    <weight id="188" MUR="1" MUF="1" PDF="23330"> Member 30 of sets MSTW2008nlo68cl_nf4</weight>
    <weight id="189" MUR="1" MUF="1" PDF="23331"> Member 31 of sets MSTW2008nlo68cl_nf4</weight>
    <weight id="190" MUR="1" MUF="1" PDF="23332"> Member 32 of sets MSTW2008nlo68cl_nf4</weight>
    <weight id="191" MUR="1" MUF="1" PDF="23333"> Member 33 of sets MSTW2008nlo68cl_nf4</weight>
    <weight id="192" MUR="1" MUF="1" PDF="23334"> Member 34 of sets MSTW2008nlo68cl_nf4</weight>
    <weight id="193" MUR="1" MUF="1" PDF="23335"> Member 35 of sets MSTW2008nlo68cl_nf4</weight>
    <weight id="194" MUR="1" MUF="1" PDF="23336"> Member 36 of sets MSTW2008nlo68cl_nf4</weight>
    <weight id="195" MUR="1" MUF="1" PDF="23337"> Member 37 of sets MSTW2008nlo68cl_nf4</weight>
    <weight id="196" MUR="1" MUF="1" PDF="23338"> Member 38 of sets MSTW2008nlo68cl_nf4</weight>
    <weight id="197" MUR="1" MUF="1" PDF="23339"> Member 39 of sets MSTW2008nlo68cl_nf4</weight>
    <weight id="198" MUR="1" MUF="1" PDF="23340"> Member 40 of sets MSTW2008nlo68cl_nf4</weight>
  </weightgroup>
  <weightgroup name="MSTW2008nlo_mbrange_nf4" combine="hessian">
    <weight id="199" MUR="1" MUF="1" PDF="23490"> Member 0 of sets MSTW2008nlo_mbrange_nf4</weight>
    <weight id="200" MUR="1" MUF="1" PDF="23491"> Member 1 of sets MSTW2008nlo_mbrange_nf4</weight>
    <weight id="201" MUR="1" MUF="1" PDF="23492"> Member 2 of sets MSTW2008nlo_mbrange_nf4</weight>
    <weight id="202" MUR="1" MUF="1" PDF="23493"> Member 3 of sets MSTW2008nlo_mbrange_nf4</weight>
    <weight id="203" MUR="1" MUF="1" PDF="23494"> Member 4 of sets MSTW2008nlo_mbrange_nf4</weight>
    <weight id="204" MUR="1" MUF="1" PDF="23495"> Member 5 of sets MSTW2008nlo_mbrange_nf4</weight>
    <weight id="205" MUR="1" MUF="1" PDF="23496"> Member 6 of sets MSTW2008nlo_mbrange_nf4</weight>
  </weightgroup>
  <weightgroup name="MSTW2008nnlo68cl_nf4" combine="hessian">
    <weight id="206" MUR="1" MUF="1" PDF="23600"> Member 0 of sets MSTW2008nnlo68cl_nf4</weight>
    <weight id="207" MUR="1" MUF="1" PDF="23601"> Member 1 of sets MSTW2008nnlo68cl_nf4</weight>
    <weight id="208" MUR="1" MUF="1" PDF="23602"> Member 2 of sets MSTW2008nnlo68cl_nf4</weight>
    <weight id="209" MUR="1" MUF="1" PDF="23603"> Member 3 of sets MSTW2008nnlo68cl_nf4</weight>
    <weight id="210" MUR="1" MUF="1" PDF="23604"> Member 4 of sets MSTW2008nnlo68cl_nf4</weight>
    <weight id="211" MUR="1" MUF="1" PDF="23605"> Member 5 of sets MSTW2008nnlo68cl_nf4</weight>
    <weight id="212" MUR="1" MUF="1" PDF="23606"> Member 6 of sets MSTW2008nnlo68cl_nf4</weight>
    <weight id="213" MUR="1" MUF="1" PDF="23607"> Member 7 of sets MSTW2008nnlo68cl_nf4</weight>
    <weight id="214" MUR="1" MUF="1" PDF="23608"> Member 8 of sets MSTW2008nnlo68cl_nf4</weight>
    <weight id="215" MUR="1" MUF="1" PDF="23609"> Member 9 of sets MSTW2008nnlo68cl_nf4</weight>
    <weight id="216" MUR="1" MUF="1" PDF="23610"> Member 10 of sets MSTW2008nnlo68cl_nf4</weight>
    <weight id="217" MUR="1" MUF="1" PDF="23611"> Member 11 of sets MSTW2008nnlo68cl_nf4</weight>
    <weight id="218" MUR="1" MUF="1" PDF="23612"> Member 12 of sets MSTW2008nnlo68cl_nf4</weight>
    <weight id="219" MUR="1" MUF="1" PDF="23613"> Member 13 of sets MSTW2008nnlo68cl_nf4</weight>
    <weight id="220" MUR="1" MUF="1" PDF="23614"> Member 14 of sets MSTW2008nnlo68cl_nf4</weight>
    <weight id="221" MUR="1" MUF="1" PDF="23615"> Member 15 of sets MSTW2008nnlo68cl_nf4</weight>
    <weight id="222" MUR="1" MUF="1" PDF="23616"> Member 16 of sets MSTW2008nnlo68cl_nf4</weight>
    <weight id="223" MUR="1" MUF="1" PDF="23617"> Member 17 of sets MSTW2008nnlo68cl_nf4</weight>
    <weight id="224" MUR="1" MUF="1" PDF="23618"> Member 18 of sets MSTW2008nnlo68cl_nf4</weight>
    <weight id="225" MUR="1" MUF="1" PDF="23619"> Member 19 of sets MSTW2008nnlo68cl_nf4</weight>
    <weight id="226" MUR="1" MUF="1" PDF="23620"> Member 20 of sets MSTW2008nnlo68cl_nf4</weight>
    <weight id="227" MUR="1" MUF="1" PDF="23621"> Member 21 of sets MSTW2008nnlo68cl_nf4</weight>
    <weight id="228" MUR="1" MUF="1" PDF="23622"> Member 22 of sets MSTW2008nnlo68cl_nf4</weight>
    <weight id="229" MUR="1" MUF="1" PDF="23623"> Member 23 of sets MSTW2008nnlo68cl_nf4</weight>
    <weight id="230" MUR="1" MUF="1" PDF="23624"> Member 24 of sets MSTW2008nnlo68cl_nf4</weight>
    <weight id="231" MUR="1" MUF="1" PDF="23625"> Member 25 of sets MSTW2008nnlo68cl_nf4</weight>
    <weight id="232" MUR="1" MUF="1" PDF="23626"> Member 26 of sets MSTW2008nnlo68cl_nf4</weight>
    <weight id="233" MUR="1" MUF="1" PDF="23627"> Member 27 of sets MSTW2008nnlo68cl_nf4</weight>
    <weight id="234" MUR="1" MUF="1" PDF="23628"> Member 28 of sets MSTW2008nnlo68cl_nf4</weight>
    <weight id="235" MUR="1" MUF="1" PDF="23629"> Member 29 of sets MSTW2008nnlo68cl_nf4</weight>
    <weight id="236" MUR="1" MUF="1" PDF="23630"> Member 30 of sets MSTW2008nnlo68cl_nf4</weight>
    <weight id="237" MUR="1" MUF="1" PDF="23631"> Member 31 of sets MSTW2008nnlo68cl_nf4</weight>
    <weight id="238" MUR="1" MUF="1" PDF="23632"> Member 32 of sets MSTW2008nnlo68cl_nf4</weight>
    <weight id="239" MUR="1" MUF="1" PDF="23633"> Member 33 of sets MSTW2008nnlo68cl_nf4</weight>
    <weight id="240" MUR="1" MUF="1" PDF="23634"> Member 34 of sets MSTW2008nnlo68cl_nf4</weight>
    <weight id="241" MUR="1" MUF="1" PDF="23635"> Member 35 of sets MSTW2008nnlo68cl_nf4</weight>
    <weight id="242" MUR="1" MUF="1" PDF="23636"> Member 36 of sets MSTW2008nnlo68cl_nf4</weight>
    <weight id="243" MUR="1" MUF="1" PDF="23637"> Member 37 of sets MSTW2008nnlo68cl_nf4</weight>
    <weight id="244" MUR="1" MUF="1" PDF="23638"> Member 38 of sets MSTW2008nnlo68cl_nf4</weight>
    <weight id="245" MUR="1" MUF="1" PDF="23639"> Member 39 of sets MSTW2008nnlo68cl_nf4</weight>
    <weight id="246" MUR="1" MUF="1" PDF="23640"> Member 40 of sets MSTW2008nnlo68cl_nf4</weight>
  </weightgroup>
  <weightgroup name="MSTW2008nnlo_mbrange_nf4" combine="hessian">
    <weight id="247" MUR="1" MUF="1" PDF="23790"> Member 0 of sets MSTW2008nnlo_mbrange_nf4</weight>
    <weight id="248" MUR="1" MUF="1" PDF="23791"> Member 1 of sets MSTW2008nnlo_mbrange_nf4</weight>
    <weight id="249" MUR="1" MUF="1" PDF="23792"> Member 2 of sets MSTW2008nnlo_mbrange_nf4</weight>
    <weight id="250" MUR="1" MUF="1" PDF="23793"> Member 3 of sets MSTW2008nnlo_mbrange_nf4</weight>
    <weight id="251" MUR="1" MUF="1" PDF="23794"> Member 4 of sets MSTW2008nnlo_mbrange_nf4</weight>
    <weight id="252" MUR="1" MUF="1" PDF="23795"> Member 5 of sets MSTW2008nnlo_mbrange_nf4</weight>
    <weight id="253" MUR="1" MUF="1" PDF="23796"> Member 6 of sets MSTW2008nnlo_mbrange_nf4</weight>
  </weightgroup>
  <weightgroup name="MMHT2014nlo68cl_nf4" combine="hessian">
    <weight id="254" MUR="1" MUF="1" PDF="25410"> Member 0 of sets MMHT2014nlo68cl_nf4</weight>
    <weight id="255" MUR="1" MUF="1" PDF="25411"> Member 1 of sets MMHT2014nlo68cl_nf4</weight>
    <weight id="256" MUR="1" MUF="1" PDF="25412"> Member 2 of sets MMHT2014nlo68cl_nf4</weight>
    <weight id="257" MUR="1" MUF="1" PDF="25413"> Member 3 of sets MMHT2014nlo68cl_nf4</weight>
    <weight id="258" MUR="1" MUF="1" PDF="25414"> Member 4 of sets MMHT2014nlo68cl_nf4</weight>
    <weight id="259" MUR="1" MUF="1" PDF="25415"> Member 5 of sets MMHT2014nlo68cl_nf4</weight>
    <weight id="260" MUR="1" MUF="1" PDF="25416"> Member 6 of sets MMHT2014nlo68cl_nf4</weight>
    <weight id="261" MUR="1" MUF="1" PDF="25417"> Member 7 of sets MMHT2014nlo68cl_nf4</weight>
    <weight id="262" MUR="1" MUF="1" PDF="25418"> Member 8 of sets MMHT2014nlo68cl_nf4</weight>
    <weight id="263" MUR="1" MUF="1" PDF="25419"> Member 9 of sets MMHT2014nlo68cl_nf4</weight>
    <weight id="264" MUR="1" MUF="1" PDF="25420"> Member 10 of sets MMHT2014nlo68cl_nf4</weight>
    <weight id="265" MUR="1" MUF="1" PDF="25421"> Member 11 of sets MMHT2014nlo68cl_nf4</weight>
    <weight id="266" MUR="1" MUF="1" PDF="25422"> Member 12 of sets MMHT2014nlo68cl_nf4</weight>
    <weight id="267" MUR="1" MUF="1" PDF="25423"> Member 13 of sets MMHT2014nlo68cl_nf4</weight>
    <weight id="268" MUR="1" MUF="1" PDF="25424"> Member 14 of sets MMHT2014nlo68cl_nf4</weight>
    <weight id="269" MUR="1" MUF="1" PDF="25425"> Member 15 of sets MMHT2014nlo68cl_nf4</weight>
    <weight id="270" MUR="1" MUF="1" PDF="25426"> Member 16 of sets MMHT2014nlo68cl_nf4</weight>
    <weight id="271" MUR="1" MUF="1" PDF="25427"> Member 17 of sets MMHT2014nlo68cl_nf4</weight>
    <weight id="272" MUR="1" MUF="1" PDF="25428"> Member 18 of sets MMHT2014nlo68cl_nf4</weight>
    <weight id="273" MUR="1" MUF="1" PDF="25429"> Member 19 of sets MMHT2014nlo68cl_nf4</weight>
    <weight id="274" MUR="1" MUF="1" PDF="25430"> Member 20 of sets MMHT2014nlo68cl_nf4</weight>
    <weight id="275" MUR="1" MUF="1" PDF="25431"> Member 21 of sets MMHT2014nlo68cl_nf4</weight>
    <weight id="276" MUR="1" MUF="1" PDF="25432"> Member 22 of sets MMHT2014nlo68cl_nf4</weight>
    <weight id="277" MUR="1" MUF="1" PDF="25433"> Member 23 of sets MMHT2014nlo68cl_nf4</weight>
    <weight id="278" MUR="1" MUF="1" PDF="25434"> Member 24 of sets MMHT2014nlo68cl_nf4</weight>
    <weight id="279" MUR="1" MUF="1" PDF="25435"> Member 25 of sets MMHT2014nlo68cl_nf4</weight>
    <weight id="280" MUR="1" MUF="1" PDF="25436"> Member 26 of sets MMHT2014nlo68cl_nf4</weight>
    <weight id="281" MUR="1" MUF="1" PDF="25437"> Member 27 of sets MMHT2014nlo68cl_nf4</weight>
    <weight id="282" MUR="1" MUF="1" PDF="25438"> Member 28 of sets MMHT2014nlo68cl_nf4</weight>
    <weight id="283" MUR="1" MUF="1" PDF="25439"> Member 29 of sets MMHT2014nlo68cl_nf4</weight>
    <weight id="284" MUR="1" MUF="1" PDF="25440"> Member 30 of sets MMHT2014nlo68cl_nf4</weight>
    <weight id="285" MUR="1" MUF="1" PDF="25441"> Member 31 of sets MMHT2014nlo68cl_nf4</weight>
    <weight id="286" MUR="1" MUF="1" PDF="25442"> Member 32 of sets MMHT2014nlo68cl_nf4</weight>
    <weight id="287" MUR="1" MUF="1" PDF="25443"> Member 33 of sets MMHT2014nlo68cl_nf4</weight>
    <weight id="288" MUR="1" MUF="1" PDF="25444"> Member 34 of sets MMHT2014nlo68cl_nf4</weight>
    <weight id="289" MUR="1" MUF="1" PDF="25445"> Member 35 of sets MMHT2014nlo68cl_nf4</weight>
    <weight id="290" MUR="1" MUF="1" PDF="25446"> Member 36 of sets MMHT2014nlo68cl_nf4</weight>
    <weight id="291" MUR="1" MUF="1" PDF="25447"> Member 37 of sets MMHT2014nlo68cl_nf4</weight>
    <weight id="292" MUR="1" MUF="1" PDF="25448"> Member 38 of sets MMHT2014nlo68cl_nf4</weight>
    <weight id="293" MUR="1" MUF="1" PDF="25449"> Member 39 of sets MMHT2014nlo68cl_nf4</weight>
    <weight id="294" MUR="1" MUF="1" PDF="25450"> Member 40 of sets MMHT2014nlo68cl_nf4</weight>
    <weight id="295" MUR="1" MUF="1" PDF="25451"> Member 41 of sets MMHT2014nlo68cl_nf4</weight>
    <weight id="296" MUR="1" MUF="1" PDF="25452"> Member 42 of sets MMHT2014nlo68cl_nf4</weight>
    <weight id="297" MUR="1" MUF="1" PDF="25453"> Member 43 of sets MMHT2014nlo68cl_nf4</weight>
    <weight id="298" MUR="1" MUF="1" PDF="25454"> Member 44 of sets MMHT2014nlo68cl_nf4</weight>
    <weight id="299" MUR="1" MUF="1" PDF="25455"> Member 45 of sets MMHT2014nlo68cl_nf4</weight>
    <weight id="300" MUR="1" MUF="1" PDF="25456"> Member 46 of sets MMHT2014nlo68cl_nf4</weight>
    <weight id="301" MUR="1" MUF="1" PDF="25457"> Member 47 of sets MMHT2014nlo68cl_nf4</weight>
    <weight id="302" MUR="1" MUF="1" PDF="25458"> Member 48 of sets MMHT2014nlo68cl_nf4</weight>
    <weight id="303" MUR="1" MUF="1" PDF="25459"> Member 49 of sets MMHT2014nlo68cl_nf4</weight>
    <weight id="304" MUR="1" MUF="1" PDF="25460"> Member 50 of sets MMHT2014nlo68cl_nf4</weight>
  </weightgroup>
  <weightgroup name="MMHT2014nlo68clas118_nf4" combine="hessian">
    <weight id="305" MUR="1" MUF="1" PDF="25510"> Member 0 of sets MMHT2014nlo68clas118_nf4</weight>
    <weight id="306" MUR="1" MUF="1" PDF="25511"> Member 1 of sets MMHT2014nlo68clas118_nf4</weight>
    <weight id="307" MUR="1" MUF="1" PDF="25512"> Member 2 of sets MMHT2014nlo68clas118_nf4</weight>
    <weight id="308" MUR="1" MUF="1" PDF="25513"> Member 3 of sets MMHT2014nlo68clas118_nf4</weight>
    <weight id="309" MUR="1" MUF="1" PDF="25514"> Member 4 of sets MMHT2014nlo68clas118_nf4</weight>
    <weight id="310" MUR="1" MUF="1" PDF="25515"> Member 5 of sets MMHT2014nlo68clas118_nf4</weight>
    <weight id="311" MUR="1" MUF="1" PDF="25516"> Member 6 of sets MMHT2014nlo68clas118_nf4</weight>
    <weight id="312" MUR="1" MUF="1" PDF="25517"> Member 7 of sets MMHT2014nlo68clas118_nf4</weight>
    <weight id="313" MUR="1" MUF="1" PDF="25518"> Member 8 of sets MMHT2014nlo68clas118_nf4</weight>
    <weight id="314" MUR="1" MUF="1" PDF="25519"> Member 9 of sets MMHT2014nlo68clas118_nf4</weight>
    <weight id="315" MUR="1" MUF="1" PDF="25520"> Member 10 of sets MMHT2014nlo68clas118_nf4</weight>
    <weight id="316" MUR="1" MUF="1" PDF="25521"> Member 11 of sets MMHT2014nlo68clas118_nf4</weight>
    <weight id="317" MUR="1" MUF="1" PDF="25522"> Member 12 of sets MMHT2014nlo68clas118_nf4</weight>
    <weight id="318" MUR="1" MUF="1" PDF="25523"> Member 13 of sets MMHT2014nlo68clas118_nf4</weight>
    <weight id="319" MUR="1" MUF="1" PDF="25524"> Member 14 of sets MMHT2014nlo68clas118_nf4</weight>
    <weight id="320" MUR="1" MUF="1" PDF="25525"> Member 15 of sets MMHT2014nlo68clas118_nf4</weight>
    <weight id="321" MUR="1" MUF="1" PDF="25526"> Member 16 of sets MMHT2014nlo68clas118_nf4</weight>
    <weight id="322" MUR="1" MUF="1" PDF="25527"> Member 17 of sets MMHT2014nlo68clas118_nf4</weight>
    <weight id="323" MUR="1" MUF="1" PDF="25528"> Member 18 of sets MMHT2014nlo68clas118_nf4</weight>
    <weight id="324" MUR="1" MUF="1" PDF="25529"> Member 19 of sets MMHT2014nlo68clas118_nf4</weight>
    <weight id="325" MUR="1" MUF="1" PDF="25530"> Member 20 of sets MMHT2014nlo68clas118_nf4</weight>
    <weight id="326" MUR="1" MUF="1" PDF="25531"> Member 21 of sets MMHT2014nlo68clas118_nf4</weight>
    <weight id="327" MUR="1" MUF="1" PDF="25532"> Member 22 of sets MMHT2014nlo68clas118_nf4</weight>
    <weight id="328" MUR="1" MUF="1" PDF="25533"> Member 23 of sets MMHT2014nlo68clas118_nf4</weight>
    <weight id="329" MUR="1" MUF="1" PDF="25534"> Member 24 of sets MMHT2014nlo68clas118_nf4</weight>
    <weight id="330" MUR="1" MUF="1" PDF="25535"> Member 25 of sets MMHT2014nlo68clas118_nf4</weight>
    <weight id="331" MUR="1" MUF="1" PDF="25536"> Member 26 of sets MMHT2014nlo68clas118_nf4</weight>
    <weight id="332" MUR="1" MUF="1" PDF="25537"> Member 27 of sets MMHT2014nlo68clas118_nf4</weight>
    <weight id="333" MUR="1" MUF="1" PDF="25538"> Member 28 of sets MMHT2014nlo68clas118_nf4</weight>
    <weight id="334" MUR="1" MUF="1" PDF="25539"> Member 29 of sets MMHT2014nlo68clas118_nf4</weight>
    <weight id="335" MUR="1" MUF="1" PDF="25540"> Member 30 of sets MMHT2014nlo68clas118_nf4</weight>
    <weight id="336" MUR="1" MUF="1" PDF="25541"> Member 31 of sets MMHT2014nlo68clas118_nf4</weight>
    <weight id="337" MUR="1" MUF="1" PDF="25542"> Member 32 of sets MMHT2014nlo68clas118_nf4</weight>
    <weight id="338" MUR="1" MUF="1" PDF="25543"> Member 33 of sets MMHT2014nlo68clas118_nf4</weight>
    <weight id="339" MUR="1" MUF="1" PDF="25544"> Member 34 of sets MMHT2014nlo68clas118_nf4</weight>
    <weight id="340" MUR="1" MUF="1" PDF="25545"> Member 35 of sets MMHT2014nlo68clas118_nf4</weight>
    <weight id="341" MUR="1" MUF="1" PDF="25546"> Member 36 of sets MMHT2014nlo68clas118_nf4</weight>
    <weight id="342" MUR="1" MUF="1" PDF="25547"> Member 37 of sets MMHT2014nlo68clas118_nf4</weight>
    <weight id="343" MUR="1" MUF="1" PDF="25548"> Member 38 of sets MMHT2014nlo68clas118_nf4</weight>
    <weight id="344" MUR="1" MUF="1" PDF="25549"> Member 39 of sets MMHT2014nlo68clas118_nf4</weight>
    <weight id="345" MUR="1" MUF="1" PDF="25550"> Member 40 of sets MMHT2014nlo68clas118_nf4</weight>
    <weight id="346" MUR="1" MUF="1" PDF="25551"> Member 41 of sets MMHT2014nlo68clas118_nf4</weight>
    <weight id="347" MUR="1" MUF="1" PDF="25552"> Member 42 of sets MMHT2014nlo68clas118_nf4</weight>
    <weight id="348" MUR="1" MUF="1" PDF="25553"> Member 43 of sets MMHT2014nlo68clas118_nf4</weight>
    <weight id="349" MUR="1" MUF="1" PDF="25554"> Member 44 of sets MMHT2014nlo68clas118_nf4</weight>
    <weight id="350" MUR="1" MUF="1" PDF="25555"> Member 45 of sets MMHT2014nlo68clas118_nf4</weight>
    <weight id="351" MUR="1" MUF="1" PDF="25556"> Member 46 of sets MMHT2014nlo68clas118_nf4</weight>
    <weight id="352" MUR="1" MUF="1" PDF="25557"> Member 47 of sets MMHT2014nlo68clas118_nf4</weight>
    <weight id="353" MUR="1" MUF="1" PDF="25558"> Member 48 of sets MMHT2014nlo68clas118_nf4</weight>
    <weight id="354" MUR="1" MUF="1" PDF="25559"> Member 49 of sets MMHT2014nlo68clas118_nf4</weight>
    <weight id="355" MUR="1" MUF="1" PDF="25560"> Member 50 of sets MMHT2014nlo68clas118_nf4</weight>
  </weightgroup>
  <weightgroup name="MMHT2014nlo_asmzsmallrange_nf4" combine="hessian">
    <weight id="356" MUR="1" MUF="1" PDF="25570"> Member 0 of sets MMHT2014nlo_asmzsmallrange_nf4</weight>
    <weight id="357" MUR="1" MUF="1" PDF="25571"> Member 1 of sets MMHT2014nlo_asmzsmallrange_nf4</weight>
    <weight id="358" MUR="1" MUF="1" PDF="25572"> Member 2 of sets MMHT2014nlo_asmzsmallrange_nf4</weight>
    <weight id="359" MUR="1" MUF="1" PDF="25573"> Member 3 of sets MMHT2014nlo_asmzsmallrange_nf4</weight>
    <weight id="360" MUR="1" MUF="1" PDF="25574"> Member 4 of sets MMHT2014nlo_asmzsmallrange_nf4</weight>
  </weightgroup>
  <weightgroup name="MMHT2014nlo_mcrange_nf4" combine="hessian">
    <weight id="361" MUR="1" MUF="1" PDF="25605"> Member 0 of sets MMHT2014nlo_mcrange_nf4</weight>
    <weight id="362" MUR="1" MUF="1" PDF="25606"> Member 1 of sets MMHT2014nlo_mcrange_nf4</weight>
    <weight id="363" MUR="1" MUF="1" PDF="25607"> Member 2 of sets MMHT2014nlo_mcrange_nf4</weight>
    <weight id="364" MUR="1" MUF="1" PDF="25608"> Member 3 of sets MMHT2014nlo_mcrange_nf4</weight>
    <weight id="365" MUR="1" MUF="1" PDF="25609"> Member 4 of sets MMHT2014nlo_mcrange_nf4</weight>
    <weight id="366" MUR="1" MUF="1" PDF="25610"> Member 5 of sets MMHT2014nlo_mcrange_nf4</weight>
    <weight id="367" MUR="1" MUF="1" PDF="25611"> Member 6 of sets MMHT2014nlo_mcrange_nf4</weight>
    <weight id="368" MUR="1" MUF="1" PDF="25612"> Member 7 of sets MMHT2014nlo_mcrange_nf4</weight>
    <weight id="369" MUR="1" MUF="1" PDF="25613"> Member 8 of sets MMHT2014nlo_mcrange_nf4</weight>
  </weightgroup>
  <weightgroup name="MMHT2014nlo_mbrange_nf4" combine="hessian">
    <weight id="370" MUR="1" MUF="1" PDF="25620"> Member 0 of sets MMHT2014nlo_mbrange_nf4</weight>
    <weight id="371" MUR="1" MUF="1" PDF="25621"> Member 1 of sets MMHT2014nlo_mbrange_nf4</weight>
    <weight id="372" MUR="1" MUF="1" PDF="25622"> Member 2 of sets MMHT2014nlo_mbrange_nf4</weight>
    <weight id="373" MUR="1" MUF="1" PDF="25623"> Member 3 of sets MMHT2014nlo_mbrange_nf4</weight>
    <weight id="374" MUR="1" MUF="1" PDF="25624"> Member 4 of sets MMHT2014nlo_mbrange_nf4</weight>
  </weightgroup>
  <weightgroup name="MMHT2014nnlo68cl_nf4" combine="hessian">
    <weight id="375" MUR="1" MUF="1" PDF="25710"> Member 0 of sets MMHT2014nnlo68cl_nf4</weight>
    <weight id="376" MUR="1" MUF="1" PDF="25711"> Member 1 of sets MMHT2014nnlo68cl_nf4</weight>
    <weight id="377" MUR="1" MUF="1" PDF="25712"> Member 2 of sets MMHT2014nnlo68cl_nf4</weight>
    <weight id="378" MUR="1" MUF="1" PDF="25713"> Member 3 of sets MMHT2014nnlo68cl_nf4</weight>
    <weight id="379" MUR="1" MUF="1" PDF="25714"> Member 4 of sets MMHT2014nnlo68cl_nf4</weight>
    <weight id="380" MUR="1" MUF="1" PDF="25715"> Member 5 of sets MMHT2014nnlo68cl_nf4</weight>
    <weight id="381" MUR="1" MUF="1" PDF="25716"> Member 6 of sets MMHT2014nnlo68cl_nf4</weight>
    <weight id="382" MUR="1" MUF="1" PDF="25717"> Member 7 of sets MMHT2014nnlo68cl_nf4</weight>
    <weight id="383" MUR="1" MUF="1" PDF="25718"> Member 8 of sets MMHT2014nnlo68cl_nf4</weight>
    <weight id="384" MUR="1" MUF="1" PDF="25719"> Member 9 of sets MMHT2014nnlo68cl_nf4</weight>
    <weight id="385" MUR="1" MUF="1" PDF="25720"> Member 10 of sets MMHT2014nnlo68cl_nf4</weight>
    <weight id="386" MUR="1" MUF="1" PDF="25721"> Member 11 of sets MMHT2014nnlo68cl_nf4</weight>
    <weight id="387" MUR="1" MUF="1" PDF="25722"> Member 12 of sets MMHT2014nnlo68cl_nf4</weight>
    <weight id="388" MUR="1" MUF="1" PDF="25723"> Member 13 of sets MMHT2014nnlo68cl_nf4</weight>
    <weight id="389" MUR="1" MUF="1" PDF="25724"> Member 14 of sets MMHT2014nnlo68cl_nf4</weight>
    <weight id="390" MUR="1" MUF="1" PDF="25725"> Member 15 of sets MMHT2014nnlo68cl_nf4</weight>
    <weight id="391" MUR="1" MUF="1" PDF="25726"> Member 16 of sets MMHT2014nnlo68cl_nf4</weight>
    <weight id="392" MUR="1" MUF="1" PDF="25727"> Member 17 of sets MMHT2014nnlo68cl_nf4</weight>
    <weight id="393" MUR="1" MUF="1" PDF="25728"> Member 18 of sets MMHT2014nnlo68cl_nf4</weight>
    <weight id="394" MUR="1" MUF="1" PDF="25729"> Member 19 of sets MMHT2014nnlo68cl_nf4</weight>
    <weight id="395" MUR="1" MUF="1" PDF="25730"> Member 20 of sets MMHT2014nnlo68cl_nf4</weight>
    <weight id="396" MUR="1" MUF="1" PDF="25731"> Member 21 of sets MMHT2014nnlo68cl_nf4</weight>
    <weight id="397" MUR="1" MUF="1" PDF="25732"> Member 22 of sets MMHT2014nnlo68cl_nf4</weight>
    <weight id="398" MUR="1" MUF="1" PDF="25733"> Member 23 of sets MMHT2014nnlo68cl_nf4</weight>
    <weight id="399" MUR="1" MUF="1" PDF="25734"> Member 24 of sets MMHT2014nnlo68cl_nf4</weight>
    <weight id="400" MUR="1" MUF="1" PDF="25735"> Member 25 of sets MMHT2014nnlo68cl_nf4</weight>
    <weight id="401" MUR="1" MUF="1" PDF="25736"> Member 26 of sets MMHT2014nnlo68cl_nf4</weight>
    <weight id="402" MUR="1" MUF="1" PDF="25737"> Member 27 of sets MMHT2014nnlo68cl_nf4</weight>
    <weight id="403" MUR="1" MUF="1" PDF="25738"> Member 28 of sets MMHT2014nnlo68cl_nf4</weight>
    <weight id="404" MUR="1" MUF="1" PDF="25739"> Member 29 of sets MMHT2014nnlo68cl_nf4</weight>
    <weight id="405" MUR="1" MUF="1" PDF="25740"> Member 30 of sets MMHT2014nnlo68cl_nf4</weight>
    <weight id="406" MUR="1" MUF="1" PDF="25741"> Member 31 of sets MMHT2014nnlo68cl_nf4</weight>
    <weight id="407" MUR="1" MUF="1" PDF="25742"> Member 32 of sets MMHT2014nnlo68cl_nf4</weight>
    <weight id="408" MUR="1" MUF="1" PDF="25743"> Member 33 of sets MMHT2014nnlo68cl_nf4</weight>
    <weight id="409" MUR="1" MUF="1" PDF="25744"> Member 34 of sets MMHT2014nnlo68cl_nf4</weight>
    <weight id="410" MUR="1" MUF="1" PDF="25745"> Member 35 of sets MMHT2014nnlo68cl_nf4</weight>
    <weight id="411" MUR="1" MUF="1" PDF="25746"> Member 36 of sets MMHT2014nnlo68cl_nf4</weight>
    <weight id="412" MUR="1" MUF="1" PDF="25747"> Member 37 of sets MMHT2014nnlo68cl_nf4</weight>
    <weight id="413" MUR="1" MUF="1" PDF="25748"> Member 38 of sets MMHT2014nnlo68cl_nf4</weight>
    <weight id="414" MUR="1" MUF="1" PDF="25749"> Member 39 of sets MMHT2014nnlo68cl_nf4</weight>
    <weight id="415" MUR="1" MUF="1" PDF="25750"> Member 40 of sets MMHT2014nnlo68cl_nf4</weight>
    <weight id="416" MUR="1" MUF="1" PDF="25751"> Member 41 of sets MMHT2014nnlo68cl_nf4</weight>
    <weight id="417" MUR="1" MUF="1" PDF="25752"> Member 42 of sets MMHT2014nnlo68cl_nf4</weight>
    <weight id="418" MUR="1" MUF="1" PDF="25753"> Member 43 of sets MMHT2014nnlo68cl_nf4</weight>
    <weight id="419" MUR="1" MUF="1" PDF="25754"> Member 44 of sets MMHT2014nnlo68cl_nf4</weight>
    <weight id="420" MUR="1" MUF="1" PDF="25755"> Member 45 of sets MMHT2014nnlo68cl_nf4</weight>
    <weight id="421" MUR="1" MUF="1" PDF="25756"> Member 46 of sets MMHT2014nnlo68cl_nf4</weight>
    <weight id="422" MUR="1" MUF="1" PDF="25757"> Member 47 of sets MMHT2014nnlo68cl_nf4</weight>
    <weight id="423" MUR="1" MUF="1" PDF="25758"> Member 48 of sets MMHT2014nnlo68cl_nf4</weight>
    <weight id="424" MUR="1" MUF="1" PDF="25759"> Member 49 of sets MMHT2014nnlo68cl_nf4</weight>
    <weight id="425" MUR="1" MUF="1" PDF="25760"> Member 50 of sets MMHT2014nnlo68cl_nf4</weight>
  </weightgroup>
  <weightgroup name="MMHT2014nnlo_asmzsmallrange_nf4" combine="hessian">
    <weight id="426" MUR="1" MUF="1" PDF="25770"> Member 0 of sets MMHT2014nnlo_asmzsmallrange_nf4</weight>
    <weight id="427" MUR="1" MUF="1" PDF="25771"> Member 1 of sets MMHT2014nnlo_asmzsmallrange_nf4</weight>
    <weight id="428" MUR="1" MUF="1" PDF="25772"> Member 2 of sets MMHT2014nnlo_asmzsmallrange_nf4</weight>
  </weightgroup>
  <weightgroup name="MMHT2014nnlo_mcrange_nf4" combine="hessian">
    <weight id="429" MUR="1" MUF="1" PDF="25805"> Member 0 of sets MMHT2014nnlo_mcrange_nf4</weight>
    <weight id="430" MUR="1" MUF="1" PDF="25806"> Member 1 of sets MMHT2014nnlo_mcrange_nf4</weight>
    <weight id="431" MUR="1" MUF="1" PDF="25807"> Member 2 of sets MMHT2014nnlo_mcrange_nf4</weight>
    <weight id="432" MUR="1" MUF="1" PDF="25808"> Member 3 of sets MMHT2014nnlo_mcrange_nf4</weight>
    <weight id="433" MUR="1" MUF="1" PDF="25809"> Member 4 of sets MMHT2014nnlo_mcrange_nf4</weight>
    <weight id="434" MUR="1" MUF="1" PDF="25810"> Member 5 of sets MMHT2014nnlo_mcrange_nf4</weight>
    <weight id="435" MUR="1" MUF="1" PDF="25811"> Member 6 of sets MMHT2014nnlo_mcrange_nf4</weight>
    <weight id="436" MUR="1" MUF="1" PDF="25812"> Member 7 of sets MMHT2014nnlo_mcrange_nf4</weight>
    <weight id="437" MUR="1" MUF="1" PDF="25813"> Member 8 of sets MMHT2014nnlo_mcrange_nf4</weight>
  </weightgroup>
  <weightgroup name="MMHT2014nnlo_mbrange_nf4" combine="hessian">
    <weight id="438" MUR="1" MUF="1" PDF="25840"> Member 0 of sets MMHT2014nnlo_mbrange_nf4</weight>
    <weight id="439" MUR="1" MUF="1" PDF="25841"> Member 1 of sets MMHT2014nnlo_mbrange_nf4</weight>
    <weight id="440" MUR="1" MUF="1" PDF="25842"> Member 2 of sets MMHT2014nnlo_mbrange_nf4</weight>
    <weight id="441" MUR="1" MUF="1" PDF="25843"> Member 3 of sets MMHT2014nnlo_mbrange_nf4</weight>
    <weight id="442" MUR="1" MUF="1" PDF="25844"> Member 4 of sets MMHT2014nnlo_mbrange_nf4</weight>
  </weightgroup>
  <weightgroup name="PDF4LHC15_nlo_nf4_30" combine="hessian">
    <weight id="443" MUR="1" MUF="1" PDF="92000"> Member 0 of sets PDF4LHC15_nlo_nf4_30</weight>
    <weight id="444" MUR="1" MUF="1" PDF="92001"> Member 1 of sets PDF4LHC15_nlo_nf4_30</weight>
    <weight id="445" MUR="1" MUF="1" PDF="92002"> Member 2 of sets PDF4LHC15_nlo_nf4_30</weight>
    <weight id="446" MUR="1" MUF="1" PDF="92003"> Member 3 of sets PDF4LHC15_nlo_nf4_30</weight>
    <weight id="447" MUR="1" MUF="1" PDF="92004"> Member 4 of sets PDF4LHC15_nlo_nf4_30</weight>
    <weight id="448" MUR="1" MUF="1" PDF="92005"> Member 5 of sets PDF4LHC15_nlo_nf4_30</weight>
    <weight id="449" MUR="1" MUF="1" PDF="92006"> Member 6 of sets PDF4LHC15_nlo_nf4_30</weight>
    <weight id="450" MUR="1" MUF="1" PDF="92007"> Member 7 of sets PDF4LHC15_nlo_nf4_30</weight>
    <weight id="451" MUR="1" MUF="1" PDF="92008"> Member 8 of sets PDF4LHC15_nlo_nf4_30</weight>
    <weight id="452" MUR="1" MUF="1" PDF="92009"> Member 9 of sets PDF4LHC15_nlo_nf4_30</weight>
    <weight id="453" MUR="1" MUF="1" PDF="92010"> Member 10 of sets PDF4LHC15_nlo_nf4_30</weight>
    <weight id="454" MUR="1" MUF="1" PDF="92011"> Member 11 of sets PDF4LHC15_nlo_nf4_30</weight>
    <weight id="455" MUR="1" MUF="1" PDF="92012"> Member 12 of sets PDF4LHC15_nlo_nf4_30</weight>
    <weight id="456" MUR="1" MUF="1" PDF="92013"> Member 13 of sets PDF4LHC15_nlo_nf4_30</weight>
    <weight id="457" MUR="1" MUF="1" PDF="92014"> Member 14 of sets PDF4LHC15_nlo_nf4_30</weight>
    <weight id="458" MUR="1" MUF="1" PDF="92015"> Member 15 of sets PDF4LHC15_nlo_nf4_30</weight>
    <weight id="459" MUR="1" MUF="1" PDF="92016"> Member 16 of sets PDF4LHC15_nlo_nf4_30</weight>
    <weight id="460" MUR="1" MUF="1" PDF="92017"> Member 17 of sets PDF4LHC15_nlo_nf4_30</weight>
    <weight id="461" MUR="1" MUF="1" PDF="92018"> Member 18 of sets PDF4LHC15_nlo_nf4_30</weight>
    <weight id="462" MUR="1" MUF="1" PDF="92019"> Member 19 of sets PDF4LHC15_nlo_nf4_30</weight>
    <weight id="463" MUR="1" MUF="1" PDF="92020"> Member 20 of sets PDF4LHC15_nlo_nf4_30</weight>
    <weight id="464" MUR="1" MUF="1" PDF="92021"> Member 21 of sets PDF4LHC15_nlo_nf4_30</weight>
    <weight id="465" MUR="1" MUF="1" PDF="92022"> Member 22 of sets PDF4LHC15_nlo_nf4_30</weight>
    <weight id="466" MUR="1" MUF="1" PDF="92023"> Member 23 of sets PDF4LHC15_nlo_nf4_30</weight>
    <weight id="467" MUR="1" MUF="1" PDF="92024"> Member 24 of sets PDF4LHC15_nlo_nf4_30</weight>
    <weight id="468" MUR="1" MUF="1" PDF="92025"> Member 25 of sets PDF4LHC15_nlo_nf4_30</weight>
    <weight id="469" MUR="1" MUF="1" PDF="92026"> Member 26 of sets PDF4LHC15_nlo_nf4_30</weight>
    <weight id="470" MUR="1" MUF="1" PDF="92027"> Member 27 of sets PDF4LHC15_nlo_nf4_30</weight>
    <weight id="471" MUR="1" MUF="1" PDF="92028"> Member 28 of sets PDF4LHC15_nlo_nf4_30</weight>
    <weight id="472" MUR="1" MUF="1" PDF="92029"> Member 29 of sets PDF4LHC15_nlo_nf4_30</weight>
    <weight id="473" MUR="1" MUF="1" PDF="92030"> Member 30 of sets PDF4LHC15_nlo_nf4_30</weight>
  </weightgroup>
  <weightgroup name="NNPDF31_nnlo_as_0118_nf_4" combine="hessian">
    <weight id="474" MUR="1" MUF="1" PDF="320900"> Member 0 of sets NNPDF31_nnlo_as_0118_nf_4</weight>
    <weight id="475" MUR="1" MUF="1" PDF="320901"> Member 1 of sets NNPDF31_nnlo_as_0118_nf_4</weight>
    <weight id="476" MUR="1" MUF="1" PDF="320902"> Member 2 of sets NNPDF31_nnlo_as_0118_nf_4</weight>
    <weight id="477" MUR="1" MUF="1" PDF="320903"> Member 3 of sets NNPDF31_nnlo_as_0118_nf_4</weight>
    <weight id="478" MUR="1" MUF="1" PDF="320904"> Member 4 of sets NNPDF31_nnlo_as_0118_nf_4</weight>
    <weight id="479" MUR="1" MUF="1" PDF="320905"> Member 5 of sets NNPDF31_nnlo_as_0118_nf_4</weight>
    <weight id="480" MUR="1" MUF="1" PDF="320906"> Member 6 of sets NNPDF31_nnlo_as_0118_nf_4</weight>
    <weight id="481" MUR="1" MUF="1" PDF="320907"> Member 7 of sets NNPDF31_nnlo_as_0118_nf_4</weight>
    <weight id="482" MUR="1" MUF="1" PDF="320908"> Member 8 of sets NNPDF31_nnlo_as_0118_nf_4</weight>
    <weight id="483" MUR="1" MUF="1" PDF="320909"> Member 9 of sets NNPDF31_nnlo_as_0118_nf_4</weight>
    <weight id="484" MUR="1" MUF="1" PDF="320910"> Member 10 of sets NNPDF31_nnlo_as_0118_nf_4</weight>
    <weight id="485" MUR="1" MUF="1" PDF="320911"> Member 11 of sets NNPDF31_nnlo_as_0118_nf_4</weight>
    <weight id="486" MUR="1" MUF="1" PDF="320912"> Member 12 of sets NNPDF31_nnlo_as_0118_nf_4</weight>
    <weight id="487" MUR="1" MUF="1" PDF="320913"> Member 13 of sets NNPDF31_nnlo_as_0118_nf_4</weight>
    <weight id="488" MUR="1" MUF="1" PDF="320914"> Member 14 of sets NNPDF31_nnlo_as_0118_nf_4</weight>
    <weight id="489" MUR="1" MUF="1" PDF="320915"> Member 15 of sets NNPDF31_nnlo_as_0118_nf_4</weight>
    <weight id="490" MUR="1" MUF="1" PDF="320916"> Member 16 of sets NNPDF31_nnlo_as_0118_nf_4</weight>
    <weight id="491" MUR="1" MUF="1" PDF="320917"> Member 17 of sets NNPDF31_nnlo_as_0118_nf_4</weight>
    <weight id="492" MUR="1" MUF="1" PDF="320918"> Member 18 of sets NNPDF31_nnlo_as_0118_nf_4</weight>
    <weight id="493" MUR="1" MUF="1" PDF="320919"> Member 19 of sets NNPDF31_nnlo_as_0118_nf_4</weight>
    <weight id="494" MUR="1" MUF="1" PDF="320920"> Member 20 of sets NNPDF31_nnlo_as_0118_nf_4</weight>
    <weight id="495" MUR="1" MUF="1" PDF="320921"> Member 21 of sets NNPDF31_nnlo_as_0118_nf_4</weight>
    <weight id="496" MUR="1" MUF="1" PDF="320922"> Member 22 of sets NNPDF31_nnlo_as_0118_nf_4</weight>
    <weight id="497" MUR="1" MUF="1" PDF="320923"> Member 23 of sets NNPDF31_nnlo_as_0118_nf_4</weight>
    <weight id="498" MUR="1" MUF="1" PDF="320924"> Member 24 of sets NNPDF31_nnlo_as_0118_nf_4</weight>
    <weight id="499" MUR="1" MUF="1" PDF="320925"> Member 25 of sets NNPDF31_nnlo_as_0118_nf_4</weight>
    <weight id="500" MUR="1" MUF="1" PDF="320926"> Member 26 of sets NNPDF31_nnlo_as_0118_nf_4</weight>
    <weight id="501" MUR="1" MUF="1" PDF="320927"> Member 27 of sets NNPDF31_nnlo_as_0118_nf_4</weight>
    <weight id="502" MUR="1" MUF="1" PDF="320928"> Member 28 of sets NNPDF31_nnlo_as_0118_nf_4</weight>
    <weight id="503" MUR="1" MUF="1" PDF="320929"> Member 29 of sets NNPDF31_nnlo_as_0118_nf_4</weight>
    <weight id="504" MUR="1" MUF="1" PDF="320930"> Member 30 of sets NNPDF31_nnlo_as_0118_nf_4</weight>
    <weight id="505" MUR="1" MUF="1" PDF="320931"> Member 31 of sets NNPDF31_nnlo_as_0118_nf_4</weight>
    <weight id="506" MUR="1" MUF="1" PDF="320932"> Member 32 of sets NNPDF31_nnlo_as_0118_nf_4</weight>
    <weight id="507" MUR="1" MUF="1" PDF="320933"> Member 33 of sets NNPDF31_nnlo_as_0118_nf_4</weight>
    <weight id="508" MUR="1" MUF="1" PDF="320934"> Member 34 of sets NNPDF31_nnlo_as_0118_nf_4</weight>
    <weight id="509" MUR="1" MUF="1" PDF="320935"> Member 35 of sets NNPDF31_nnlo_as_0118_nf_4</weight>
    <weight id="510" MUR="1" MUF="1" PDF="320936"> Member 36 of sets NNPDF31_nnlo_as_0118_nf_4</weight>
    <weight id="511" MUR="1" MUF="1" PDF="320937"> Member 37 of sets NNPDF31_nnlo_as_0118_nf_4</weight>
    <weight id="512" MUR="1" MUF="1" PDF="320938"> Member 38 of sets NNPDF31_nnlo_as_0118_nf_4</weight>
    <weight id="513" MUR="1" MUF="1" PDF="320939"> Member 39 of sets NNPDF31_nnlo_as_0118_nf_4</weight>
    <weight id="514" MUR="1" MUF="1" PDF="320940"> Member 40 of sets NNPDF31_nnlo_as_0118_nf_4</weight>
    <weight id="515" MUR="1" MUF="1" PDF="320941"> Member 41 of sets NNPDF31_nnlo_as_0118_nf_4</weight>
    <weight id="516" MUR="1" MUF="1" PDF="320942"> Member 42 of sets NNPDF31_nnlo_as_0118_nf_4</weight>
    <weight id="517" MUR="1" MUF="1" PDF="320943"> Member 43 of sets NNPDF31_nnlo_as_0118_nf_4</weight>
    <weight id="518" MUR="1" MUF="1" PDF="320944"> Member 44 of sets NNPDF31_nnlo_as_0118_nf_4</weight>
    <weight id="519" MUR="1" MUF="1" PDF="320945"> Member 45 of sets NNPDF31_nnlo_as_0118_nf_4</weight>
    <weight id="520" MUR="1" MUF="1" PDF="320946"> Member 46 of sets NNPDF31_nnlo_as_0118_nf_4</weight>
    <weight id="521" MUR="1" MUF="1" PDF="320947"> Member 47 of sets NNPDF31_nnlo_as_0118_nf_4</weight>
    <weight id="522" MUR="1" MUF="1" PDF="320948"> Member 48 of sets NNPDF31_nnlo_as_0118_nf_4</weight>
    <weight id="523" MUR="1" MUF="1" PDF="320949"> Member 49 of sets NNPDF31_nnlo_as_0118_nf_4</weight>
    <weight id="524" MUR="1" MUF="1" PDF="320950"> Member 50 of sets NNPDF31_nnlo_as_0118_nf_4</weight>
    <weight id="525" MUR="1" MUF="1" PDF="320951"> Member 51 of sets NNPDF31_nnlo_as_0118_nf_4</weight>
    <weight id="526" MUR="1" MUF="1" PDF="320952"> Member 52 of sets NNPDF31_nnlo_as_0118_nf_4</weight>
    <weight id="527" MUR="1" MUF="1" PDF="320953"> Member 53 of sets NNPDF31_nnlo_as_0118_nf_4</weight>
    <weight id="528" MUR="1" MUF="1" PDF="320954"> Member 54 of sets NNPDF31_nnlo_as_0118_nf_4</weight>
    <weight id="529" MUR="1" MUF="1" PDF="320955"> Member 55 of sets NNPDF31_nnlo_as_0118_nf_4</weight>
    <weight id="530" MUR="1" MUF="1" PDF="320956"> Member 56 of sets NNPDF31_nnlo_as_0118_nf_4</weight>
    <weight id="531" MUR="1" MUF="1" PDF="320957"> Member 57 of sets NNPDF31_nnlo_as_0118_nf_4</weight>
    <weight id="532" MUR="1" MUF="1" PDF="320958"> Member 58 of sets NNPDF31_nnlo_as_0118_nf_4</weight>
    <weight id="533" MUR="1" MUF="1" PDF="320959"> Member 59 of sets NNPDF31_nnlo_as_0118_nf_4</weight>
    <weight id="534" MUR="1" MUF="1" PDF="320960"> Member 60 of sets NNPDF31_nnlo_as_0118_nf_4</weight>
    <weight id="535" MUR="1" MUF="1" PDF="320961"> Member 61 of sets NNPDF31_nnlo_as_0118_nf_4</weight>
    <weight id="536" MUR="1" MUF="1" PDF="320962"> Member 62 of sets NNPDF31_nnlo_as_0118_nf_4</weight>
    <weight id="537" MUR="1" MUF="1" PDF="320963"> Member 63 of sets NNPDF31_nnlo_as_0118_nf_4</weight>
    <weight id="538" MUR="1" MUF="1" PDF="320964"> Member 64 of sets NNPDF31_nnlo_as_0118_nf_4</weight>
    <weight id="539" MUR="1" MUF="1" PDF="320965"> Member 65 of sets NNPDF31_nnlo_as_0118_nf_4</weight>
    <weight id="540" MUR="1" MUF="1" PDF="320966"> Member 66 of sets NNPDF31_nnlo_as_0118_nf_4</weight>
    <weight id="541" MUR="1" MUF="1" PDF="320967"> Member 67 of sets NNPDF31_nnlo_as_0118_nf_4</weight>
    <weight id="542" MUR="1" MUF="1" PDF="320968"> Member 68 of sets NNPDF31_nnlo_as_0118_nf_4</weight>
    <weight id="543" MUR="1" MUF="1" PDF="320969"> Member 69 of sets NNPDF31_nnlo_as_0118_nf_4</weight>
    <weight id="544" MUR="1" MUF="1" PDF="320970"> Member 70 of sets NNPDF31_nnlo_as_0118_nf_4</weight>
    <weight id="545" MUR="1" MUF="1" PDF="320971"> Member 71 of sets NNPDF31_nnlo_as_0118_nf_4</weight>
    <weight id="546" MUR="1" MUF="1" PDF="320972"> Member 72 of sets NNPDF31_nnlo_as_0118_nf_4</weight>
    <weight id="547" MUR="1" MUF="1" PDF="320973"> Member 73 of sets NNPDF31_nnlo_as_0118_nf_4</weight>
    <weight id="548" MUR="1" MUF="1" PDF="320974"> Member 74 of sets NNPDF31_nnlo_as_0118_nf_4</weight>
    <weight id="549" MUR="1" MUF="1" PDF="320975"> Member 75 of sets NNPDF31_nnlo_as_0118_nf_4</weight>
    <weight id="550" MUR="1" MUF="1" PDF="320976"> Member 76 of sets NNPDF31_nnlo_as_0118_nf_4</weight>
    <weight id="551" MUR="1" MUF="1" PDF="320977"> Member 77 of sets NNPDF31_nnlo_as_0118_nf_4</weight>
    <weight id="552" MUR="1" MUF="1" PDF="320978"> Member 78 of sets NNPDF31_nnlo_as_0118_nf_4</weight>
    <weight id="553" MUR="1" MUF="1" PDF="320979"> Member 79 of sets NNPDF31_nnlo_as_0118_nf_4</weight>
    <weight id="554" MUR="1" MUF="1" PDF="320980"> Member 80 of sets NNPDF31_nnlo_as_0118_nf_4</weight>
    <weight id="555" MUR="1" MUF="1" PDF="320981"> Member 81 of sets NNPDF31_nnlo_as_0118_nf_4</weight>
    <weight id="556" MUR="1" MUF="1" PDF="320982"> Member 82 of sets NNPDF31_nnlo_as_0118_nf_4</weight>
    <weight id="557" MUR="1" MUF="1" PDF="320983"> Member 83 of sets NNPDF31_nnlo_as_0118_nf_4</weight>
    <weight id="558" MUR="1" MUF="1" PDF="320984"> Member 84 of sets NNPDF31_nnlo_as_0118_nf_4</weight>
    <weight id="559" MUR="1" MUF="1" PDF="320985"> Member 85 of sets NNPDF31_nnlo_as_0118_nf_4</weight>
    <weight id="560" MUR="1" MUF="1" PDF="320986"> Member 86 of sets NNPDF31_nnlo_as_0118_nf_4</weight>
    <weight id="561" MUR="1" MUF="1" PDF="320987"> Member 87 of sets NNPDF31_nnlo_as_0118_nf_4</weight>
    <weight id="562" MUR="1" MUF="1" PDF="320988"> Member 88 of sets NNPDF31_nnlo_as_0118_nf_4</weight>
    <weight id="563" MUR="1" MUF="1" PDF="320989"> Member 89 of sets NNPDF31_nnlo_as_0118_nf_4</weight>
    <weight id="564" MUR="1" MUF="1" PDF="320990"> Member 90 of sets NNPDF31_nnlo_as_0118_nf_4</weight>
    <weight id="565" MUR="1" MUF="1" PDF="320991"> Member 91 of sets NNPDF31_nnlo_as_0118_nf_4</weight>
    <weight id="566" MUR="1" MUF="1" PDF="320992"> Member 92 of sets NNPDF31_nnlo_as_0118_nf_4</weight>
    <weight id="567" MUR="1" MUF="1" PDF="320993"> Member 93 of sets NNPDF31_nnlo_as_0118_nf_4</weight>
    <weight id="568" MUR="1" MUF="1" PDF="320994"> Member 94 of sets NNPDF31_nnlo_as_0118_nf_4</weight>
    <weight id="569" MUR="1" MUF="1" PDF="320995"> Member 95 of sets NNPDF31_nnlo_as_0118_nf_4</weight>
    <weight id="570" MUR="1" MUF="1" PDF="320996"> Member 96 of sets NNPDF31_nnlo_as_0118_nf_4</weight>
    <weight id="571" MUR="1" MUF="1" PDF="320997"> Member 97 of sets NNPDF31_nnlo_as_0118_nf_4</weight>
    <weight id="572" MUR="1" MUF="1" PDF="320998"> Member 98 of sets NNPDF31_nnlo_as_0118_nf_4</weight>
    <weight id="573" MUR="1" MUF="1" PDF="320999"> Member 99 of sets NNPDF31_nnlo_as_0118_nf_4</weight>
    <weight id="574" MUR="1" MUF="1" PDF="321000"> Member 100 of sets NNPDF31_nnlo_as_0118_nf_4</weight>
  </weightgroup>
  <weightgroup name="NNPDF31_nlo_as_0118_nf_4" combine="hessian">
    <weight id="575" MUR="1" MUF="1" PDF="320500"> Member 0 of sets NNPDF31_nlo_as_0118_nf_4</weight>
    <weight id="576" MUR="1" MUF="1" PDF="320501"> Member 1 of sets NNPDF31_nlo_as_0118_nf_4</weight>
    <weight id="577" MUR="1" MUF="1" PDF="320502"> Member 2 of sets NNPDF31_nlo_as_0118_nf_4</weight>
    <weight id="578" MUR="1" MUF="1" PDF="320503"> Member 3 of sets NNPDF31_nlo_as_0118_nf_4</weight>
    <weight id="579" MUR="1" MUF="1" PDF="320504"> Member 4 of sets NNPDF31_nlo_as_0118_nf_4</weight>
    <weight id="580" MUR="1" MUF="1" PDF="320505"> Member 5 of sets NNPDF31_nlo_as_0118_nf_4</weight>
    <weight id="581" MUR="1" MUF="1" PDF="320506"> Member 6 of sets NNPDF31_nlo_as_0118_nf_4</weight>
    <weight id="582" MUR="1" MUF="1" PDF="320507"> Member 7 of sets NNPDF31_nlo_as_0118_nf_4</weight>
    <weight id="583" MUR="1" MUF="1" PDF="320508"> Member 8 of sets NNPDF31_nlo_as_0118_nf_4</weight>
    <weight id="584" MUR="1" MUF="1" PDF="320509"> Member 9 of sets NNPDF31_nlo_as_0118_nf_4</weight>
    <weight id="585" MUR="1" MUF="1" PDF="320510"> Member 10 of sets NNPDF31_nlo_as_0118_nf_4</weight>
    <weight id="586" MUR="1" MUF="1" PDF="320511"> Member 11 of sets NNPDF31_nlo_as_0118_nf_4</weight>
    <weight id="587" MUR="1" MUF="1" PDF="320512"> Member 12 of sets NNPDF31_nlo_as_0118_nf_4</weight>
    <weight id="588" MUR="1" MUF="1" PDF="320513"> Member 13 of sets NNPDF31_nlo_as_0118_nf_4</weight>
    <weight id="589" MUR="1" MUF="1" PDF="320514"> Member 14 of sets NNPDF31_nlo_as_0118_nf_4</weight>
    <weight id="590" MUR="1" MUF="1" PDF="320515"> Member 15 of sets NNPDF31_nlo_as_0118_nf_4</weight>
    <weight id="591" MUR="1" MUF="1" PDF="320516"> Member 16 of sets NNPDF31_nlo_as_0118_nf_4</weight>
    <weight id="592" MUR="1" MUF="1" PDF="320517"> Member 17 of sets NNPDF31_nlo_as_0118_nf_4</weight>
    <weight id="593" MUR="1" MUF="1" PDF="320518"> Member 18 of sets NNPDF31_nlo_as_0118_nf_4</weight>
    <weight id="594" MUR="1" MUF="1" PDF="320519"> Member 19 of sets NNPDF31_nlo_as_0118_nf_4</weight>
    <weight id="595" MUR="1" MUF="1" PDF="320520"> Member 20 of sets NNPDF31_nlo_as_0118_nf_4</weight>
    <weight id="596" MUR="1" MUF="1" PDF="320521"> Member 21 of sets NNPDF31_nlo_as_0118_nf_4</weight>
    <weight id="597" MUR="1" MUF="1" PDF="320522"> Member 22 of sets NNPDF31_nlo_as_0118_nf_4</weight>
    <weight id="598" MUR="1" MUF="1" PDF="320523"> Member 23 of sets NNPDF31_nlo_as_0118_nf_4</weight>
    <weight id="599" MUR="1" MUF="1" PDF="320524"> Member 24 of sets NNPDF31_nlo_as_0118_nf_4</weight>
    <weight id="600" MUR="1" MUF="1" PDF="320525"> Member 25 of sets NNPDF31_nlo_as_0118_nf_4</weight>
    <weight id="601" MUR="1" MUF="1" PDF="320526"> Member 26 of sets NNPDF31_nlo_as_0118_nf_4</weight>
    <weight id="602" MUR="1" MUF="1" PDF="320527"> Member 27 of sets NNPDF31_nlo_as_0118_nf_4</weight>
    <weight id="603" MUR="1" MUF="1" PDF="320528"> Member 28 of sets NNPDF31_nlo_as_0118_nf_4</weight>
    <weight id="604" MUR="1" MUF="1" PDF="320529"> Member 29 of sets NNPDF31_nlo_as_0118_nf_4</weight>
    <weight id="605" MUR="1" MUF="1" PDF="320530"> Member 30 of sets NNPDF31_nlo_as_0118_nf_4</weight>
    <weight id="606" MUR="1" MUF="1" PDF="320531"> Member 31 of sets NNPDF31_nlo_as_0118_nf_4</weight>
    <weight id="607" MUR="1" MUF="1" PDF="320532"> Member 32 of sets NNPDF31_nlo_as_0118_nf_4</weight>
    <weight id="608" MUR="1" MUF="1" PDF="320533"> Member 33 of sets NNPDF31_nlo_as_0118_nf_4</weight>
    <weight id="609" MUR="1" MUF="1" PDF="320534"> Member 34 of sets NNPDF31_nlo_as_0118_nf_4</weight>
    <weight id="610" MUR="1" MUF="1" PDF="320535"> Member 35 of sets NNPDF31_nlo_as_0118_nf_4</weight>
    <weight id="611" MUR="1" MUF="1" PDF="320536"> Member 36 of sets NNPDF31_nlo_as_0118_nf_4</weight>
    <weight id="612" MUR="1" MUF="1" PDF="320537"> Member 37 of sets NNPDF31_nlo_as_0118_nf_4</weight>
    <weight id="613" MUR="1" MUF="1" PDF="320538"> Member 38 of sets NNPDF31_nlo_as_0118_nf_4</weight>
    <weight id="614" MUR="1" MUF="1" PDF="320539"> Member 39 of sets NNPDF31_nlo_as_0118_nf_4</weight>
    <weight id="615" MUR="1" MUF="1" PDF="320540"> Member 40 of sets NNPDF31_nlo_as_0118_nf_4</weight>
    <weight id="616" MUR="1" MUF="1" PDF="320541"> Member 41 of sets NNPDF31_nlo_as_0118_nf_4</weight>
    <weight id="617" MUR="1" MUF="1" PDF="320542"> Member 42 of sets NNPDF31_nlo_as_0118_nf_4</weight>
    <weight id="618" MUR="1" MUF="1" PDF="320543"> Member 43 of sets NNPDF31_nlo_as_0118_nf_4</weight>
    <weight id="619" MUR="1" MUF="1" PDF="320544"> Member 44 of sets NNPDF31_nlo_as_0118_nf_4</weight>
    <weight id="620" MUR="1" MUF="1" PDF="320545"> Member 45 of sets NNPDF31_nlo_as_0118_nf_4</weight>
    <weight id="621" MUR="1" MUF="1" PDF="320546"> Member 46 of sets NNPDF31_nlo_as_0118_nf_4</weight>
    <weight id="622" MUR="1" MUF="1" PDF="320547"> Member 47 of sets NNPDF31_nlo_as_0118_nf_4</weight>
    <weight id="623" MUR="1" MUF="1" PDF="320548"> Member 48 of sets NNPDF31_nlo_as_0118_nf_4</weight>
    <weight id="624" MUR="1" MUF="1" PDF="320549"> Member 49 of sets NNPDF31_nlo_as_0118_nf_4</weight>
    <weight id="625" MUR="1" MUF="1" PDF="320550"> Member 50 of sets NNPDF31_nlo_as_0118_nf_4</weight>
    <weight id="626" MUR="1" MUF="1" PDF="320551"> Member 51 of sets NNPDF31_nlo_as_0118_nf_4</weight>
    <weight id="627" MUR="1" MUF="1" PDF="320552"> Member 52 of sets NNPDF31_nlo_as_0118_nf_4</weight>
    <weight id="628" MUR="1" MUF="1" PDF="320553"> Member 53 of sets NNPDF31_nlo_as_0118_nf_4</weight>
    <weight id="629" MUR="1" MUF="1" PDF="320554"> Member 54 of sets NNPDF31_nlo_as_0118_nf_4</weight>
    <weight id="630" MUR="1" MUF="1" PDF="320555"> Member 55 of sets NNPDF31_nlo_as_0118_nf_4</weight>
    <weight id="631" MUR="1" MUF="1" PDF="320556"> Member 56 of sets NNPDF31_nlo_as_0118_nf_4</weight>
    <weight id="632" MUR="1" MUF="1" PDF="320557"> Member 57 of sets NNPDF31_nlo_as_0118_nf_4</weight>
    <weight id="633" MUR="1" MUF="1" PDF="320558"> Member 58 of sets NNPDF31_nlo_as_0118_nf_4</weight>
    <weight id="634" MUR="1" MUF="1" PDF="320559"> Member 59 of sets NNPDF31_nlo_as_0118_nf_4</weight>
    <weight id="635" MUR="1" MUF="1" PDF="320560"> Member 60 of sets NNPDF31_nlo_as_0118_nf_4</weight>
    <weight id="636" MUR="1" MUF="1" PDF="320561"> Member 61 of sets NNPDF31_nlo_as_0118_nf_4</weight>
    <weight id="637" MUR="1" MUF="1" PDF="320562"> Member 62 of sets NNPDF31_nlo_as_0118_nf_4</weight>
    <weight id="638" MUR="1" MUF="1" PDF="320563"> Member 63 of sets NNPDF31_nlo_as_0118_nf_4</weight>
    <weight id="639" MUR="1" MUF="1" PDF="320564"> Member 64 of sets NNPDF31_nlo_as_0118_nf_4</weight>
    <weight id="640" MUR="1" MUF="1" PDF="320565"> Member 65 of sets NNPDF31_nlo_as_0118_nf_4</weight>
    <weight id="641" MUR="1" MUF="1" PDF="320566"> Member 66 of sets NNPDF31_nlo_as_0118_nf_4</weight>
    <weight id="642" MUR="1" MUF="1" PDF="320567"> Member 67 of sets NNPDF31_nlo_as_0118_nf_4</weight>
    <weight id="643" MUR="1" MUF="1" PDF="320568"> Member 68 of sets NNPDF31_nlo_as_0118_nf_4</weight>
    <weight id="644" MUR="1" MUF="1" PDF="320569"> Member 69 of sets NNPDF31_nlo_as_0118_nf_4</weight>
    <weight id="645" MUR="1" MUF="1" PDF="320570"> Member 70 of sets NNPDF31_nlo_as_0118_nf_4</weight>
    <weight id="646" MUR="1" MUF="1" PDF="320571"> Member 71 of sets NNPDF31_nlo_as_0118_nf_4</weight>
    <weight id="647" MUR="1" MUF="1" PDF="320572"> Member 72 of sets NNPDF31_nlo_as_0118_nf_4</weight>
    <weight id="648" MUR="1" MUF="1" PDF="320573"> Member 73 of sets NNPDF31_nlo_as_0118_nf_4</weight>
    <weight id="649" MUR="1" MUF="1" PDF="320574"> Member 74 of sets NNPDF31_nlo_as_0118_nf_4</weight>
    <weight id="650" MUR="1" MUF="1" PDF="320575"> Member 75 of sets NNPDF31_nlo_as_0118_nf_4</weight>
    <weight id="651" MUR="1" MUF="1" PDF="320576"> Member 76 of sets NNPDF31_nlo_as_0118_nf_4</weight>
    <weight id="652" MUR="1" MUF="1" PDF="320577"> Member 77 of sets NNPDF31_nlo_as_0118_nf_4</weight>
    <weight id="653" MUR="1" MUF="1" PDF="320578"> Member 78 of sets NNPDF31_nlo_as_0118_nf_4</weight>
    <weight id="654" MUR="1" MUF="1" PDF="320579"> Member 79 of sets NNPDF31_nlo_as_0118_nf_4</weight>
    <weight id="655" MUR="1" MUF="1" PDF="320580"> Member 80 of sets NNPDF31_nlo_as_0118_nf_4</weight>
    <weight id="656" MUR="1" MUF="1" PDF="320581"> Member 81 of sets NNPDF31_nlo_as_0118_nf_4</weight>
    <weight id="657" MUR="1" MUF="1" PDF="320582"> Member 82 of sets NNPDF31_nlo_as_0118_nf_4</weight>
    <weight id="658" MUR="1" MUF="1" PDF="320583"> Member 83 of sets NNPDF31_nlo_as_0118_nf_4</weight>
    <weight id="659" MUR="1" MUF="1" PDF="320584"> Member 84 of sets NNPDF31_nlo_as_0118_nf_4</weight>
    <weight id="660" MUR="1" MUF="1" PDF="320585"> Member 85 of sets NNPDF31_nlo_as_0118_nf_4</weight>
    <weight id="661" MUR="1" MUF="1" PDF="320586"> Member 86 of sets NNPDF31_nlo_as_0118_nf_4</weight>
    <weight id="662" MUR="1" MUF="1" PDF="320587"> Member 87 of sets NNPDF31_nlo_as_0118_nf_4</weight>
    <weight id="663" MUR="1" MUF="1" PDF="320588"> Member 88 of sets NNPDF31_nlo_as_0118_nf_4</weight>
    <weight id="664" MUR="1" MUF="1" PDF="320589"> Member 89 of sets NNPDF31_nlo_as_0118_nf_4</weight>
    <weight id="665" MUR="1" MUF="1" PDF="320590"> Member 90 of sets NNPDF31_nlo_as_0118_nf_4</weight>
    <weight id="666" MUR="1" MUF="1" PDF="320591"> Member 91 of sets NNPDF31_nlo_as_0118_nf_4</weight>
    <weight id="667" MUR="1" MUF="1" PDF="320592"> Member 92 of sets NNPDF31_nlo_as_0118_nf_4</weight>
    <weight id="668" MUR="1" MUF="1" PDF="320593"> Member 93 of sets NNPDF31_nlo_as_0118_nf_4</weight>
    <weight id="669" MUR="1" MUF="1" PDF="320594"> Member 94 of sets NNPDF31_nlo_as_0118_nf_4</weight>
    <weight id="670" MUR="1" MUF="1" PDF="320595"> Member 95 of sets NNPDF31_nlo_as_0118_nf_4</weight>
    <weight id="671" MUR="1" MUF="1" PDF="320596"> Member 96 of sets NNPDF31_nlo_as_0118_nf_4</weight>
    <weight id="672" MUR="1" MUF="1" PDF="320597"> Member 97 of sets NNPDF31_nlo_as_0118_nf_4</weight>
    <weight id="673" MUR="1" MUF="1" PDF="320598"> Member 98 of sets NNPDF31_nlo_as_0118_nf_4</weight>
    <weight id="674" MUR="1" MUF="1" PDF="320599"> Member 99 of sets NNPDF31_nlo_as_0118_nf_4</weight>
    <weight id="675" MUR="1" MUF="1" PDF="320600"> Member 100 of sets NNPDF31_nlo_as_0118_nf_4</weight>
  </weightgroup>
  <weightgroup name="NNPDF30_nlo_as_0118_nf_4" combine="hessian">
    <weight id="676" MUR="1" MUF="1" PDF="260400"> Member 0 of sets NNPDF30_nlo_as_0118_nf_4</weight>
    <weight id="677" MUR="1" MUF="1" PDF="260401"> Member 1 of sets NNPDF30_nlo_as_0118_nf_4</weight>
    <weight id="678" MUR="1" MUF="1" PDF="260402"> Member 2 of sets NNPDF30_nlo_as_0118_nf_4</weight>
    <weight id="679" MUR="1" MUF="1" PDF="260403"> Member 3 of sets NNPDF30_nlo_as_0118_nf_4</weight>
    <weight id="680" MUR="1" MUF="1" PDF="260404"> Member 4 of sets NNPDF30_nlo_as_0118_nf_4</weight>
    <weight id="681" MUR="1" MUF="1" PDF="260405"> Member 5 of sets NNPDF30_nlo_as_0118_nf_4</weight>
    <weight id="682" MUR="1" MUF="1" PDF="260406"> Member 6 of sets NNPDF30_nlo_as_0118_nf_4</weight>
    <weight id="683" MUR="1" MUF="1" PDF="260407"> Member 7 of sets NNPDF30_nlo_as_0118_nf_4</weight>
    <weight id="684" MUR="1" MUF="1" PDF="260408"> Member 8 of sets NNPDF30_nlo_as_0118_nf_4</weight>
    <weight id="685" MUR="1" MUF="1" PDF="260409"> Member 9 of sets NNPDF30_nlo_as_0118_nf_4</weight>
    <weight id="686" MUR="1" MUF="1" PDF="260410"> Member 10 of sets NNPDF30_nlo_as_0118_nf_4</weight>
    <weight id="687" MUR="1" MUF="1" PDF="260411"> Member 11 of sets NNPDF30_nlo_as_0118_nf_4</weight>
    <weight id="688" MUR="1" MUF="1" PDF="260412"> Member 12 of sets NNPDF30_nlo_as_0118_nf_4</weight>
    <weight id="689" MUR="1" MUF="1" PDF="260413"> Member 13 of sets NNPDF30_nlo_as_0118_nf_4</weight>
    <weight id="690" MUR="1" MUF="1" PDF="260414"> Member 14 of sets NNPDF30_nlo_as_0118_nf_4</weight>
    <weight id="691" MUR="1" MUF="1" PDF="260415"> Member 15 of sets NNPDF30_nlo_as_0118_nf_4</weight>
    <weight id="692" MUR="1" MUF="1" PDF="260416"> Member 16 of sets NNPDF30_nlo_as_0118_nf_4</weight>
    <weight id="693" MUR="1" MUF="1" PDF="260417"> Member 17 of sets NNPDF30_nlo_as_0118_nf_4</weight>
    <weight id="694" MUR="1" MUF="1" PDF="260418"> Member 18 of sets NNPDF30_nlo_as_0118_nf_4</weight>
    <weight id="695" MUR="1" MUF="1" PDF="260419"> Member 19 of sets NNPDF30_nlo_as_0118_nf_4</weight>
    <weight id="696" MUR="1" MUF="1" PDF="260420"> Member 20 of sets NNPDF30_nlo_as_0118_nf_4</weight>
    <weight id="697" MUR="1" MUF="1" PDF="260421"> Member 21 of sets NNPDF30_nlo_as_0118_nf_4</weight>
    <weight id="698" MUR="1" MUF="1" PDF="260422"> Member 22 of sets NNPDF30_nlo_as_0118_nf_4</weight>
    <weight id="699" MUR="1" MUF="1" PDF="260423"> Member 23 of sets NNPDF30_nlo_as_0118_nf_4</weight>
    <weight id="700" MUR="1" MUF="1" PDF="260424"> Member 24 of sets NNPDF30_nlo_as_0118_nf_4</weight>
    <weight id="701" MUR="1" MUF="1" PDF="260425"> Member 25 of sets NNPDF30_nlo_as_0118_nf_4</weight>
    <weight id="702" MUR="1" MUF="1" PDF="260426"> Member 26 of sets NNPDF30_nlo_as_0118_nf_4</weight>
    <weight id="703" MUR="1" MUF="1" PDF="260427"> Member 27 of sets NNPDF30_nlo_as_0118_nf_4</weight>
    <weight id="704" MUR="1" MUF="1" PDF="260428"> Member 28 of sets NNPDF30_nlo_as_0118_nf_4</weight>
    <weight id="705" MUR="1" MUF="1" PDF="260429"> Member 29 of sets NNPDF30_nlo_as_0118_nf_4</weight>
    <weight id="706" MUR="1" MUF="1" PDF="260430"> Member 30 of sets NNPDF30_nlo_as_0118_nf_4</weight>
    <weight id="707" MUR="1" MUF="1" PDF="260431"> Member 31 of sets NNPDF30_nlo_as_0118_nf_4</weight>
    <weight id="708" MUR="1" MUF="1" PDF="260432"> Member 32 of sets NNPDF30_nlo_as_0118_nf_4</weight>
    <weight id="709" MUR="1" MUF="1" PDF="260433"> Member 33 of sets NNPDF30_nlo_as_0118_nf_4</weight>
    <weight id="710" MUR="1" MUF="1" PDF="260434"> Member 34 of sets NNPDF30_nlo_as_0118_nf_4</weight>
    <weight id="711" MUR="1" MUF="1" PDF="260435"> Member 35 of sets NNPDF30_nlo_as_0118_nf_4</weight>
    <weight id="712" MUR="1" MUF="1" PDF="260436"> Member 36 of sets NNPDF30_nlo_as_0118_nf_4</weight>
    <weight id="713" MUR="1" MUF="1" PDF="260437"> Member 37 of sets NNPDF30_nlo_as_0118_nf_4</weight>
    <weight id="714" MUR="1" MUF="1" PDF="260438"> Member 38 of sets NNPDF30_nlo_as_0118_nf_4</weight>
    <weight id="715" MUR="1" MUF="1" PDF="260439"> Member 39 of sets NNPDF30_nlo_as_0118_nf_4</weight>
    <weight id="716" MUR="1" MUF="1" PDF="260440"> Member 40 of sets NNPDF30_nlo_as_0118_nf_4</weight>
    <weight id="717" MUR="1" MUF="1" PDF="260441"> Member 41 of sets NNPDF30_nlo_as_0118_nf_4</weight>
    <weight id="718" MUR="1" MUF="1" PDF="260442"> Member 42 of sets NNPDF30_nlo_as_0118_nf_4</weight>
    <weight id="719" MUR="1" MUF="1" PDF="260443"> Member 43 of sets NNPDF30_nlo_as_0118_nf_4</weight>
    <weight id="720" MUR="1" MUF="1" PDF="260444"> Member 44 of sets NNPDF30_nlo_as_0118_nf_4</weight>
    <weight id="721" MUR="1" MUF="1" PDF="260445"> Member 45 of sets NNPDF30_nlo_as_0118_nf_4</weight>
    <weight id="722" MUR="1" MUF="1" PDF="260446"> Member 46 of sets NNPDF30_nlo_as_0118_nf_4</weight>
    <weight id="723" MUR="1" MUF="1" PDF="260447"> Member 47 of sets NNPDF30_nlo_as_0118_nf_4</weight>
    <weight id="724" MUR="1" MUF="1" PDF="260448"> Member 48 of sets NNPDF30_nlo_as_0118_nf_4</weight>
    <weight id="725" MUR="1" MUF="1" PDF="260449"> Member 49 of sets NNPDF30_nlo_as_0118_nf_4</weight>
    <weight id="726" MUR="1" MUF="1" PDF="260450"> Member 50 of sets NNPDF30_nlo_as_0118_nf_4</weight>
    <weight id="727" MUR="1" MUF="1" PDF="260451"> Member 51 of sets NNPDF30_nlo_as_0118_nf_4</weight>
    <weight id="728" MUR="1" MUF="1" PDF="260452"> Member 52 of sets NNPDF30_nlo_as_0118_nf_4</weight>
    <weight id="729" MUR="1" MUF="1" PDF="260453"> Member 53 of sets NNPDF30_nlo_as_0118_nf_4</weight>
    <weight id="730" MUR="1" MUF="1" PDF="260454"> Member 54 of sets NNPDF30_nlo_as_0118_nf_4</weight>
    <weight id="731" MUR="1" MUF="1" PDF="260455"> Member 55 of sets NNPDF30_nlo_as_0118_nf_4</weight>
    <weight id="732" MUR="1" MUF="1" PDF="260456"> Member 56 of sets NNPDF30_nlo_as_0118_nf_4</weight>
    <weight id="733" MUR="1" MUF="1" PDF="260457"> Member 57 of sets NNPDF30_nlo_as_0118_nf_4</weight>
    <weight id="734" MUR="1" MUF="1" PDF="260458"> Member 58 of sets NNPDF30_nlo_as_0118_nf_4</weight>
    <weight id="735" MUR="1" MUF="1" PDF="260459"> Member 59 of sets NNPDF30_nlo_as_0118_nf_4</weight>
    <weight id="736" MUR="1" MUF="1" PDF="260460"> Member 60 of sets NNPDF30_nlo_as_0118_nf_4</weight>
    <weight id="737" MUR="1" MUF="1" PDF="260461"> Member 61 of sets NNPDF30_nlo_as_0118_nf_4</weight>
    <weight id="738" MUR="1" MUF="1" PDF="260462"> Member 62 of sets NNPDF30_nlo_as_0118_nf_4</weight>
    <weight id="739" MUR="1" MUF="1" PDF="260463"> Member 63 of sets NNPDF30_nlo_as_0118_nf_4</weight>
    <weight id="740" MUR="1" MUF="1" PDF="260464"> Member 64 of sets NNPDF30_nlo_as_0118_nf_4</weight>
    <weight id="741" MUR="1" MUF="1" PDF="260465"> Member 65 of sets NNPDF30_nlo_as_0118_nf_4</weight>
    <weight id="742" MUR="1" MUF="1" PDF="260466"> Member 66 of sets NNPDF30_nlo_as_0118_nf_4</weight>
    <weight id="743" MUR="1" MUF="1" PDF="260467"> Member 67 of sets NNPDF30_nlo_as_0118_nf_4</weight>
    <weight id="744" MUR="1" MUF="1" PDF="260468"> Member 68 of sets NNPDF30_nlo_as_0118_nf_4</weight>
    <weight id="745" MUR="1" MUF="1" PDF="260469"> Member 69 of sets NNPDF30_nlo_as_0118_nf_4</weight>
    <weight id="746" MUR="1" MUF="1" PDF="260470"> Member 70 of sets NNPDF30_nlo_as_0118_nf_4</weight>
    <weight id="747" MUR="1" MUF="1" PDF="260471"> Member 71 of sets NNPDF30_nlo_as_0118_nf_4</weight>
    <weight id="748" MUR="1" MUF="1" PDF="260472"> Member 72 of sets NNPDF30_nlo_as_0118_nf_4</weight>
    <weight id="749" MUR="1" MUF="1" PDF="260473"> Member 73 of sets NNPDF30_nlo_as_0118_nf_4</weight>
    <weight id="750" MUR="1" MUF="1" PDF="260474"> Member 74 of sets NNPDF30_nlo_as_0118_nf_4</weight>
    <weight id="751" MUR="1" MUF="1" PDF="260475"> Member 75 of sets NNPDF30_nlo_as_0118_nf_4</weight>
    <weight id="752" MUR="1" MUF="1" PDF="260476"> Member 76 of sets NNPDF30_nlo_as_0118_nf_4</weight>
    <weight id="753" MUR="1" MUF="1" PDF="260477"> Member 77 of sets NNPDF30_nlo_as_0118_nf_4</weight>
    <weight id="754" MUR="1" MUF="1" PDF="260478"> Member 78 of sets NNPDF30_nlo_as_0118_nf_4</weight>
    <weight id="755" MUR="1" MUF="1" PDF="260479"> Member 79 of sets NNPDF30_nlo_as_0118_nf_4</weight>
    <weight id="756" MUR="1" MUF="1" PDF="260480"> Member 80 of sets NNPDF30_nlo_as_0118_nf_4</weight>
    <weight id="757" MUR="1" MUF="1" PDF="260481"> Member 81 of sets NNPDF30_nlo_as_0118_nf_4</weight>
    <weight id="758" MUR="1" MUF="1" PDF="260482"> Member 82 of sets NNPDF30_nlo_as_0118_nf_4</weight>
    <weight id="759" MUR="1" MUF="1" PDF="260483"> Member 83 of sets NNPDF30_nlo_as_0118_nf_4</weight>
    <weight id="760" MUR="1" MUF="1" PDF="260484"> Member 84 of sets NNPDF30_nlo_as_0118_nf_4</weight>
    <weight id="761" MUR="1" MUF="1" PDF="260485"> Member 85 of sets NNPDF30_nlo_as_0118_nf_4</weight>
    <weight id="762" MUR="1" MUF="1" PDF="260486"> Member 86 of sets NNPDF30_nlo_as_0118_nf_4</weight>
    <weight id="763" MUR="1" MUF="1" PDF="260487"> Member 87 of sets NNPDF30_nlo_as_0118_nf_4</weight>
    <weight id="764" MUR="1" MUF="1" PDF="260488"> Member 88 of sets NNPDF30_nlo_as_0118_nf_4</weight>
    <weight id="765" MUR="1" MUF="1" PDF="260489"> Member 89 of sets NNPDF30_nlo_as_0118_nf_4</weight>
    <weight id="766" MUR="1" MUF="1" PDF="260490"> Member 90 of sets NNPDF30_nlo_as_0118_nf_4</weight>
    <weight id="767" MUR="1" MUF="1" PDF="260491"> Member 91 of sets NNPDF30_nlo_as_0118_nf_4</weight>
    <weight id="768" MUR="1" MUF="1" PDF="260492"> Member 92 of sets NNPDF30_nlo_as_0118_nf_4</weight>
    <weight id="769" MUR="1" MUF="1" PDF="260493"> Member 93 of sets NNPDF30_nlo_as_0118_nf_4</weight>
    <weight id="770" MUR="1" MUF="1" PDF="260494"> Member 94 of sets NNPDF30_nlo_as_0118_nf_4</weight>
    <weight id="771" MUR="1" MUF="1" PDF="260495"> Member 95 of sets NNPDF30_nlo_as_0118_nf_4</weight>
    <weight id="772" MUR="1" MUF="1" PDF="260496"> Member 96 of sets NNPDF30_nlo_as_0118_nf_4</weight>
    <weight id="773" MUR="1" MUF="1" PDF="260497"> Member 97 of sets NNPDF30_nlo_as_0118_nf_4</weight>
    <weight id="774" MUR="1" MUF="1" PDF="260498"> Member 98 of sets NNPDF30_nlo_as_0118_nf_4</weight>
    <weight id="775" MUR="1" MUF="1" PDF="260499"> Member 99 of sets NNPDF30_nlo_as_0118_nf_4</weight>
    <weight id="776" MUR="1" MUF="1" PDF="260500"> Member 100 of sets NNPDF30_nlo_as_0118_nf_4</weight>
  </weightgroup>
  <weightgroup name="NNPDF30_lo_as_0118_nf_4" combine="hessian">
    <weight id="777" MUR="1" MUF="1" PDF="262400"> Member 0 of sets NNPDF30_lo_as_0118_nf_4</weight>
  </weightgroup>
  <weightgroup name="NNPDF30_lo_as_0130_nf_4" combine="hessian">
    <weight id="778" MUR="1" MUF="1" PDF="263400"> Member 0 of sets NNPDF30_lo_as_0130_nf_4</weight>
    <weight id="779" MUR="1" MUF="1" PDF="263401"> Member 1 of sets NNPDF30_lo_as_0130_nf_4</weight>
    <weight id="780" MUR="1" MUF="1" PDF="263402"> Member 2 of sets NNPDF30_lo_as_0130_nf_4</weight>
    <weight id="781" MUR="1" MUF="1" PDF="263403"> Member 3 of sets NNPDF30_lo_as_0130_nf_4</weight>
    <weight id="782" MUR="1" MUF="1" PDF="263404"> Member 4 of sets NNPDF30_lo_as_0130_nf_4</weight>
    <weight id="783" MUR="1" MUF="1" PDF="263405"> Member 5 of sets NNPDF30_lo_as_0130_nf_4</weight>
    <weight id="784" MUR="1" MUF="1" PDF="263406"> Member 6 of sets NNPDF30_lo_as_0130_nf_4</weight>
    <weight id="785" MUR="1" MUF="1" PDF="263407"> Member 7 of sets NNPDF30_lo_as_0130_nf_4</weight>
    <weight id="786" MUR="1" MUF="1" PDF="263408"> Member 8 of sets NNPDF30_lo_as_0130_nf_4</weight>
    <weight id="787" MUR="1" MUF="1" PDF="263409"> Member 9 of sets NNPDF30_lo_as_0130_nf_4</weight>
    <weight id="788" MUR="1" MUF="1" PDF="263410"> Member 10 of sets NNPDF30_lo_as_0130_nf_4</weight>
    <weight id="789" MUR="1" MUF="1" PDF="263411"> Member 11 of sets NNPDF30_lo_as_0130_nf_4</weight>
    <weight id="790" MUR="1" MUF="1" PDF="263412"> Member 12 of sets NNPDF30_lo_as_0130_nf_4</weight>
    <weight id="791" MUR="1" MUF="1" PDF="263413"> Member 13 of sets NNPDF30_lo_as_0130_nf_4</weight>
    <weight id="792" MUR="1" MUF="1" PDF="263414"> Member 14 of sets NNPDF30_lo_as_0130_nf_4</weight>
    <weight id="793" MUR="1" MUF="1" PDF="263415"> Member 15 of sets NNPDF30_lo_as_0130_nf_4</weight>
    <weight id="794" MUR="1" MUF="1" PDF="263416"> Member 16 of sets NNPDF30_lo_as_0130_nf_4</weight>
    <weight id="795" MUR="1" MUF="1" PDF="263417"> Member 17 of sets NNPDF30_lo_as_0130_nf_4</weight>
    <weight id="796" MUR="1" MUF="1" PDF="263418"> Member 18 of sets NNPDF30_lo_as_0130_nf_4</weight>
    <weight id="797" MUR="1" MUF="1" PDF="263419"> Member 19 of sets NNPDF30_lo_as_0130_nf_4</weight>
    <weight id="798" MUR="1" MUF="1" PDF="263420"> Member 20 of sets NNPDF30_lo_as_0130_nf_4</weight>
    <weight id="799" MUR="1" MUF="1" PDF="263421"> Member 21 of sets NNPDF30_lo_as_0130_nf_4</weight>
    <weight id="800" MUR="1" MUF="1" PDF="263422"> Member 22 of sets NNPDF30_lo_as_0130_nf_4</weight>
    <weight id="801" MUR="1" MUF="1" PDF="263423"> Member 23 of sets NNPDF30_lo_as_0130_nf_4</weight>
    <weight id="802" MUR="1" MUF="1" PDF="263424"> Member 24 of sets NNPDF30_lo_as_0130_nf_4</weight>
    <weight id="803" MUR="1" MUF="1" PDF="263425"> Member 25 of sets NNPDF30_lo_as_0130_nf_4</weight>
    <weight id="804" MUR="1" MUF="1" PDF="263426"> Member 26 of sets NNPDF30_lo_as_0130_nf_4</weight>
    <weight id="805" MUR="1" MUF="1" PDF="263427"> Member 27 of sets NNPDF30_lo_as_0130_nf_4</weight>
    <weight id="806" MUR="1" MUF="1" PDF="263428"> Member 28 of sets NNPDF30_lo_as_0130_nf_4</weight>
    <weight id="807" MUR="1" MUF="1" PDF="263429"> Member 29 of sets NNPDF30_lo_as_0130_nf_4</weight>
    <weight id="808" MUR="1" MUF="1" PDF="263430"> Member 30 of sets NNPDF30_lo_as_0130_nf_4</weight>
    <weight id="809" MUR="1" MUF="1" PDF="263431"> Member 31 of sets NNPDF30_lo_as_0130_nf_4</weight>
    <weight id="810" MUR="1" MUF="1" PDF="263432"> Member 32 of sets NNPDF30_lo_as_0130_nf_4</weight>
    <weight id="811" MUR="1" MUF="1" PDF="263433"> Member 33 of sets NNPDF30_lo_as_0130_nf_4</weight>
    <weight id="812" MUR="1" MUF="1" PDF="263434"> Member 34 of sets NNPDF30_lo_as_0130_nf_4</weight>
    <weight id="813" MUR="1" MUF="1" PDF="263435"> Member 35 of sets NNPDF30_lo_as_0130_nf_4</weight>
    <weight id="814" MUR="1" MUF="1" PDF="263436"> Member 36 of sets NNPDF30_lo_as_0130_nf_4</weight>
    <weight id="815" MUR="1" MUF="1" PDF="263437"> Member 37 of sets NNPDF30_lo_as_0130_nf_4</weight>
    <weight id="816" MUR="1" MUF="1" PDF="263438"> Member 38 of sets NNPDF30_lo_as_0130_nf_4</weight>
    <weight id="817" MUR="1" MUF="1" PDF="263439"> Member 39 of sets NNPDF30_lo_as_0130_nf_4</weight>
    <weight id="818" MUR="1" MUF="1" PDF="263440"> Member 40 of sets NNPDF30_lo_as_0130_nf_4</weight>
    <weight id="819" MUR="1" MUF="1" PDF="263441"> Member 41 of sets NNPDF30_lo_as_0130_nf_4</weight>
    <weight id="820" MUR="1" MUF="1" PDF="263442"> Member 42 of sets NNPDF30_lo_as_0130_nf_4</weight>
    <weight id="821" MUR="1" MUF="1" PDF="263443"> Member 43 of sets NNPDF30_lo_as_0130_nf_4</weight>
    <weight id="822" MUR="1" MUF="1" PDF="263444"> Member 44 of sets NNPDF30_lo_as_0130_nf_4</weight>
    <weight id="823" MUR="1" MUF="1" PDF="263445"> Member 45 of sets NNPDF30_lo_as_0130_nf_4</weight>
    <weight id="824" MUR="1" MUF="1" PDF="263446"> Member 46 of sets NNPDF30_lo_as_0130_nf_4</weight>
    <weight id="825" MUR="1" MUF="1" PDF="263447"> Member 47 of sets NNPDF30_lo_as_0130_nf_4</weight>
    <weight id="826" MUR="1" MUF="1" PDF="263448"> Member 48 of sets NNPDF30_lo_as_0130_nf_4</weight>
    <weight id="827" MUR="1" MUF="1" PDF="263449"> Member 49 of sets NNPDF30_lo_as_0130_nf_4</weight>
    <weight id="828" MUR="1" MUF="1" PDF="263450"> Member 50 of sets NNPDF30_lo_as_0130_nf_4</weight>
    <weight id="829" MUR="1" MUF="1" PDF="263451"> Member 51 of sets NNPDF30_lo_as_0130_nf_4</weight>
    <weight id="830" MUR="1" MUF="1" PDF="263452"> Member 52 of sets NNPDF30_lo_as_0130_nf_4</weight>
    <weight id="831" MUR="1" MUF="1" PDF="263453"> Member 53 of sets NNPDF30_lo_as_0130_nf_4</weight>
    <weight id="832" MUR="1" MUF="1" PDF="263454"> Member 54 of sets NNPDF30_lo_as_0130_nf_4</weight>
    <weight id="833" MUR="1" MUF="1" PDF="263455"> Member 55 of sets NNPDF30_lo_as_0130_nf_4</weight>
    <weight id="834" MUR="1" MUF="1" PDF="263456"> Member 56 of sets NNPDF30_lo_as_0130_nf_4</weight>
    <weight id="835" MUR="1" MUF="1" PDF="263457"> Member 57 of sets NNPDF30_lo_as_0130_nf_4</weight>
    <weight id="836" MUR="1" MUF="1" PDF="263458"> Member 58 of sets NNPDF30_lo_as_0130_nf_4</weight>
    <weight id="837" MUR="1" MUF="1" PDF="263459"> Member 59 of sets NNPDF30_lo_as_0130_nf_4</weight>
    <weight id="838" MUR="1" MUF="1" PDF="263460"> Member 60 of sets NNPDF30_lo_as_0130_nf_4</weight>
    <weight id="839" MUR="1" MUF="1" PDF="263461"> Member 61 of sets NNPDF30_lo_as_0130_nf_4</weight>
    <weight id="840" MUR="1" MUF="1" PDF="263462"> Member 62 of sets NNPDF30_lo_as_0130_nf_4</weight>
    <weight id="841" MUR="1" MUF="1" PDF="263463"> Member 63 of sets NNPDF30_lo_as_0130_nf_4</weight>
    <weight id="842" MUR="1" MUF="1" PDF="263464"> Member 64 of sets NNPDF30_lo_as_0130_nf_4</weight>
    <weight id="843" MUR="1" MUF="1" PDF="263465"> Member 65 of sets NNPDF30_lo_as_0130_nf_4</weight>
    <weight id="844" MUR="1" MUF="1" PDF="263466"> Member 66 of sets NNPDF30_lo_as_0130_nf_4</weight>
    <weight id="845" MUR="1" MUF="1" PDF="263467"> Member 67 of sets NNPDF30_lo_as_0130_nf_4</weight>
    <weight id="846" MUR="1" MUF="1" PDF="263468"> Member 68 of sets NNPDF30_lo_as_0130_nf_4</weight>
    <weight id="847" MUR="1" MUF="1" PDF="263469"> Member 69 of sets NNPDF30_lo_as_0130_nf_4</weight>
    <weight id="848" MUR="1" MUF="1" PDF="263470"> Member 70 of sets NNPDF30_lo_as_0130_nf_4</weight>
    <weight id="849" MUR="1" MUF="1" PDF="263471"> Member 71 of sets NNPDF30_lo_as_0130_nf_4</weight>
    <weight id="850" MUR="1" MUF="1" PDF="263472"> Member 72 of sets NNPDF30_lo_as_0130_nf_4</weight>
    <weight id="851" MUR="1" MUF="1" PDF="263473"> Member 73 of sets NNPDF30_lo_as_0130_nf_4</weight>
    <weight id="852" MUR="1" MUF="1" PDF="263474"> Member 74 of sets NNPDF30_lo_as_0130_nf_4</weight>
    <weight id="853" MUR="1" MUF="1" PDF="263475"> Member 75 of sets NNPDF30_lo_as_0130_nf_4</weight>
    <weight id="854" MUR="1" MUF="1" PDF="263476"> Member 76 of sets NNPDF30_lo_as_0130_nf_4</weight>
    <weight id="855" MUR="1" MUF="1" PDF="263477"> Member 77 of sets NNPDF30_lo_as_0130_nf_4</weight>
    <weight id="856" MUR="1" MUF="1" PDF="263478"> Member 78 of sets NNPDF30_lo_as_0130_nf_4</weight>
    <weight id="857" MUR="1" MUF="1" PDF="263479"> Member 79 of sets NNPDF30_lo_as_0130_nf_4</weight>
    <weight id="858" MUR="1" MUF="1" PDF="263480"> Member 80 of sets NNPDF30_lo_as_0130_nf_4</weight>
    <weight id="859" MUR="1" MUF="1" PDF="263481"> Member 81 of sets NNPDF30_lo_as_0130_nf_4</weight>
    <weight id="860" MUR="1" MUF="1" PDF="263482"> Member 82 of sets NNPDF30_lo_as_0130_nf_4</weight>
    <weight id="861" MUR="1" MUF="1" PDF="263483"> Member 83 of sets NNPDF30_lo_as_0130_nf_4</weight>
    <weight id="862" MUR="1" MUF="1" PDF="263484"> Member 84 of sets NNPDF30_lo_as_0130_nf_4</weight>
    <weight id="863" MUR="1" MUF="1" PDF="263485"> Member 85 of sets NNPDF30_lo_as_0130_nf_4</weight>
    <weight id="864" MUR="1" MUF="1" PDF="263486"> Member 86 of sets NNPDF30_lo_as_0130_nf_4</weight>
    <weight id="865" MUR="1" MUF="1" PDF="263487"> Member 87 of sets NNPDF30_lo_as_0130_nf_4</weight>
    <weight id="866" MUR="1" MUF="1" PDF="263488"> Member 88 of sets NNPDF30_lo_as_0130_nf_4</weight>
    <weight id="867" MUR="1" MUF="1" PDF="263489"> Member 89 of sets NNPDF30_lo_as_0130_nf_4</weight>
    <weight id="868" MUR="1" MUF="1" PDF="263490"> Member 90 of sets NNPDF30_lo_as_0130_nf_4</weight>
    <weight id="869" MUR="1" MUF="1" PDF="263491"> Member 91 of sets NNPDF30_lo_as_0130_nf_4</weight>
    <weight id="870" MUR="1" MUF="1" PDF="263492"> Member 92 of sets NNPDF30_lo_as_0130_nf_4</weight>
    <weight id="871" MUR="1" MUF="1" PDF="263493"> Member 93 of sets NNPDF30_lo_as_0130_nf_4</weight>
    <weight id="872" MUR="1" MUF="1" PDF="263494"> Member 94 of sets NNPDF30_lo_as_0130_nf_4</weight>
    <weight id="873" MUR="1" MUF="1" PDF="263495"> Member 95 of sets NNPDF30_lo_as_0130_nf_4</weight>
    <weight id="874" MUR="1" MUF="1" PDF="263496"> Member 96 of sets NNPDF30_lo_as_0130_nf_4</weight>
    <weight id="875" MUR="1" MUF="1" PDF="263497"> Member 97 of sets NNPDF30_lo_as_0130_nf_4</weight>
    <weight id="876" MUR="1" MUF="1" PDF="263498"> Member 98 of sets NNPDF30_lo_as_0130_nf_4</weight>
    <weight id="877" MUR="1" MUF="1" PDF="263499"> Member 99 of sets NNPDF30_lo_as_0130_nf_4</weight>
    <weight id="878" MUR="1" MUF="1" PDF="263500"> Member 100 of sets NNPDF30_lo_as_0130_nf_4</weight>
  </weightgroup>
  <weightgroup name="NNPDF30_nlo_nf_4_pdfas" combine="hessian">
    <weight id="879" MUR="1" MUF="1" PDF="292000"> Member 0 of sets NNPDF30_nlo_nf_4_pdfas</weight>
    <weight id="880" MUR="1" MUF="1" PDF="292001"> Member 1 of sets NNPDF30_nlo_nf_4_pdfas</weight>
    <weight id="881" MUR="1" MUF="1" PDF="292002"> Member 2 of sets NNPDF30_nlo_nf_4_pdfas</weight>
    <weight id="882" MUR="1" MUF="1" PDF="292003"> Member 3 of sets NNPDF30_nlo_nf_4_pdfas</weight>
    <weight id="883" MUR="1" MUF="1" PDF="292004"> Member 4 of sets NNPDF30_nlo_nf_4_pdfas</weight>
    <weight id="884" MUR="1" MUF="1" PDF="292005"> Member 5 of sets NNPDF30_nlo_nf_4_pdfas</weight>
    <weight id="885" MUR="1" MUF="1" PDF="292006"> Member 6 of sets NNPDF30_nlo_nf_4_pdfas</weight>
    <weight id="886" MUR="1" MUF="1" PDF="292007"> Member 7 of sets NNPDF30_nlo_nf_4_pdfas</weight>
    <weight id="887" MUR="1" MUF="1" PDF="292008"> Member 8 of sets NNPDF30_nlo_nf_4_pdfas</weight>
    <weight id="888" MUR="1" MUF="1" PDF="292009"> Member 9 of sets NNPDF30_nlo_nf_4_pdfas</weight>
    <weight id="889" MUR="1" MUF="1" PDF="292010"> Member 10 of sets NNPDF30_nlo_nf_4_pdfas</weight>
    <weight id="890" MUR="1" MUF="1" PDF="292011"> Member 11 of sets NNPDF30_nlo_nf_4_pdfas</weight>
    <weight id="891" MUR="1" MUF="1" PDF="292012"> Member 12 of sets NNPDF30_nlo_nf_4_pdfas</weight>
    <weight id="892" MUR="1" MUF="1" PDF="292013"> Member 13 of sets NNPDF30_nlo_nf_4_pdfas</weight>
    <weight id="893" MUR="1" MUF="1" PDF="292014"> Member 14 of sets NNPDF30_nlo_nf_4_pdfas</weight>
    <weight id="894" MUR="1" MUF="1" PDF="292015"> Member 15 of sets NNPDF30_nlo_nf_4_pdfas</weight>
    <weight id="895" MUR="1" MUF="1" PDF="292016"> Member 16 of sets NNPDF30_nlo_nf_4_pdfas</weight>
    <weight id="896" MUR="1" MUF="1" PDF="292017"> Member 17 of sets NNPDF30_nlo_nf_4_pdfas</weight>
    <weight id="897" MUR="1" MUF="1" PDF="292018"> Member 18 of sets NNPDF30_nlo_nf_4_pdfas</weight>
    <weight id="898" MUR="1" MUF="1" PDF="292019"> Member 19 of sets NNPDF30_nlo_nf_4_pdfas</weight>
    <weight id="899" MUR="1" MUF="1" PDF="292020"> Member 20 of sets NNPDF30_nlo_nf_4_pdfas</weight>
    <weight id="900" MUR="1" MUF="1" PDF="292021"> Member 21 of sets NNPDF30_nlo_nf_4_pdfas</weight>
    <weight id="901" MUR="1" MUF="1" PDF="292022"> Member 22 of sets NNPDF30_nlo_nf_4_pdfas</weight>
    <weight id="902" MUR="1" MUF="1" PDF="292023"> Member 23 of sets NNPDF30_nlo_nf_4_pdfas</weight>
    <weight id="903" MUR="1" MUF="1" PDF="292024"> Member 24 of sets NNPDF30_nlo_nf_4_pdfas</weight>
    <weight id="904" MUR="1" MUF="1" PDF="292025"> Member 25 of sets NNPDF30_nlo_nf_4_pdfas</weight>
    <weight id="905" MUR="1" MUF="1" PDF="292026"> Member 26 of sets NNPDF30_nlo_nf_4_pdfas</weight>
    <weight id="906" MUR="1" MUF="1" PDF="292027"> Member 27 of sets NNPDF30_nlo_nf_4_pdfas</weight>
    <weight id="907" MUR="1" MUF="1" PDF="292028"> Member 28 of sets NNPDF30_nlo_nf_4_pdfas</weight>
    <weight id="908" MUR="1" MUF="1" PDF="292029"> Member 29 of sets NNPDF30_nlo_nf_4_pdfas</weight>
    <weight id="909" MUR="1" MUF="1" PDF="292030"> Member 30 of sets NNPDF30_nlo_nf_4_pdfas</weight>
    <weight id="910" MUR="1" MUF="1" PDF="292031"> Member 31 of sets NNPDF30_nlo_nf_4_pdfas</weight>
    <weight id="911" MUR="1" MUF="1" PDF="292032"> Member 32 of sets NNPDF30_nlo_nf_4_pdfas</weight>
    <weight id="912" MUR="1" MUF="1" PDF="292033"> Member 33 of sets NNPDF30_nlo_nf_4_pdfas</weight>
    <weight id="913" MUR="1" MUF="1" PDF="292034"> Member 34 of sets NNPDF30_nlo_nf_4_pdfas</weight>
    <weight id="914" MUR="1" MUF="1" PDF="292035"> Member 35 of sets NNPDF30_nlo_nf_4_pdfas</weight>
    <weight id="915" MUR="1" MUF="1" PDF="292036"> Member 36 of sets NNPDF30_nlo_nf_4_pdfas</weight>
    <weight id="916" MUR="1" MUF="1" PDF="292037"> Member 37 of sets NNPDF30_nlo_nf_4_pdfas</weight>
    <weight id="917" MUR="1" MUF="1" PDF="292038"> Member 38 of sets NNPDF30_nlo_nf_4_pdfas</weight>
    <weight id="918" MUR="1" MUF="1" PDF="292039"> Member 39 of sets NNPDF30_nlo_nf_4_pdfas</weight>
    <weight id="919" MUR="1" MUF="1" PDF="292040"> Member 40 of sets NNPDF30_nlo_nf_4_pdfas</weight>
    <weight id="920" MUR="1" MUF="1" PDF="292041"> Member 41 of sets NNPDF30_nlo_nf_4_pdfas</weight>
    <weight id="921" MUR="1" MUF="1" PDF="292042"> Member 42 of sets NNPDF30_nlo_nf_4_pdfas</weight>
    <weight id="922" MUR="1" MUF="1" PDF="292043"> Member 43 of sets NNPDF30_nlo_nf_4_pdfas</weight>
    <weight id="923" MUR="1" MUF="1" PDF="292044"> Member 44 of sets NNPDF30_nlo_nf_4_pdfas</weight>
    <weight id="924" MUR="1" MUF="1" PDF="292045"> Member 45 of sets NNPDF30_nlo_nf_4_pdfas</weight>
    <weight id="925" MUR="1" MUF="1" PDF="292046"> Member 46 of sets NNPDF30_nlo_nf_4_pdfas</weight>
    <weight id="926" MUR="1" MUF="1" PDF="292047"> Member 47 of sets NNPDF30_nlo_nf_4_pdfas</weight>
    <weight id="927" MUR="1" MUF="1" PDF="292048"> Member 48 of sets NNPDF30_nlo_nf_4_pdfas</weight>
    <weight id="928" MUR="1" MUF="1" PDF="292049"> Member 49 of sets NNPDF30_nlo_nf_4_pdfas</weight>
    <weight id="929" MUR="1" MUF="1" PDF="292050"> Member 50 of sets NNPDF30_nlo_nf_4_pdfas</weight>
    <weight id="930" MUR="1" MUF="1" PDF="292051"> Member 51 of sets NNPDF30_nlo_nf_4_pdfas</weight>
    <weight id="931" MUR="1" MUF="1" PDF="292052"> Member 52 of sets NNPDF30_nlo_nf_4_pdfas</weight>
    <weight id="932" MUR="1" MUF="1" PDF="292053"> Member 53 of sets NNPDF30_nlo_nf_4_pdfas</weight>
    <weight id="933" MUR="1" MUF="1" PDF="292054"> Member 54 of sets NNPDF30_nlo_nf_4_pdfas</weight>
    <weight id="934" MUR="1" MUF="1" PDF="292055"> Member 55 of sets NNPDF30_nlo_nf_4_pdfas</weight>
    <weight id="935" MUR="1" MUF="1" PDF="292056"> Member 56 of sets NNPDF30_nlo_nf_4_pdfas</weight>
    <weight id="936" MUR="1" MUF="1" PDF="292057"> Member 57 of sets NNPDF30_nlo_nf_4_pdfas</weight>
    <weight id="937" MUR="1" MUF="1" PDF="292058"> Member 58 of sets NNPDF30_nlo_nf_4_pdfas</weight>
    <weight id="938" MUR="1" MUF="1" PDF="292059"> Member 59 of sets NNPDF30_nlo_nf_4_pdfas</weight>
    <weight id="939" MUR="1" MUF="1" PDF="292060"> Member 60 of sets NNPDF30_nlo_nf_4_pdfas</weight>
    <weight id="940" MUR="1" MUF="1" PDF="292061"> Member 61 of sets NNPDF30_nlo_nf_4_pdfas</weight>
    <weight id="941" MUR="1" MUF="1" PDF="292062"> Member 62 of sets NNPDF30_nlo_nf_4_pdfas</weight>
    <weight id="942" MUR="1" MUF="1" PDF="292063"> Member 63 of sets NNPDF30_nlo_nf_4_pdfas</weight>
    <weight id="943" MUR="1" MUF="1" PDF="292064"> Member 64 of sets NNPDF30_nlo_nf_4_pdfas</weight>
    <weight id="944" MUR="1" MUF="1" PDF="292065"> Member 65 of sets NNPDF30_nlo_nf_4_pdfas</weight>
    <weight id="945" MUR="1" MUF="1" PDF="292066"> Member 66 of sets NNPDF30_nlo_nf_4_pdfas</weight>
    <weight id="946" MUR="1" MUF="1" PDF="292067"> Member 67 of sets NNPDF30_nlo_nf_4_pdfas</weight>
    <weight id="947" MUR="1" MUF="1" PDF="292068"> Member 68 of sets NNPDF30_nlo_nf_4_pdfas</weight>
    <weight id="948" MUR="1" MUF="1" PDF="292069"> Member 69 of sets NNPDF30_nlo_nf_4_pdfas</weight>
    <weight id="949" MUR="1" MUF="1" PDF="292070"> Member 70 of sets NNPDF30_nlo_nf_4_pdfas</weight>
    <weight id="950" MUR="1" MUF="1" PDF="292071"> Member 71 of sets NNPDF30_nlo_nf_4_pdfas</weight>
    <weight id="951" MUR="1" MUF="1" PDF="292072"> Member 72 of sets NNPDF30_nlo_nf_4_pdfas</weight>
    <weight id="952" MUR="1" MUF="1" PDF="292073"> Member 73 of sets NNPDF30_nlo_nf_4_pdfas</weight>
    <weight id="953" MUR="1" MUF="1" PDF="292074"> Member 74 of sets NNPDF30_nlo_nf_4_pdfas</weight>
    <weight id="954" MUR="1" MUF="1" PDF="292075"> Member 75 of sets NNPDF30_nlo_nf_4_pdfas</weight>
    <weight id="955" MUR="1" MUF="1" PDF="292076"> Member 76 of sets NNPDF30_nlo_nf_4_pdfas</weight>
    <weight id="956" MUR="1" MUF="1" PDF="292077"> Member 77 of sets NNPDF30_nlo_nf_4_pdfas</weight>
    <weight id="957" MUR="1" MUF="1" PDF="292078"> Member 78 of sets NNPDF30_nlo_nf_4_pdfas</weight>
    <weight id="958" MUR="1" MUF="1" PDF="292079"> Member 79 of sets NNPDF30_nlo_nf_4_pdfas</weight>
    <weight id="959" MUR="1" MUF="1" PDF="292080"> Member 80 of sets NNPDF30_nlo_nf_4_pdfas</weight>
    <weight id="960" MUR="1" MUF="1" PDF="292081"> Member 81 of sets NNPDF30_nlo_nf_4_pdfas</weight>
    <weight id="961" MUR="1" MUF="1" PDF="292082"> Member 82 of sets NNPDF30_nlo_nf_4_pdfas</weight>
    <weight id="962" MUR="1" MUF="1" PDF="292083"> Member 83 of sets NNPDF30_nlo_nf_4_pdfas</weight>
    <weight id="963" MUR="1" MUF="1" PDF="292084"> Member 84 of sets NNPDF30_nlo_nf_4_pdfas</weight>
    <weight id="964" MUR="1" MUF="1" PDF="292085"> Member 85 of sets NNPDF30_nlo_nf_4_pdfas</weight>
    <weight id="965" MUR="1" MUF="1" PDF="292086"> Member 86 of sets NNPDF30_nlo_nf_4_pdfas</weight>
    <weight id="966" MUR="1" MUF="1" PDF="292087"> Member 87 of sets NNPDF30_nlo_nf_4_pdfas</weight>
    <weight id="967" MUR="1" MUF="1" PDF="292088"> Member 88 of sets NNPDF30_nlo_nf_4_pdfas</weight>
    <weight id="968" MUR="1" MUF="1" PDF="292089"> Member 89 of sets NNPDF30_nlo_nf_4_pdfas</weight>
    <weight id="969" MUR="1" MUF="1" PDF="292090"> Member 90 of sets NNPDF30_nlo_nf_4_pdfas</weight>
    <weight id="970" MUR="1" MUF="1" PDF="292091"> Member 91 of sets NNPDF30_nlo_nf_4_pdfas</weight>
    <weight id="971" MUR="1" MUF="1" PDF="292092"> Member 92 of sets NNPDF30_nlo_nf_4_pdfas</weight>
    <weight id="972" MUR="1" MUF="1" PDF="292093"> Member 93 of sets NNPDF30_nlo_nf_4_pdfas</weight>
    <weight id="973" MUR="1" MUF="1" PDF="292094"> Member 94 of sets NNPDF30_nlo_nf_4_pdfas</weight>
    <weight id="974" MUR="1" MUF="1" PDF="292095"> Member 95 of sets NNPDF30_nlo_nf_4_pdfas</weight>
    <weight id="975" MUR="1" MUF="1" PDF="292096"> Member 96 of sets NNPDF30_nlo_nf_4_pdfas</weight>
    <weight id="976" MUR="1" MUF="1" PDF="292097"> Member 97 of sets NNPDF30_nlo_nf_4_pdfas</weight>
    <weight id="977" MUR="1" MUF="1" PDF="292098"> Member 98 of sets NNPDF30_nlo_nf_4_pdfas</weight>
    <weight id="978" MUR="1" MUF="1" PDF="292099"> Member 99 of sets NNPDF30_nlo_nf_4_pdfas</weight>
    <weight id="979" MUR="1" MUF="1" PDF="292100"> Member 100 of sets NNPDF30_nlo_nf_4_pdfas</weight>
    <weight id="980" MUR="1" MUF="1" PDF="292101"> Member 101 of sets NNPDF30_nlo_nf_4_pdfas</weight>
    <weight id="981" MUR="1" MUF="1" PDF="292102"> Member 102 of sets NNPDF30_nlo_nf_4_pdfas</weight>
  </weightgroup>
  <weightgroup name="NNPDF30_nnlo_nf_4_pdfas" combine="hessian">
    <weight id="982" MUR="1" MUF="1" PDF="292400"> Member 0 of sets NNPDF30_nnlo_nf_4_pdfas</weight>
  </weightgroup>
</initrwgt>
</header>
<init>
     2212     2212  0.65000000000E+04  0.65000000000E+04 0 0  320900  320900 -3   1
  0.28926352760E-07  0.26041217835E-10  0.57850000000E-11   1
<generator name='MadGraph5_aMC@NLO' version='#5.2.4.2'>please cite 1405.0301 </generator>
</init>
<event>
 5   1  0.5790000E-11  0.2153471E+04  0.7818608E-02  0.7766626E-01
       21   -1    0    0  502  501  0.00000000000E+00  0.00000000000E+00  0.92084448789E+03  0.92084448789E+03  0.00000000000E+00 0.  1.
       21   -1    0    0  501  502 -0.00000000000E+00 -0.00000000000E+00 -0.12590178328E+04  0.12590178328E+04  0.00000000000E+00 0. -1.
       39    2    1    2    0    0  0.00000000000E+00  0.00000000000E+00 -0.33817334488E+03  0.21798623207E+04  0.21534712735E+04 0.  0.
       25    1    3    3    0    0 -0.63429327061E+03 -0.74501050676E+03  0.26790519101E+03  0.10221383466E+04  0.12500000000E+03 0.  0.
       25    1    3    3    0    0  0.63429327061E+03  0.74501050676E+03 -0.60607853589E+03  0.11577239740E+04  0.12500000000E+03 0.  0.
<mgrwt>
<rscale>  0 0.21534713E+04</rscale>
<asrwt>0</asrwt>
<pdfrwt beam="1">  1       21 0.14166838E+00 0.21534713E+04</pdfrwt>
<pdfrwt beam="2">  1       21 0.19369505E+00 0.21534713E+04</pdfrwt>
<totfact> 0.21232568E+01</totfact>
</mgrwt>
<rwgt>
  <wgt id="1">5.79e-12</wgt>
  <wgt id="2">5.06018e-12</wgt>
  <wgt id="3">6.69209e-12</wgt>
  <wgt id="4">5.79e-12</wgt>
  <wgt id="5">5.06018e-12</wgt>
  <wgt id="6">6.69209e-12</wgt>
  <wgt id="7">5.79e-12</wgt>
  <wgt id="8">5.06018e-12</wgt>
  <wgt id="9">6.69209e-12</wgt>
  <wgt id="10">5.94988e-12</wgt>
  <wgt id="11">5.94423e-12</wgt>
  <wgt id="12">5.93879e-12</wgt>
  <wgt id="13">5.92969e-12</wgt>
  <wgt id="14">5.97086e-12</wgt>
  <wgt id="15">5.95851e-12</wgt>
  <wgt id="16">5.93715e-12</wgt>
  <wgt id="17">5.96051e-12</wgt>
  <wgt id="18">5.94248e-12</wgt>
  <wgt id="19">5.96166e-12</wgt>
  <wgt id="20">5.93245e-12</wgt>
  <wgt id="21">5.91817e-12</wgt>
  <wgt id="22">5.93157e-12</wgt>
  <wgt id="23">5.89979e-12</wgt>
  <wgt id="24">5.92376e-12</wgt>
  <wgt id="25">5.93535e-12</wgt>
  <wgt id="26">5.97377e-12</wgt>
  <wgt id="27">5.94907e-12</wgt>
  <wgt id="28">5.92176e-12</wgt>
  <wgt id="29">5.95594e-12</wgt>
  <wgt id="30">5.93393e-12</wgt>
  <wgt id="31">5.96582e-12</wgt>
  <wgt id="32">5.93643e-12</wgt>
  <wgt id="33">5.9621e-12</wgt>
  <wgt id="34">5.93257e-12</wgt>
  <wgt id="35">5.94155e-12</wgt>
  <wgt id="36">5.96312e-12</wgt>
  <wgt id="37">5.93478e-12</wgt>
  <wgt id="38">5.93597e-12</wgt>
  <wgt id="39">6.01052e-12</wgt>
  <wgt id="40">5.96452e-12</wgt>
  <wgt id="41">5.94832e-12</wgt>
  <wgt id="42">5.96904e-12</wgt>
  <wgt id="43">5.95527e-12</wgt>
  <wgt id="44">5.92617e-12</wgt>
  <wgt id="45">5.95813e-12</wgt>
  <wgt id="46">5.95575e-12</wgt>
  <wgt id="47">5.92517e-12</wgt>
  <wgt id="48">5.95038e-12</wgt>
  <wgt id="49">5.97173e-12</wgt>
  <wgt id="50">5.98593e-12</wgt>
  <wgt id="51">5.97289e-12</wgt>
  <wgt id="52">5.92891e-12</wgt>
  <wgt id="53">5.91635e-12</wgt>
  <wgt id="54">5.93883e-12</wgt>
  <wgt id="55">5.94819e-12</wgt>
  <wgt id="56">5.96825e-12</wgt>
  <wgt id="57">5.97017e-12</wgt>
  <wgt id="58">5.91103e-12</wgt>
  <wgt id="59">5.93106e-12</wgt>
  <wgt id="60">5.9523e-12</wgt>
  <wgt id="61">5.94365e-12</wgt>
  <wgt id="62">5.94896e-12</wgt>
  <wgt id="63">5.95678e-12</wgt>
  <wgt id="64">5.95663e-12</wgt>
  <wgt id="65">5.95574e-12</wgt>
  <wgt id="66">5.94305e-12</wgt>
  <wgt id="67">5.94214e-12</wgt>
  <wgt id="68">5.94423e-12</wgt>
  <wgt id="69">5.94832e-12</wgt>
  <wgt id="70">5.94655e-12</wgt>
  <wgt id="71">5.94682e-12</wgt>
  <wgt id="72">5.9434e-12</wgt>
  <wgt id="73">5.95391e-12</wgt>
  <wgt id="74">5.95209e-12</wgt>
  <wgt id="75">5.94868e-12</wgt>
  <wgt id="76">5.96297e-12</wgt>
  <wgt id="77">5.94909e-12</wgt>
  <wgt id="78">5.95171e-12</wgt>
  <wgt id="79">5.95927e-12</wgt>
  <wgt id="80">5.92855e-12</wgt>
  <wgt id="81">5.94303e-12</wgt>
  <wgt id="82">5.94998e-12</wgt>
  <wgt id="83">5.93084e-12</wgt>
  <wgt id="84">5.9396e-12</wgt>
  <wgt id="85">5.941e-12</wgt>
  <wgt id="86">5.96126e-12</wgt>
  <wgt id="87">5.92528e-12</wgt>
  <wgt id="88">5.95541e-12</wgt>
  <wgt id="89">5.95472e-12</wgt>
  <wgt id="90">5.95687e-12</wgt>
  <wgt id="91">5.95379e-12</wgt>
  <wgt id="92">5.95931e-12</wgt>
  <wgt id="93">5.94954e-12</wgt>
  <wgt id="94">5.94566e-12</wgt>
  <wgt id="95">5.95315e-12</wgt>
  <wgt id="96">5.95285e-12</wgt>
  <wgt id="97">5.94319e-12</wgt>
  <wgt id="98">5.95244e-12</wgt>
  <wgt id="99">5.94694e-12</wgt>
  <wgt id="100">5.95458e-12</wgt>
  <wgt id="101">5.94867e-12</wgt>
  <wgt id="102">5.94502e-12</wgt>
  <wgt id="103">5.95648e-12</wgt>
  <wgt id="104">5.94664e-12</wgt>
  <wgt id="105">5.95483e-12</wgt>
  <wgt id="106">5.94339e-12</wgt>
  <wgt id="107">5.96333e-12</wgt>
  <wgt id="108">5.94497e-12</wgt>
  <wgt id="109">5.95127e-12</wgt>
  <wgt id="110">5.94931e-12</wgt>
  <wgt id="111">6.02038e-12</wgt>
  <wgt id="112">5.93793e-12</wgt>
  <wgt id="113">7.81663e-12</wgt>
  <wgt id="114">8.13255e-12</wgt>
  <wgt id="115">8.02125e-12</wgt>
  <wgt id="116">1.09169e-11</wgt>
  <wgt id="117">6.54048e-12</wgt>
  <wgt id="118">6.56131e-12</wgt>
  <wgt id="119">6.52888e-12</wgt>
  <wgt id="120">6.54141e-12</wgt>
  <wgt id="121">6.54019e-12</wgt>
  <wgt id="122">6.52875e-12</wgt>
  <wgt id="123">6.55688e-12</wgt>
  <wgt id="124">6.53091e-12</wgt>
  <wgt id="125">6.54684e-12</wgt>
  <wgt id="126">6.55137e-12</wgt>
  <wgt id="127">6.53345e-12</wgt>
  <wgt id="128">6.56105e-12</wgt>
  <wgt id="129">6.52033e-12</wgt>
  <wgt id="130">6.57803e-12</wgt>
  <wgt id="131">6.50223e-12</wgt>
  <wgt id="132">6.37726e-12</wgt>
  <wgt id="133">6.73303e-12</wgt>
  <wgt id="134">6.47398e-12</wgt>
  <wgt id="135">6.59251e-12</wgt>
  <wgt id="136">6.61847e-12</wgt>
  <wgt id="137">6.44633e-12</wgt>
  <wgt id="138">6.77688e-12</wgt>
  <wgt id="139">6.31113e-12</wgt>
  <wgt id="140">6.49564e-12</wgt>
  <wgt id="141">6.57578e-12</wgt>
  <wgt id="142">6.5416e-12</wgt>
  <wgt id="143">6.54824e-12</wgt>
  <wgt id="144">6.38593e-12</wgt>
  <wgt id="145">6.68192e-12</wgt>
  <wgt id="146">6.58951e-12</wgt>
  <wgt id="147">6.50244e-12</wgt>
  <wgt id="148">6.55909e-12</wgt>
  <wgt id="149">6.53921e-12</wgt>
  <wgt id="150">6.59528e-12</wgt>
  <wgt id="151">6.51497e-12</wgt>
  <wgt id="152">6.54315e-12</wgt>
  <wgt id="153">6.53979e-12</wgt>
  <wgt id="154">6.5993e-12</wgt>
  <wgt id="155">6.472e-12</wgt>
  <wgt id="156">6.64367e-12</wgt>
  <wgt id="157">6.42382e-12</wgt>
  <wgt id="158">7.87247e-12</wgt>
  <wgt id="159">7.90495e-12</wgt>
  <wgt id="160">7.84591e-12</wgt>
  <wgt id="161">7.85397e-12</wgt>
  <wgt id="162">7.89257e-12</wgt>
  <wgt id="163">7.86461e-12</wgt>
  <wgt id="164">7.88398e-12</wgt>
  <wgt id="165">7.87547e-12</wgt>
  <wgt id="166">7.87003e-12</wgt>
  <wgt id="167">7.86659e-12</wgt>
  <wgt id="168">7.88042e-12</wgt>
  <wgt id="169">7.83848e-12</wgt>
  <wgt id="170">7.89361e-12</wgt>
  <wgt id="171">7.86431e-12</wgt>
  <wgt id="172">7.88367e-12</wgt>
  <wgt id="173">7.87386e-12</wgt>
  <wgt id="174">7.87156e-12</wgt>
  <wgt id="175">7.66198e-12</wgt>
  <wgt id="176">8.14549e-12</wgt>
  <wgt id="177">7.91129e-12</wgt>
  <wgt id="178">7.83609e-12</wgt>
  <wgt id="179">8.17622e-12</wgt>
  <wgt id="180">7.38959e-12</wgt>
  <wgt id="181">7.65883e-12</wgt>
  <wgt id="182">8.01292e-12</wgt>
  <wgt id="183">7.74152e-12</wgt>
  <wgt id="184">7.93713e-12</wgt>
  <wgt id="185">7.81283e-12</wgt>
  <wgt id="186">7.94227e-12</wgt>
  <wgt id="187">7.80516e-12</wgt>
  <wgt id="188">7.99356e-12</wgt>
  <wgt id="189">7.8261e-12</wgt>
  <wgt id="190">7.8914e-12</wgt>
  <wgt id="191">7.89205e-12</wgt>
  <wgt id="192">7.86066e-12</wgt>
  <wgt id="193">7.97512e-12</wgt>
  <wgt id="194">7.82152e-12</wgt>
  <wgt id="195">7.71751e-12</wgt>
  <wgt id="196">8.16786e-12</wgt>
  <wgt id="197">7.90909e-12</wgt>
  <wgt id="198">7.86348e-12</wgt>
  <wgt id="199">7.87247e-12</wgt>
  <wgt id="200">7.93598e-12</wgt>
  <wgt id="201">7.91233e-12</wgt>
  <wgt id="202">7.88958e-12</wgt>
  <wgt id="203">7.85485e-12</wgt>
  <wgt id="204">7.83856e-12</wgt>
  <wgt id="205">7.825e-12</wgt>
  <wgt id="206">7.67066e-12</wgt>
  <wgt id="207">7.71488e-12</wgt>
  <wgt id="208">7.62682e-12</wgt>
  <wgt id="209">7.69114e-12</wgt>
  <wgt id="210">7.65553e-12</wgt>
  <wgt id="211">7.66844e-12</wgt>
  <wgt id="212">7.67236e-12</wgt>
  <wgt id="213">7.66993e-12</wgt>
  <wgt id="214">7.67167e-12</wgt>
  <wgt id="215">7.67541e-12</wgt>
  <wgt id="216">7.66705e-12</wgt>
  <wgt id="217">7.69139e-12</wgt>
  <wgt id="218">7.65442e-12</wgt>
  <wgt id="219">7.66074e-12</wgt>
  <wgt id="220">7.67657e-12</wgt>
  <wgt id="221">7.66669e-12</wgt>
  <wgt id="222">7.67953e-12</wgt>
  <wgt id="223">7.28659e-12</wgt>
  <wgt id="224">8.01894e-12</wgt>
  <wgt id="225">7.58516e-12</wgt>
  <wgt id="226">7.7775e-12</wgt>
  <wgt id="227">7.60189e-12</wgt>
  <wgt id="228">7.70082e-12</wgt>
  <wgt id="229">7.5692e-12</wgt>
  <wgt id="230">7.721e-12</wgt>
  <wgt id="231">7.87579e-12</wgt>
  <wgt id="232">7.50127e-12</wgt>
  <wgt id="233">7.63363e-12</wgt>
  <wgt id="234">7.72652e-12</wgt>
  <wgt id="235">7.55225e-12</wgt>
  <wgt id="236">7.79059e-12</wgt>
  <wgt id="237">7.58393e-12</wgt>
  <wgt id="238">7.70059e-12</wgt>
  <wgt id="239">7.63172e-12</wgt>
  <wgt id="240">7.7414e-12</wgt>
  <wgt id="241">7.59891e-12</wgt>
  <wgt id="242">7.75665e-12</wgt>
  <wgt id="243">7.74125e-12</wgt>
  <wgt id="244">7.72262e-12</wgt>
  <wgt id="245">7.66396e-12</wgt>
  <wgt id="246">7.7307e-12</wgt>
  <wgt id="247">7.67066e-12</wgt>
  <wgt id="248">7.73305e-12</wgt>
  <wgt id="249">7.70883e-12</wgt>
  <wgt id="250">7.68663e-12</wgt>
  <wgt id="251">7.65264e-12</wgt>
  <wgt id="252">7.637e-12</wgt>
  <wgt id="253">7.62525e-12</wgt>
  <wgt id="254">7.51481e-12</wgt>
  <wgt id="255">7.52196e-12</wgt>
  <wgt id="256">7.50699e-12</wgt>
  <wgt id="257">7.52071e-12</wgt>
  <wgt id="258">7.51039e-12</wgt>
  <wgt id="259">7.56458e-12</wgt>
  <wgt id="260">7.46676e-12</wgt>
  <wgt id="261">7.52269e-12</wgt>
  <wgt id="262">7.50546e-12</wgt>
  <wgt id="263">7.5122e-12</wgt>
  <wgt id="264">7.51767e-12</wgt>
  <wgt id="265">7.50711e-12</wgt>
  <wgt id="266">7.53004e-12</wgt>
  <wgt id="267">7.5171e-12</wgt>
  <wgt id="268">7.51176e-12</wgt>
  <wgt id="269">7.53655e-12</wgt>
  <wgt id="270">7.5e-12</wgt>
  <wgt id="271">7.5025e-12</wgt>
  <wgt id="272">7.52833e-12</wgt>
  <wgt id="273">7.49266e-12</wgt>
  <wgt id="274">7.53175e-12</wgt>
  <wgt id="275">7.48747e-12</wgt>
  <wgt id="276">7.54306e-12</wgt>
  <wgt id="277">7.47418e-12</wgt>
  <wgt id="278">7.55226e-12</wgt>
  <wgt id="279">7.37923e-12</wgt>
  <wgt id="280">7.68439e-12</wgt>
  <wgt id="281">7.48445e-12</wgt>
  <wgt id="282">7.51506e-12</wgt>
  <wgt id="283">7.31675e-12</wgt>
  <wgt id="284">7.75757e-12</wgt>
  <wgt id="285">7.18382e-12</wgt>
  <wgt id="286">7.78644e-12</wgt>
  <wgt id="287">7.53662e-12</wgt>
  <wgt id="288">7.48685e-12</wgt>
  <wgt id="289">7.56306e-12</wgt>
  <wgt id="290">7.40044e-12</wgt>
  <wgt id="291">7.49777e-12</wgt>
  <wgt id="292">7.51898e-12</wgt>
  <wgt id="293">7.46188e-12</wgt>
  <wgt id="294">7.56725e-12</wgt>
  <wgt id="295">7.38303e-12</wgt>
  <wgt id="296">7.67511e-12</wgt>
  <wgt id="297">7.51939e-12</wgt>
  <wgt id="298">7.5371e-12</wgt>
  <wgt id="299">7.49279e-12</wgt>
  <wgt id="300">7.57286e-12</wgt>
  <wgt id="301">7.4378e-12</wgt>
  <wgt id="302">7.72942e-12</wgt>
  <wgt id="303">7.46958e-12</wgt>
  <wgt id="304">7.54121e-12</wgt>
  <wgt id="305">7.55683e-12</wgt>
  <wgt id="306">7.5647e-12</wgt>
  <wgt id="307">7.54861e-12</wgt>
  <wgt id="308">7.56346e-12</wgt>
  <wgt id="309">7.55255e-12</wgt>
  <wgt id="310">7.6088e-12</wgt>
  <wgt id="311">7.50877e-12</wgt>
  <wgt id="312">7.56255e-12</wgt>
  <wgt id="313">7.55154e-12</wgt>
  <wgt id="314">7.55449e-12</wgt>
  <wgt id="315">7.55939e-12</wgt>
  <wgt id="316">7.54971e-12</wgt>
  <wgt id="317">7.57274e-12</wgt>
  <wgt id="318">7.56191e-12</wgt>
  <wgt id="319">7.54867e-12</wgt>
  <wgt id="320">7.57951e-12</wgt>
  <wgt id="321">7.54446e-12</wgt>
  <wgt id="322">7.54066e-12</wgt>
  <wgt id="323">7.57621e-12</wgt>
  <wgt id="324">7.53845e-12</wgt>
  <wgt id="325">7.57319e-12</wgt>
  <wgt id="326">7.53495e-12</wgt>
  <wgt id="327">7.58515e-12</wgt>
  <wgt id="328">7.51975e-12</wgt>
  <wgt id="329">7.57847e-12</wgt>
  <wgt id="330">7.76827e-12</wgt>
  <wgt id="331">7.3547e-12</wgt>
  <wgt id="332">7.53197e-12</wgt>
  <wgt id="333">7.55631e-12</wgt>
  <wgt id="334">7.40037e-12</wgt>
  <wgt id="335">7.75067e-12</wgt>
  <wgt id="336">7.31527e-12</wgt>
  <wgt id="337">7.84862e-12</wgt>
  <wgt id="338">7.63422e-12</wgt>
  <wgt id="339">7.48503e-12</wgt>
  <wgt id="340">7.60314e-12</wgt>
  <wgt id="341">7.43634e-12</wgt>
  <wgt id="342">7.54546e-12</wgt>
  <wgt id="343">7.55048e-12</wgt>
  <wgt id="344">7.50823e-12</wgt>
  <wgt id="345">7.6133e-12</wgt>
  <wgt id="346">7.4195e-12</wgt>
  <wgt id="347">7.7149e-12</wgt>
  <wgt id="348">7.56548e-12</wgt>
  <wgt id="349">7.57388e-12</wgt>
  <wgt id="350">7.52889e-12</wgt>
  <wgt id="351">7.62797e-12</wgt>
  <wgt id="352">7.47015e-12</wgt>
  <wgt id="353">7.78563e-12</wgt>
  <wgt id="354">7.48705e-12</wgt>
  <wgt id="355">7.60074e-12</wgt>
  <wgt id="356">7.51481e-12</wgt>
  <wgt id="357">7.59327e-12</wgt>
  <wgt id="358">7.55683e-12</wgt>
  <wgt id="359">7.54645e-12</wgt>
  <wgt id="360">7.54628e-12</wgt>
  <wgt id="361">7.53421e-12</wgt>
  <wgt id="362">7.65367e-12</wgt>
  <wgt id="363">7.63676e-12</wgt>
  <wgt id="364">7.61439e-12</wgt>
  <wgt id="365">7.59086e-12</wgt>
  <wgt id="366">7.56395e-12</wgt>
  <wgt id="367">7.50741e-12</wgt>
  <wgt id="368">7.47681e-12</wgt>
  <wgt id="369">7.44412e-12</wgt>
  <wgt id="370">7.53421e-12</wgt>
  <wgt id="371">7.56749e-12</wgt>
  <wgt id="372">7.54907e-12</wgt>
  <wgt id="373">7.52188e-12</wgt>
  <wgt id="374">7.51724e-12</wgt>
  <wgt id="375">7.94168e-12</wgt>
  <wgt id="376">7.94261e-12</wgt>
  <wgt id="377">7.94049e-12</wgt>
  <wgt id="378">7.96992e-12</wgt>
  <wgt id="379">7.91341e-12</wgt>
  <wgt id="380">7.96313e-12</wgt>
  <wgt id="381">7.93303e-12</wgt>
  <wgt id="382">7.9798e-12</wgt>
  <wgt id="383">7.90395e-12</wgt>
  <wgt id="384">7.94674e-12</wgt>
  <wgt id="385">7.9368e-12</wgt>
  <wgt id="386">7.97093e-12</wgt>
  <wgt id="387">7.92889e-12</wgt>
  <wgt id="388">7.93456e-12</wgt>
  <wgt id="389">7.95016e-12</wgt>
  <wgt id="390">7.96196e-12</wgt>
  <wgt id="391">7.92026e-12</wgt>
  <wgt id="392">7.88881e-12</wgt>
  <wgt id="393">7.97166e-12</wgt>
  <wgt id="394">7.95303e-12</wgt>
  <wgt id="395">7.92609e-12</wgt>
  <wgt id="396">7.9434e-12</wgt>
  <wgt id="397">7.94048e-12</wgt>
  <wgt id="398">7.91011e-12</wgt>
  <wgt id="399">7.97208e-12</wgt>
  <wgt id="400">7.92953e-12</wgt>
  <wgt id="401">7.96852e-12</wgt>
  <wgt id="402">7.88313e-12</wgt>
  <wgt id="403">7.96501e-12</wgt>
  <wgt id="404">8.10721e-12</wgt>
  <wgt id="405">7.54094e-12</wgt>
  <wgt id="406">7.82242e-12</wgt>
  <wgt id="407">8.1984e-12</wgt>
  <wgt id="408">8.00281e-12</wgt>
  <wgt id="409">7.82378e-12</wgt>
  <wgt id="410">7.74475e-12</wgt>
  <wgt id="411">8.03139e-12</wgt>
  <wgt id="412">7.92923e-12</wgt>
  <wgt id="413">7.95884e-12</wgt>
  <wgt id="414">7.86302e-12</wgt>
  <wgt id="415">8.00263e-12</wgt>
  <wgt id="416">8.12449e-12</wgt>
  <wgt id="417">7.68833e-12</wgt>
  <wgt id="418">7.95119e-12</wgt>
  <wgt id="419">7.89068e-12</wgt>
  <wgt id="420">8.02755e-12</wgt>
  <wgt id="421">7.89854e-12</wgt>
  <wgt id="422">7.94097e-12</wgt>
  <wgt id="423">7.94405e-12</wgt>
  <wgt id="424">8.0705e-12</wgt>
  <wgt id="425">7.86376e-12</wgt>
  <wgt id="426">7.94168e-12</wgt>
  <wgt id="427">7.88972e-12</wgt>
  <wgt id="428">8.10574e-12</wgt>
  <wgt id="429">8.00009e-12</wgt>
  <wgt id="430">8.20539e-12</wgt>
  <wgt id="431">8.16461e-12</wgt>
  <wgt id="432">8.12565e-12</wgt>
  <wgt id="433">8.08777e-12</wgt>
  <wgt id="434">8.04267e-12</wgt>
  <wgt id="435">7.94658e-12</wgt>
  <wgt id="436">7.89675e-12</wgt>
  <wgt id="437">7.84962e-12</wgt>
  <wgt id="438">8.00009e-12</wgt>
  <wgt id="439">8.0264e-12</wgt>
  <wgt id="440">8.01111e-12</wgt>
  <wgt id="441">7.99165e-12</wgt>
  <wgt id="442">7.98447e-12</wgt>
  <wgt id="443">7.82692e-12</wgt>
  <wgt id="444">7.86083e-12</wgt>
  <wgt id="445">7.79977e-12</wgt>
  <wgt id="446">7.78041e-12</wgt>
  <wgt id="447">7.8017e-12</wgt>
  <wgt id="448">7.63804e-12</wgt>
  <wgt id="449">7.93555e-12</wgt>
  <wgt id="450">7.79553e-12</wgt>
  <wgt id="451">7.81651e-12</wgt>
  <wgt id="452">7.98248e-12</wgt>
  <wgt id="453">7.88582e-12</wgt>
  <wgt id="454">7.5358e-12</wgt>
  <wgt id="455">7.83634e-12</wgt>
  <wgt id="456">7.71493e-12</wgt>
  <wgt id="457">7.85368e-12</wgt>
  <wgt id="458">7.90793e-12</wgt>
  <wgt id="459">7.87403e-12</wgt>
  <wgt id="460">7.86858e-12</wgt>
  <wgt id="461">7.70614e-12</wgt>
  <wgt id="462">7.77469e-12</wgt>
  <wgt id="463">7.75371e-12</wgt>
  <wgt id="464">7.79163e-12</wgt>
  <wgt id="465">7.89499e-12</wgt>
  <wgt id="466">7.75149e-12</wgt>
  <wgt id="467">7.76324e-12</wgt>
  <wgt id="468">7.80883e-12</wgt>
  <wgt id="469">7.81031e-12</wgt>
  <wgt id="470">7.76481e-12</wgt>
  <wgt id="471">7.76975e-12</wgt>
  <wgt id="472">7.85664e-12</wgt>
  <wgt id="473">7.61693e-12</wgt>
  <wgt id="474">5.79e-12</wgt>
  <wgt id="475">6.14162e-12</wgt>
  <wgt id="476">5.68049e-12</wgt>
  <wgt id="477">5.67893e-12</wgt>
  <wgt id="478">5.82508e-12</wgt>
  <wgt id="479">5.72358e-12</wgt>
  <wgt id="480">5.96289e-12</wgt>
  <wgt id="481">5.64857e-12</wgt>
  <wgt id="482">5.56685e-12</wgt>
  <wgt id="483">5.64477e-12</wgt>
  <wgt id="484">6.18772e-12</wgt>
  <wgt id="485">5.80362e-12</wgt>
  <wgt id="486">5.88729e-12</wgt>
  <wgt id="487">5.86363e-12</wgt>
  <wgt id="488">5.86072e-12</wgt>
  <wgt id="489">5.57656e-12</wgt>
  <wgt id="490">5.62724e-12</wgt>
  <wgt id="491">5.73309e-12</wgt>
  <wgt id="492">5.61791e-12</wgt>
  <wgt id="493">5.59743e-12</wgt>
  <wgt id="494">5.62119e-12</wgt>
  <wgt id="495">5.87528e-12</wgt>
  <wgt id="496">5.59612e-12</wgt>
  <wgt id="497">5.59004e-12</wgt>
  <wgt id="498">5.86082e-12</wgt>
  <wgt id="499">5.64885e-12</wgt>
  <wgt id="500">5.68627e-12</wgt>
  <wgt id="501">6.02819e-12</wgt>
  <wgt id="502">5.63807e-12</wgt>
  <wgt id="503">5.77312e-12</wgt>
  <wgt id="504">5.79522e-12</wgt>
  <wgt id="505">5.82248e-12</wgt>
  <wgt id="506">5.86459e-12</wgt>
  <wgt id="507">5.72914e-12</wgt>
  <wgt id="508">5.88941e-12</wgt>
  <wgt id="509">5.73473e-12</wgt>
  <wgt id="510">5.91804e-12</wgt>
  <wgt id="511">5.66229e-12</wgt>
  <wgt id="512">5.85776e-12</wgt>
  <wgt id="513">5.98251e-12</wgt>
  <wgt id="514">5.74887e-12</wgt>
  <wgt id="515">5.7236e-12</wgt>
  <wgt id="516">5.94619e-12</wgt>
  <wgt id="517">5.92001e-12</wgt>
  <wgt id="518">5.94316e-12</wgt>
  <wgt id="519">5.66278e-12</wgt>
  <wgt id="520">5.81861e-12</wgt>
  <wgt id="521">5.99752e-12</wgt>
  <wgt id="522">6.00664e-12</wgt>
  <wgt id="523">5.89049e-12</wgt>
  <wgt id="524">5.89093e-12</wgt>
  <wgt id="525">5.92689e-12</wgt>
  <wgt id="526">5.78299e-12</wgt>
  <wgt id="527">5.89501e-12</wgt>
  <wgt id="528">5.78351e-12</wgt>
  <wgt id="529">5.72623e-12</wgt>
  <wgt id="530">5.82492e-12</wgt>
  <wgt id="531">5.71368e-12</wgt>
  <wgt id="532">6.08695e-12</wgt>
  <wgt id="533">5.4533e-12</wgt>
  <wgt id="534">5.79283e-12</wgt>
  <wgt id="535">5.87502e-12</wgt>
  <wgt id="536">5.79439e-12</wgt>
  <wgt id="537">5.81019e-12</wgt>
  <wgt id="538">5.89107e-12</wgt>
  <wgt id="539">5.66072e-12</wgt>
  <wgt id="540">5.73765e-12</wgt>
  <wgt id="541">5.69766e-12</wgt>
  <wgt id="542">5.66479e-12</wgt>
  <wgt id="543">5.78091e-12</wgt>
  <wgt id="544">6.06689e-12</wgt>
  <wgt id="545">5.71187e-12</wgt>
  <wgt id="546">5.72654e-12</wgt>
  <wgt id="547">5.625e-12</wgt>
  <wgt id="548">5.55677e-12</wgt>
  <wgt id="549">5.70538e-12</wgt>
  <wgt id="550">5.81006e-12</wgt>
  <wgt id="551">5.86301e-12</wgt>
  <wgt id="552">5.72805e-12</wgt>
  <wgt id="553">5.77507e-12</wgt>
  <wgt id="554">6.21809e-12</wgt>
  <wgt id="555">5.95287e-12</wgt>
  <wgt id="556">5.62724e-12</wgt>
  <wgt id="557">5.87925e-12</wgt>
  <wgt id="558">5.60788e-12</wgt>
  <wgt id="559">5.7185e-12</wgt>
  <wgt id="560">6.24658e-12</wgt>
  <wgt id="561">5.65765e-12</wgt>
  <wgt id="562">5.86834e-12</wgt>
  <wgt id="563">5.65811e-12</wgt>
  <wgt id="564">5.79692e-12</wgt>
  <wgt id="565">5.61642e-12</wgt>
  <wgt id="566">5.8468e-12</wgt>
  <wgt id="567">5.70441e-12</wgt>
  <wgt id="568">5.79709e-12</wgt>
  <wgt id="569">5.83461e-12</wgt>
  <wgt id="570">5.65663e-12</wgt>
  <wgt id="571">6.39441e-12</wgt>
  <wgt id="572">5.67074e-12</wgt>
  <wgt id="573">5.53953e-12</wgt>
  <wgt id="574">5.59316e-12</wgt>
  <wgt id="575">6.33497e-12</wgt>
  <wgt id="576">6.24053e-12</wgt>
  <wgt id="577">6.56392e-12</wgt>
  <wgt id="578">6.45043e-12</wgt>
  <wgt id="579">6.39554e-12</wgt>
  <wgt id="580">6.43296e-12</wgt>
  <wgt id="581">6.70715e-12</wgt>
  <wgt id="582">6.22462e-12</wgt>
  <wgt id="583">6.39143e-12</wgt>
  <wgt id="584">6.33694e-12</wgt>
  <wgt id="585">6.36945e-12</wgt>
  <wgt id="586">6.18776e-12</wgt>
  <wgt id="587">6.40302e-12</wgt>
  <wgt id="588">6.29541e-12</wgt>
  <wgt id="589">6.40633e-12</wgt>
  <wgt id="590">6.42403e-12</wgt>
  <wgt id="591">6.58652e-12</wgt>
  <wgt id="592">6.21308e-12</wgt>
  <wgt id="593">6.30243e-12</wgt>
  <wgt id="594">6.59516e-12</wgt>
  <wgt id="595">6.29339e-12</wgt>
  <wgt id="596">6.43516e-12</wgt>
  <wgt id="597">6.10828e-12</wgt>
  <wgt id="598">6.27603e-12</wgt>
  <wgt id="599">6.62288e-12</wgt>
  <wgt id="600">6.28077e-12</wgt>
  <wgt id="601">6.15584e-12</wgt>
  <wgt id="602">6.21828e-12</wgt>
  <wgt id="603">6.25405e-12</wgt>
  <wgt id="604">6.41483e-12</wgt>
  <wgt id="605">6.5887e-12</wgt>
  <wgt id="606">6.18759e-12</wgt>
  <wgt id="607">6.25198e-12</wgt>
  <wgt id="608">6.31389e-12</wgt>
  <wgt id="609">5.97132e-12</wgt>
  <wgt id="610">6.09328e-12</wgt>
  <wgt id="611">6.43559e-12</wgt>
  <wgt id="612">6.81106e-12</wgt>
  <wgt id="613">6.34463e-12</wgt>
  <wgt id="614">6.40584e-12</wgt>
  <wgt id="615">6.21444e-12</wgt>
  <wgt id="616">6.74832e-12</wgt>
  <wgt id="617">6.53304e-12</wgt>
  <wgt id="618">6.36256e-12</wgt>
  <wgt id="619">6.30601e-12</wgt>
  <wgt id="620">6.53121e-12</wgt>
  <wgt id="621">6.42086e-12</wgt>
  <wgt id="622">6.40302e-12</wgt>
  <wgt id="623">6.49103e-12</wgt>
  <wgt id="624">6.29232e-12</wgt>
  <wgt id="625">6.26078e-12</wgt>
  <wgt id="626">6.19811e-12</wgt>
  <wgt id="627">6.11605e-12</wgt>
  <wgt id="628">6.6401e-12</wgt>
  <wgt id="629">6.20964e-12</wgt>
  <wgt id="630">6.17374e-12</wgt>
  <wgt id="631">6.33407e-12</wgt>
  <wgt id="632">6.15754e-12</wgt>
  <wgt id="633">6.25821e-12</wgt>
  <wgt id="634">6.36612e-12</wgt>
  <wgt id="635">6.27913e-12</wgt>
  <wgt id="636">6.37719e-12</wgt>
  <wgt id="637">6.36498e-12</wgt>
  <wgt id="638">6.12522e-12</wgt>
  <wgt id="639">6.27165e-12</wgt>
  <wgt id="640">6.35185e-12</wgt>
  <wgt id="641">6.35057e-12</wgt>
  <wgt id="642">6.2276e-12</wgt>
  <wgt id="643">6.31596e-12</wgt>
  <wgt id="644">6.11934e-12</wgt>
  <wgt id="645">6.36809e-12</wgt>
  <wgt id="646">6.45508e-12</wgt>
  <wgt id="647">6.23075e-12</wgt>
  <wgt id="648">6.36425e-12</wgt>
  <wgt id="649">6.42502e-12</wgt>
  <wgt id="650">6.22e-12</wgt>
  <wgt id="651">6.41324e-12</wgt>
  <wgt id="652">6.32719e-12</wgt>
  <wgt id="653">6.17385e-12</wgt>
  <wgt id="654">6.30299e-12</wgt>
  <wgt id="655">6.20119e-12</wgt>
  <wgt id="656">6.31433e-12</wgt>
  <wgt id="657">6.48075e-12</wgt>
  <wgt id="658">6.43877e-12</wgt>
  <wgt id="659">6.1082e-12</wgt>
  <wgt id="660">6.44905e-12</wgt>
  <wgt id="661">6.2481e-12</wgt>
  <wgt id="662">6.30474e-12</wgt>
  <wgt id="663">6.31699e-12</wgt>
  <wgt id="664">6.23666e-12</wgt>
  <wgt id="665">6.31392e-12</wgt>
  <wgt id="666">6.32251e-12</wgt>
  <wgt id="667">6.5337e-12</wgt>
  <wgt id="668">6.30265e-12</wgt>
  <wgt id="669">6.49067e-12</wgt>
  <wgt id="670">6.40845e-12</wgt>
  <wgt id="671">6.23355e-12</wgt>
  <wgt id="672">6.0737e-12</wgt>
  <wgt id="673">6.31403e-12</wgt>
  <wgt id="674">6.20458e-12</wgt>
  <wgt id="675">6.20146e-12</wgt>
  <wgt id="676">7.85726e-12</wgt>
  <wgt id="677">7.96844e-12</wgt>
  <wgt id="678">8.20821e-12</wgt>
  <wgt id="679">7.50019e-12</wgt>
  <wgt id="680">7.58807e-12</wgt>
  <wgt id="681">8.08125e-12</wgt>
  <wgt id="682">7.9669e-12</wgt>
  <wgt id="683">7.79472e-12</wgt>
  <wgt id="684">8.18611e-12</wgt>
  <wgt id="685">7.46586e-12</wgt>
  <wgt id="686">7.88924e-12</wgt>
  <wgt id="687">8.18519e-12</wgt>
  <wgt id="688">7.80485e-12</wgt>
  <wgt id="689">8.37592e-12</wgt>
  <wgt id="690">8.28962e-12</wgt>
  <wgt id="691">8.25852e-12</wgt>
  <wgt id="692">7.83516e-12</wgt>
  <wgt id="693">9.01019e-12</wgt>
  <wgt id="694">8.29178e-12</wgt>
  <wgt id="695">7.60605e-12</wgt>
  <wgt id="696">7.51306e-12</wgt>
  <wgt id="697">7.609e-12</wgt>
  <wgt id="698">7.38913e-12</wgt>
  <wgt id="699">7.29379e-12</wgt>
  <wgt id="700">7.02402e-12</wgt>
  <wgt id="701">7.86952e-12</wgt>
  <wgt id="702">7.54069e-12</wgt>
  <wgt id="703">8.86192e-12</wgt>
  <wgt id="704">8.43514e-12</wgt>
  <wgt id="705">8.1534e-12</wgt>
  <wgt id="706">7.36291e-12</wgt>
  <wgt id="707">7.56781e-12</wgt>
  <wgt id="708">7.7638e-12</wgt>
  <wgt id="709">7.72875e-12</wgt>
  <wgt id="710">7.09274e-12</wgt>
  <wgt id="711">7.85159e-12</wgt>
  <wgt id="712">7.75523e-12</wgt>
  <wgt id="713">8.36783e-12</wgt>
  <wgt id="714">7.82198e-12</wgt>
  <wgt id="715">7.77756e-12</wgt>
  <wgt id="716">7.58167e-12</wgt>
  <wgt id="717">7.55601e-12</wgt>
  <wgt id="718">7.73328e-12</wgt>
  <wgt id="719">7.21409e-12</wgt>
  <wgt id="720">7.47373e-12</wgt>
  <wgt id="721">7.47077e-12</wgt>
  <wgt id="722">7.13894e-12</wgt>
  <wgt id="723">8.28461e-12</wgt>
  <wgt id="724">8.15667e-12</wgt>
  <wgt id="725">8.29148e-12</wgt>
  <wgt id="726">7.9401e-12</wgt>
  <wgt id="727">7.68486e-12</wgt>
  <wgt id="728">7.78591e-12</wgt>
  <wgt id="729">7.19577e-12</wgt>
  <wgt id="730">8.31377e-12</wgt>
  <wgt id="731">7.78111e-12</wgt>
  <wgt id="732">8.54176e-12</wgt>
  <wgt id="733">7.83895e-12</wgt>
  <wgt id="734">8.0325e-12</wgt>
  <wgt id="735">7.82953e-12</wgt>
  <wgt id="736">7.75857e-12</wgt>
  <wgt id="737">7.98136e-12</wgt>
  <wgt id="738">7.57937e-12</wgt>
  <wgt id="739">7.83532e-12</wgt>
  <wgt id="740">8.65832e-12</wgt>
  <wgt id="741">7.02134e-12</wgt>
  <wgt id="742">7.74887e-12</wgt>
  <wgt id="743">7.63431e-12</wgt>
  <wgt id="744">7.70378e-12</wgt>
  <wgt id="745">8.13168e-12</wgt>
  <wgt id="746">8.22465e-12</wgt>
  <wgt id="747">7.27128e-12</wgt>
  <wgt id="748">7.73304e-12</wgt>
  <wgt id="749">8.28527e-12</wgt>
  <wgt id="750">7.84187e-12</wgt>
  <wgt id="751">8.12995e-12</wgt>
  <wgt id="752">7.28296e-12</wgt>
  <wgt id="753">7.49476e-12</wgt>
  <wgt id="754">8.05789e-12</wgt>
  <wgt id="755">7.90491e-12</wgt>
  <wgt id="756">7.88877e-12</wgt>
  <wgt id="757">7.32845e-12</wgt>
  <wgt id="758">7.95109e-12</wgt>
  <wgt id="759">7.85748e-12</wgt>
  <wgt id="760">7.99779e-12</wgt>
  <wgt id="761">8.26484e-12</wgt>
  <wgt id="762">8.261e-12</wgt>
  <wgt id="763">7.87935e-12</wgt>
  <wgt id="764">8.12169e-12</wgt>
  <wgt id="765">7.91147e-12</wgt>
  <wgt id="766">7.82795e-12</wgt>
  <wgt id="767">8.02298e-12</wgt>
  <wgt id="768">7.48626e-12</wgt>
  <wgt id="769">8.28796e-12</wgt>
  <wgt id="770">7.67185e-12</wgt>
  <wgt id="771">9.13874e-12</wgt>
  <wgt id="772">7.41084e-12</wgt>
  <wgt id="773">7.82928e-12</wgt>
  <wgt id="774">7.12766e-12</wgt>
  <wgt id="775">8.19097e-12</wgt>
  <wgt id="776">8.54632e-12</wgt>
  <wgt id="777">7.63412e-12</wgt>
  <wgt id="778">5.92417e-12</wgt>
  <wgt id="779">5.07446e-12</wgt>
  <wgt id="780">4.32573e-12</wgt>
  <wgt id="781">5.9504e-12</wgt>
  <wgt id="782">6.26906e-12</wgt>
  <wgt id="783">5.17585e-12</wgt>
  <wgt id="784">5.29543e-12</wgt>
  <wgt id="785">7.06667e-12</wgt>
  <wgt id="786">4.66816e-12</wgt>
  <wgt id="787">6.59035e-12</wgt>
  <wgt id="788">4.01906e-12</wgt>
  <wgt id="789">4.86023e-12</wgt>
  <wgt id="790">4.65583e-12</wgt>
  <wgt id="791">5.52341e-12</wgt>
  <wgt id="792">7.58888e-12</wgt>
  <wgt id="793">5.74146e-12</wgt>
  <wgt id="794">4.75018e-12</wgt>
  <wgt id="795">6.71201e-12</wgt>
  <wgt id="796">7.62734e-12</wgt>
  <wgt id="797">6.69843e-12</wgt>
  <wgt id="798">5.54338e-12</wgt>
  <wgt id="799">6.62129e-12</wgt>
  <wgt id="800">4.89534e-12</wgt>
  <wgt id="801">5.61072e-12</wgt>
  <wgt id="802">4.79452e-12</wgt>
  <wgt id="803">7.65274e-12</wgt>
  <wgt id="804">6.67242e-12</wgt>
  <wgt id="805">6.79169e-12</wgt>
  <wgt id="806">6.66482e-12</wgt>
  <wgt id="807">5.70384e-12</wgt>
  <wgt id="808">5.79109e-12</wgt>
  <wgt id="809">5.49206e-12</wgt>
  <wgt id="810">6.74117e-12</wgt>
  <wgt id="811">6.40277e-12</wgt>
  <wgt id="812">4.71847e-12</wgt>
  <wgt id="813">4.76399e-12</wgt>
  <wgt id="814">5.00638e-12</wgt>
  <wgt id="815">5.09458e-12</wgt>
  <wgt id="816">4.56042e-12</wgt>
  <wgt id="817">6.23224e-12</wgt>
  <wgt id="818">5.76798e-12</wgt>
  <wgt id="819">5.10017e-12</wgt>
  <wgt id="820">5.94469e-12</wgt>
  <wgt id="821">6.66196e-12</wgt>
  <wgt id="822">5.1512e-12</wgt>
  <wgt id="823">6.67508e-12</wgt>
  <wgt id="824">7.80111e-12</wgt>
  <wgt id="825">4.57762e-12</wgt>
  <wgt id="826">6.12678e-12</wgt>
  <wgt id="827">3.87931e-12</wgt>
  <wgt id="828">7.55522e-12</wgt>
  <wgt id="829">6.08968e-12</wgt>
  <wgt id="830">4.3586e-12</wgt>
  <wgt id="831">6.29102e-12</wgt>
  <wgt id="832">9.37468e-12</wgt>
  <wgt id="833">5.63464e-12</wgt>
  <wgt id="834">8.81008e-12</wgt>
  <wgt id="835">4.89888e-12</wgt>
  <wgt id="836">5.95318e-12</wgt>
  <wgt id="837">6.58265e-12</wgt>
  <wgt id="838">5.67888e-12</wgt>
  <wgt id="839">6.26704e-12</wgt>
  <wgt id="840">5.64129e-12</wgt>
  <wgt id="841">7.04026e-12</wgt>
  <wgt id="842">5.47738e-12</wgt>
  <wgt id="843">5.7584e-12</wgt>
  <wgt id="844">6.10746e-12</wgt>
  <wgt id="845">7.97006e-12</wgt>
  <wgt id="846">5.52573e-12</wgt>
  <wgt id="847">5.85952e-12</wgt>
  <wgt id="848">5.29178e-12</wgt>
  <wgt id="849">6.04659e-12</wgt>
  <wgt id="850">7.44805e-12</wgt>
  <wgt id="851">6.4258e-12</wgt>
  <wgt id="852">5.2114e-12</wgt>
  <wgt id="853">6.39025e-12</wgt>
  <wgt id="854">7.05388e-12</wgt>
  <wgt id="855">6.66975e-12</wgt>
  <wgt id="856">4.46368e-12</wgt>
  <wgt id="857">5.98729e-12</wgt>
  <wgt id="858">5.85698e-12</wgt>
  <wgt id="859">5.54832e-12</wgt>
  <wgt id="860">6.21245e-12</wgt>
  <wgt id="861">5.36782e-12</wgt>
  <wgt id="862">6.00477e-12</wgt>
  <wgt id="863">6.17211e-12</wgt>
  <wgt id="864">6.19887e-12</wgt>
  <wgt id="865">8.15272e-12</wgt>
  <wgt id="866">8.92019e-12</wgt>
  <wgt id="867">5.95299e-12</wgt>
  <wgt id="868">5.81165e-12</wgt>
  <wgt id="869">4.75994e-12</wgt>
  <wgt id="870">5.00373e-12</wgt>
  <wgt id="871">4.8707e-12</wgt>
  <wgt id="872">6.84768e-12</wgt>
  <wgt id="873">4.99533e-12</wgt>
  <wgt id="874">6.15559e-12</wgt>
  <wgt id="875">5.20503e-12</wgt>
  <wgt id="876">6.85127e-12</wgt>
  <wgt id="877">6.62678e-12</wgt>
  <wgt id="878">5.2456e-12</wgt>
  <wgt id="879">7.85726e-12</wgt>
  <wgt id="880">7.96844e-12</wgt>
  <wgt id="881">8.20821e-12</wgt>
  <wgt id="882">7.50019e-12</wgt>
  <wgt id="883">7.58807e-12</wgt>
  <wgt id="884">8.08125e-12</wgt>
  <wgt id="885">7.9669e-12</wgt>
  <wgt id="886">7.79472e-12</wgt>
  <wgt id="887">8.18611e-12</wgt>
  <wgt id="888">7.46586e-12</wgt>
  <wgt id="889">7.88924e-12</wgt>
  <wgt id="890">8.18519e-12</wgt>
  <wgt id="891">7.80485e-12</wgt>
  <wgt id="892">8.37592e-12</wgt>
  <wgt id="893">8.28962e-12</wgt>
  <wgt id="894">8.25852e-12</wgt>
  <wgt id="895">7.83516e-12</wgt>
  <wgt id="896">9.01019e-12</wgt>
  <wgt id="897">8.29178e-12</wgt>
  <wgt id="898">7.60605e-12</wgt>
  <wgt id="899">7.51306e-12</wgt>
  <wgt id="900">7.609e-12</wgt>
  <wgt id="901">7.38913e-12</wgt>
  <wgt id="902">7.29379e-12</wgt>
  <wgt id="903">7.02402e-12</wgt>
  <wgt id="904">7.86952e-12</wgt>
  <wgt id="905">7.54069e-12</wgt>
  <wgt id="906">8.86192e-12</wgt>
  <wgt id="907">8.43514e-12</wgt>
  <wgt id="908">8.1534e-12</wgt>
  <wgt id="909">7.36291e-12</wgt>
  <wgt id="910">7.56781e-12</wgt>
  <wgt id="911">7.7638e-12</wgt>
  <wgt id="912">7.72875e-12</wgt>
  <wgt id="913">7.09274e-12</wgt>
  <wgt id="914">7.85159e-12</wgt>
  <wgt id="915">7.75523e-12</wgt>
  <wgt id="916">8.36783e-12</wgt>
  <wgt id="917">7.82198e-12</wgt>
  <wgt id="918">7.77756e-12</wgt>
  <wgt id="919">7.58167e-12</wgt>
  <wgt id="920">7.55601e-12</wgt>
  <wgt id="921">7.73328e-12</wgt>
  <wgt id="922">7.21409e-12</wgt>
  <wgt id="923">7.47373e-12</wgt>
  <wgt id="924">7.47077e-12</wgt>
  <wgt id="925">7.13894e-12</wgt>
  <wgt id="926">8.28461e-12</wgt>
  <wgt id="927">8.15667e-12</wgt>
  <wgt id="928">8.29148e-12</wgt>
  <wgt id="929">7.9401e-12</wgt>
  <wgt id="930">7.68486e-12</wgt>
  <wgt id="931">7.78591e-12</wgt>
  <wgt id="932">7.19577e-12</wgt>
  <wgt id="933">8.31377e-12</wgt>
  <wgt id="934">7.78111e-12</wgt>
  <wgt id="935">8.54176e-12</wgt>
  <wgt id="936">7.83895e-12</wgt>
  <wgt id="937">8.0325e-12</wgt>
  <wgt id="938">7.82953e-12</wgt>
  <wgt id="939">7.75857e-12</wgt>
  <wgt id="940">7.98136e-12</wgt>
  <wgt id="941">7.57937e-12</wgt>
  <wgt id="942">7.83532e-12</wgt>
  <wgt id="943">8.65832e-12</wgt>
  <wgt id="944">7.02134e-12</wgt>
  <wgt id="945">7.74887e-12</wgt>
  <wgt id="946">7.63431e-12</wgt>
  <wgt id="947">7.70378e-12</wgt>
  <wgt id="948">8.13168e-12</wgt>
  <wgt id="949">8.22465e-12</wgt>
  <wgt id="950">7.27128e-12</wgt>
  <wgt id="951">7.73304e-12</wgt>
  <wgt id="952">8.28527e-12</wgt>
  <wgt id="953">7.84187e-12</wgt>
  <wgt id="954">8.12995e-12</wgt>
  <wgt id="955">7.28296e-12</wgt>
  <wgt id="956">7.49476e-12</wgt>
  <wgt id="957">8.05789e-12</wgt>
  <wgt id="958">7.90491e-12</wgt>
  <wgt id="959">7.88877e-12</wgt>
  <wgt id="960">7.32845e-12</wgt>
  <wgt id="961">7.95109e-12</wgt>
  <wgt id="962">7.85748e-12</wgt>
  <wgt id="963">7.99779e-12</wgt>
  <wgt id="964">8.26484e-12</wgt>
  <wgt id="965">8.261e-12</wgt>
  <wgt id="966">7.87935e-12</wgt>
  <wgt id="967">8.12169e-12</wgt>
  <wgt id="968">7.91147e-12</wgt>
  <wgt id="969">7.82795e-12</wgt>
  <wgt id="970">8.02298e-12</wgt>
  <wgt id="971">7.48626e-12</wgt>
  <wgt id="972">8.28796e-12</wgt>
  <wgt id="973">7.67185e-12</wgt>
  <wgt id="974">9.13874e-12</wgt>
  <wgt id="975">7.41084e-12</wgt>
  <wgt id="976">7.82928e-12</wgt>
  <wgt id="977">7.12766e-12</wgt>
  <wgt id="978">8.19097e-12</wgt>
  <wgt id="979">8.54632e-12</wgt>
  <wgt id="980">7.8728e-12</wgt>
  <wgt id="981">7.88009e-12</wgt>
  <wgt id="982">7.64091e-12</wgt>
</rwgt>
</event>
<event>
 5   1  0.5790000E-11  0.2027184E+04  0.7818608E-02  0.7817264E-01
       21   -1    0    0  502  501  0.00000000000E+00  0.00000000000E+00  0.25118048812E+04  0.25118048812E+04  0.00000000000E+00 0.  1.
       21   -1    0    0  501  502 -0.00000000000E+00 -0.00000000000E+00 -0.40901630397E+03  0.40901630397E+03  0.00000000000E+00 0. -1.
       39    2    1    2    0    0  0.00000000000E+00  0.00000000000E+00  0.21027885772E+04  0.29208211851E+04  0.20271844009E+04 0.  0.
       25    1    3    3    0    0  0.58725410626E+03 -0.49966504040E+03  0.19820518439E+04  0.21304194539E+04  0.12500000000E+03 0.  0.
       25    1    3    3    0    0 -0.58725410626E+03  0.49966504040E+03  0.12073673333E+03  0.79040173120E+03  0.12500000000E+03 0.  0.
<mgrwt>
<rscale>  0 0.20271844E+04</rscale>
<asrwt>0</asrwt>
<pdfrwt beam="1">  1       21 0.38643151E+00 0.20271844E+04</pdfrwt>
<pdfrwt beam="2">  1       21 0.62925587E-01 0.20271844E+04</pdfrwt>
<totfact> 0.91790541E+00</totfact>
</mgrwt>
<rwgt>
  <wgt id="1">5.79e-12</wgt>
  <wgt id="2">4.97683e-12</wgt>
  <wgt id="3">6.81507e-12</wgt>
  <wgt id="4">5.79e-12</wgt>
  <wgt id="5">4.97683e-12</wgt>
  <wgt id="6">6.81507e-12</wgt>
  <wgt id="7">5.79e-12</wgt>
  <wgt id="8">4.97683e-12</wgt>
  <wgt id="9">6.81507e-12</wgt>
  <wgt id="10">6.13135e-12</wgt>
  <wgt id="11">6.13447e-12</wgt>
  <wgt id="12">6.11002e-12</wgt>
  <wgt id="13">6.12714e-12</wgt>
  <wgt id="14">6.13866e-12</wgt>
  <wgt id="15">6.13682e-12</wgt>
  <wgt id="16">6.10023e-12</wgt>
  <wgt id="17">6.17748e-12</wgt>
  <wgt id="18">6.1276e-12</wgt>
  <wgt id="19">6.16696e-12</wgt>
  <wgt id="20">6.14174e-12</wgt>
  <wgt id="21">6.07121e-12</wgt>
  <wgt id="22">6.07696e-12</wgt>
  <wgt id="23">6.01984e-12</wgt>
  <wgt id="24">6.07995e-12</wgt>
  <wgt id="25">6.11512e-12</wgt>
  <wgt id="26">6.14529e-12</wgt>
  <wgt id="27">6.11605e-12</wgt>
  <wgt id="28">6.0932e-12</wgt>
  <wgt id="29">6.13121e-12</wgt>
  <wgt id="30">6.07191e-12</wgt>
  <wgt id="31">6.15392e-12</wgt>
  <wgt id="32">6.06523e-12</wgt>
  <wgt id="33">6.13698e-12</wgt>
  <wgt id="34">6.07631e-12</wgt>
  <wgt id="35">6.06879e-12</wgt>
  <wgt id="36">6.17124e-12</wgt>
  <wgt id="37">6.11151e-12</wgt>
  <wgt id="38">6.09389e-12</wgt>
  <wgt id="39">6.26538e-12</wgt>
  <wgt id="40">6.14709e-12</wgt>
  <wgt id="41">6.12803e-12</wgt>
  <wgt id="42">6.13962e-12</wgt>
  <wgt id="43">6.14235e-12</wgt>
  <wgt id="44">6.18989e-12</wgt>
  <wgt id="45">6.14263e-12</wgt>
  <wgt id="46">6.08553e-12</wgt>
  <wgt id="47">6.2476e-12</wgt>
  <wgt id="48">6.20449e-12</wgt>
  <wgt id="49">6.09296e-12</wgt>
  <wgt id="50">6.04383e-12</wgt>
  <wgt id="51">6.07045e-12</wgt>
  <wgt id="52">6.14712e-12</wgt>
  <wgt id="53">6.27744e-12</wgt>
  <wgt id="54">6.18763e-12</wgt>
  <wgt id="55">6.11105e-12</wgt>
  <wgt id="56">6.02035e-12</wgt>
  <wgt id="57">6.03662e-12</wgt>
  <wgt id="58">6.13296e-12</wgt>
  <wgt id="59">6.16274e-12</wgt>
  <wgt id="60">6.02212e-12</wgt>
  <wgt id="61">6.13003e-12</wgt>
  <wgt id="62">6.16442e-12</wgt>
  <wgt id="63">6.12291e-12</wgt>
  <wgt id="64">6.11942e-12</wgt>
  <wgt id="65">6.07317e-12</wgt>
  <wgt id="66">6.17398e-12</wgt>
  <wgt id="67">6.19047e-12</wgt>
  <wgt id="68">6.12801e-12</wgt>
  <wgt id="69">6.11607e-12</wgt>
  <wgt id="70">6.07231e-12</wgt>
  <wgt id="71">6.16582e-12</wgt>
  <wgt id="72">6.14276e-12</wgt>
  <wgt id="73">6.11907e-12</wgt>
  <wgt id="74">6.18043e-12</wgt>
  <wgt id="75">6.07198e-12</wgt>
  <wgt id="76">6.18352e-12</wgt>
  <wgt id="77">6.11216e-12</wgt>
  <wgt id="78">6.12492e-12</wgt>
  <wgt id="79">6.14501e-12</wgt>
  <wgt id="80">6.07493e-12</wgt>
  <wgt id="81">6.11994e-12</wgt>
  <wgt id="82">6.13737e-12</wgt>
  <wgt id="83">6.07263e-12</wgt>
  <wgt id="84">6.08566e-12</wgt>
  <wgt id="85">6.08116e-12</wgt>
  <wgt id="86">6.19328e-12</wgt>
  <wgt id="87">6.03291e-12</wgt>
  <wgt id="88">6.16164e-12</wgt>
  <wgt id="89">6.15558e-12</wgt>
  <wgt id="90">6.17003e-12</wgt>
  <wgt id="91">6.13859e-12</wgt>
  <wgt id="92">6.16306e-12</wgt>
  <wgt id="93">6.14012e-12</wgt>
  <wgt id="94">6.09766e-12</wgt>
  <wgt id="95">6.16368e-12</wgt>
  <wgt id="96">6.16484e-12</wgt>
  <wgt id="97">6.08275e-12</wgt>
  <wgt id="98">6.13417e-12</wgt>
  <wgt id="99">6.12452e-12</wgt>
  <wgt id="100">6.14429e-12</wgt>
  <wgt id="101">6.1087e-12</wgt>
  <wgt id="102">6.1129e-12</wgt>
  <wgt id="103">6.16461e-12</wgt>
  <wgt id="104">6.12373e-12</wgt>
  <wgt id="105">6.16944e-12</wgt>
  <wgt id="106">6.09931e-12</wgt>
  <wgt id="107">6.19158e-12</wgt>
  <wgt id="108">6.11303e-12</wgt>
  <wgt id="109">6.12418e-12</wgt>
  <wgt id="110">6.13549e-12</wgt>
  <wgt id="111">6.05851e-12</wgt>
  <wgt id="112">6.25121e-12</wgt>
  <wgt id="113">9.21358e-12</wgt>
  <wgt id="114">7.76888e-12</wgt>
  <wgt id="115">7.60523e-12</wgt>
  <wgt id="116">1.00973e-11</wgt>
  <wgt id="117">6.61486e-12</wgt>
  <wgt id="118">6.63773e-12</wgt>
  <wgt id="119">6.60142e-12</wgt>
  <wgt id="120">6.61479e-12</wgt>
  <wgt id="121">6.61462e-12</wgt>
  <wgt id="122">6.60482e-12</wgt>
  <wgt id="123">6.62852e-12</wgt>
  <wgt id="124">6.60604e-12</wgt>
  <wgt id="125">6.61996e-12</wgt>
  <wgt id="126">6.62065e-12</wgt>
  <wgt id="127">6.61107e-12</wgt>
  <wgt id="128">6.63432e-12</wgt>
  <wgt id="129">6.59543e-12</wgt>
  <wgt id="130">6.64026e-12</wgt>
  <wgt id="131">6.58772e-12</wgt>
  <wgt id="132">6.42717e-12</wgt>
  <wgt id="133">6.83854e-12</wgt>
  <wgt id="134">6.54755e-12</wgt>
  <wgt id="135">6.66735e-12</wgt>
  <wgt id="136">6.72729e-12</wgt>
  <wgt id="137">6.47973e-12</wgt>
  <wgt id="138">6.94548e-12</wgt>
  <wgt id="139">6.305e-12</wgt>
  <wgt id="140">6.59379e-12</wgt>
  <wgt id="141">6.62917e-12</wgt>
  <wgt id="142">6.61136e-12</wgt>
  <wgt id="143">6.64202e-12</wgt>
  <wgt id="144">6.27888e-12</wgt>
  <wgt id="145">6.95099e-12</wgt>
  <wgt id="146">6.7262e-12</wgt>
  <wgt id="147">6.52187e-12</wgt>
  <wgt id="148">6.63998e-12</wgt>
  <wgt id="149">6.61284e-12</wgt>
  <wgt id="150">6.66734e-12</wgt>
  <wgt id="151">6.58991e-12</wgt>
  <wgt id="152">6.61481e-12</wgt>
  <wgt id="153">6.6145e-12</wgt>
  <wgt id="154">6.59645e-12</wgt>
  <wgt id="155">6.61256e-12</wgt>
  <wgt id="156">6.91083e-12</wgt>
  <wgt id="157">6.36081e-12</wgt>
  <wgt id="158">7.8849e-12</wgt>
  <wgt id="159">7.91896e-12</wgt>
  <wgt id="160">7.8572e-12</wgt>
  <wgt id="161">7.86612e-12</wgt>
  <wgt id="162">7.90522e-12</wgt>
  <wgt id="163">7.87683e-12</wgt>
  <wgt id="164">7.89687e-12</wgt>
  <wgt id="165">7.88797e-12</wgt>
  <wgt id="166">7.88257e-12</wgt>
  <wgt id="167">7.87921e-12</wgt>
  <wgt id="168">7.89261e-12</wgt>
  <wgt id="169">7.8522e-12</wgt>
  <wgt id="170">7.90516e-12</wgt>
  <wgt id="171">7.88283e-12</wgt>
  <wgt id="172">7.88779e-12</wgt>
  <wgt id="173">7.85848e-12</wgt>
  <wgt id="174">7.89407e-12</wgt>
  <wgt id="175">7.65924e-12</wgt>
  <wgt id="176">8.18042e-12</wgt>
  <wgt id="177">7.91181e-12</wgt>
  <wgt id="178">7.86081e-12</wgt>
  <wgt id="179">8.3356e-12</wgt>
  <wgt id="180">7.2024e-12</wgt>
  <wgt id="181">7.60218e-12</wgt>
  <wgt id="182">8.07488e-12</wgt>
  <wgt id="183">7.71372e-12</wgt>
  <wgt id="184">7.96973e-12</wgt>
  <wgt id="185">7.78197e-12</wgt>
  <wgt id="186">8.00839e-12</wgt>
  <wgt id="187">7.77875e-12</wgt>
  <wgt id="188">8.0686e-12</wgt>
  <wgt id="189">7.81633e-12</wgt>
  <wgt id="190">7.91273e-12</wgt>
  <wgt id="191">7.91885e-12</wgt>
  <wgt id="192">7.8646e-12</wgt>
  <wgt id="193">8.02769e-12</wgt>
  <wgt id="194">7.81197e-12</wgt>
  <wgt id="195">7.53565e-12</wgt>
  <wgt id="196">8.43235e-12</wgt>
  <wgt id="197">7.92628e-12</wgt>
  <wgt id="198">7.87492e-12</wgt>
  <wgt id="199">7.8849e-12</wgt>
  <wgt id="200">7.96625e-12</wgt>
  <wgt id="201">7.94092e-12</wgt>
  <wgt id="202">7.91435e-12</wgt>
  <wgt id="203">7.88075e-12</wgt>
  <wgt id="204">7.86194e-12</wgt>
  <wgt id="205">7.84641e-12</wgt>
  <wgt id="206">7.78326e-12</wgt>
  <wgt id="207">7.83019e-12</wgt>
  <wgt id="208">7.73673e-12</wgt>
  <wgt id="209">7.80219e-12</wgt>
  <wgt id="210">7.76931e-12</wgt>
  <wgt id="211">7.78115e-12</wgt>
  <wgt id="212">7.78452e-12</wgt>
  <wgt id="213">7.78236e-12</wgt>
  <wgt id="214">7.78373e-12</wgt>
  <wgt id="215">7.78791e-12</wgt>
  <wgt id="216">7.77973e-12</wgt>
  <wgt id="217">7.79544e-12</wgt>
  <wgt id="218">7.77359e-12</wgt>
  <wgt id="219">7.76851e-12</wgt>
  <wgt id="220">7.79202e-12</wgt>
  <wgt id="221">7.79179e-12</wgt>
  <wgt id="222">7.75941e-12</wgt>
  <wgt id="223">7.32395e-12</wgt>
  <wgt id="224">8.2058e-12</wgt>
  <wgt id="225">7.68859e-12</wgt>
  <wgt id="226">7.90409e-12</wgt>
  <wgt id="227">7.70982e-12</wgt>
  <wgt id="228">7.8153e-12</wgt>
  <wgt id="229">7.67108e-12</wgt>
  <wgt id="230">7.83856e-12</wgt>
  <wgt id="231">8.07971e-12</wgt>
  <wgt id="232">7.542e-12</wgt>
  <wgt id="233">7.72369e-12</wgt>
  <wgt id="234">7.88528e-12</wgt>
  <wgt id="235">7.32732e-12</wgt>
  <wgt id="236">8.14578e-12</wgt>
  <wgt id="237">7.53105e-12</wgt>
  <wgt id="238">7.86678e-12</wgt>
  <wgt id="239">7.6835e-12</wgt>
  <wgt id="240">7.96113e-12</wgt>
  <wgt id="241">7.67593e-12</wgt>
  <wgt id="242">7.90678e-12</wgt>
  <wgt id="243">7.95049e-12</wgt>
  <wgt id="244">7.74668e-12</wgt>
  <wgt id="245">7.78302e-12</wgt>
  <wgt id="246">7.80898e-12</wgt>
  <wgt id="247">7.78326e-12</wgt>
  <wgt id="248">7.87689e-12</wgt>
  <wgt id="249">7.84704e-12</wgt>
  <wgt id="250">7.81155e-12</wgt>
  <wgt id="251">7.76921e-12</wgt>
  <wgt id="252">7.74532e-12</wgt>
  <wgt id="253">7.72988e-12</wgt>
  <wgt id="254">7.41578e-12</wgt>
  <wgt id="255">7.42168e-12</wgt>
  <wgt id="256">7.40957e-12</wgt>
  <wgt id="257">7.42175e-12</wgt>
  <wgt id="258">7.41123e-12</wgt>
  <wgt id="259">7.46481e-12</wgt>
  <wgt id="260">7.36801e-12</wgt>
  <wgt id="261">7.4252e-12</wgt>
  <wgt id="262">7.40416e-12</wgt>
  <wgt id="263">7.40949e-12</wgt>
  <wgt id="264">7.4229e-12</wgt>
  <wgt id="265">7.40755e-12</wgt>
  <wgt id="266">7.43183e-12</wgt>
  <wgt id="267">7.41817e-12</wgt>
  <wgt id="268">7.41266e-12</wgt>
  <wgt id="269">7.43532e-12</wgt>
  <wgt id="270">7.40247e-12</wgt>
  <wgt id="271">7.38778e-12</wgt>
  <wgt id="272">7.44669e-12</wgt>
  <wgt id="273">7.39989e-12</wgt>
  <wgt id="274">7.42755e-12</wgt>
  <wgt id="275">7.35947e-12</wgt>
  <wgt id="276">7.47389e-12</wgt>
  <wgt id="277">7.3748e-12</wgt>
  <wgt id="278">7.45318e-12</wgt>
  <wgt id="279">7.28902e-12</wgt>
  <wgt id="280">7.57603e-12</wgt>
  <wgt id="281">7.37687e-12</wgt>
  <wgt id="282">7.43845e-12</wgt>
  <wgt id="283">7.15189e-12</wgt>
  <wgt id="284">7.74887e-12</wgt>
  <wgt id="285">6.97841e-12</wgt>
  <wgt id="286">7.79189e-12</wgt>
  <wgt id="287">7.44457e-12</wgt>
  <wgt id="288">7.37873e-12</wgt>
  <wgt id="289">7.48135e-12</wgt>
  <wgt id="290">7.27645e-12</wgt>
  <wgt id="291">7.38386e-12</wgt>
  <wgt id="292">7.40878e-12</wgt>
  <wgt id="293">7.34409e-12</wgt>
  <wgt id="294">7.48672e-12</wgt>
  <wgt id="295">7.24162e-12</wgt>
  <wgt id="296">7.62891e-12</wgt>
  <wgt id="297">7.3825e-12</wgt>
  <wgt id="298">7.45936e-12</wgt>
  <wgt id="299">7.38948e-12</wgt>
  <wgt id="300">7.48505e-12</wgt>
  <wgt id="301">7.2235e-12</wgt>
  <wgt id="302">7.83578e-12</wgt>
  <wgt id="303">7.31092e-12</wgt>
  <wgt id="304">7.47341e-12</wgt>
  <wgt id="305">7.26951e-12</wgt>
  <wgt id="306">7.27527e-12</wgt>
  <wgt id="307">7.26323e-12</wgt>
  <wgt id="308">7.276e-12</wgt>
  <wgt id="309">7.26517e-12</wgt>
  <wgt id="310">7.31877e-12</wgt>
  <wgt id="311">7.22388e-12</wgt>
  <wgt id="312">7.27904e-12</wgt>
  <wgt id="313">7.25936e-12</wgt>
  <wgt id="314">7.26262e-12</wgt>
  <wgt id="315">7.27628e-12</wgt>
  <wgt id="316">7.26093e-12</wgt>
  <wgt id="317">7.2881e-12</wgt>
  <wgt id="318">7.27464e-12</wgt>
  <wgt id="319">7.26083e-12</wgt>
  <wgt id="320">7.29104e-12</wgt>
  <wgt id="321">7.25791e-12</wgt>
  <wgt id="322">7.24184e-12</wgt>
  <wgt id="323">7.30204e-12</wgt>
  <wgt id="324">7.26096e-12</wgt>
  <wgt id="325">7.27724e-12</wgt>
  <wgt id="326">7.22265e-12</wgt>
  <wgt id="327">7.33005e-12</wgt>
  <wgt id="328">7.23387e-12</wgt>
  <wgt id="329">7.28934e-12</wgt>
  <wgt id="330">7.46164e-12</wgt>
  <wgt id="331">7.08753e-12</wgt>
  <wgt id="332">7.2371e-12</wgt>
  <wgt id="333">7.28558e-12</wgt>
  <wgt id="334">7.07491e-12</wgt>
  <wgt id="335">7.51584e-12</wgt>
  <wgt id="336">6.96736e-12</wgt>
  <wgt id="337">7.64986e-12</wgt>
  <wgt id="338">7.3669e-12</wgt>
  <wgt id="339">7.18063e-12</wgt>
  <wgt id="340">7.32622e-12</wgt>
  <wgt id="341">7.13513e-12</wgt>
  <wgt id="342">7.24861e-12</wgt>
  <wgt id="343">7.24521e-12</wgt>
  <wgt id="344">7.20919e-12</wgt>
  <wgt id="345">7.33994e-12</wgt>
  <wgt id="346">7.09562e-12</wgt>
  <wgt id="347">7.46756e-12</wgt>
  <wgt id="348">7.23712e-12</wgt>
  <wgt id="349">7.31007e-12</wgt>
  <wgt id="350">7.2381e-12</wgt>
  <wgt id="351">7.35006e-12</wgt>
  <wgt id="352">7.08553e-12</wgt>
  <wgt id="353">7.65633e-12</wgt>
  <wgt id="354">7.1293e-12</wgt>
  <wgt id="355">7.35117e-12</wgt>
  <wgt id="356">7.41578e-12</wgt>
  <wgt id="357">7.25344e-12</wgt>
  <wgt id="358">7.26951e-12</wgt>
  <wgt id="359">7.38876e-12</wgt>
  <wgt id="360">7.61616e-12</wgt>
  <wgt id="361">7.46706e-12</wgt>
  <wgt id="362">7.63135e-12</wgt>
  <wgt id="363">7.61095e-12</wgt>
  <wgt id="364">7.56424e-12</wgt>
  <wgt id="365">7.53336e-12</wgt>
  <wgt id="366">7.50333e-12</wgt>
  <wgt id="367">7.45135e-12</wgt>
  <wgt id="368">7.41331e-12</wgt>
  <wgt id="369">7.37214e-12</wgt>
  <wgt id="370">7.46706e-12</wgt>
  <wgt id="371">7.49492e-12</wgt>
  <wgt id="372">7.47897e-12</wgt>
  <wgt id="373">7.45828e-12</wgt>
  <wgt id="374">7.47859e-12</wgt>
  <wgt id="375">9.12665e-12</wgt>
  <wgt id="376">9.12606e-12</wgt>
  <wgt id="377">9.12727e-12</wgt>
  <wgt id="378">9.16287e-12</wgt>
  <wgt id="379">9.0907e-12</wgt>
  <wgt id="380">9.15432e-12</wgt>
  <wgt id="381">9.11518e-12</wgt>
  <wgt id="382">9.15968e-12</wgt>
  <wgt id="383">9.09365e-12</wgt>
  <wgt id="384">9.13238e-12</wgt>
  <wgt id="385">9.12096e-12</wgt>
  <wgt id="386">9.14414e-12</wgt>
  <wgt id="387">9.11915e-12</wgt>
  <wgt id="388">9.1201e-12</wgt>
  <wgt id="389">9.13431e-12</wgt>
  <wgt id="390">9.14132e-12</wgt>
  <wgt id="391">9.11091e-12</wgt>
  <wgt id="392">9.04103e-12</wgt>
  <wgt id="393">9.17515e-12</wgt>
  <wgt id="394">9.12649e-12</wgt>
  <wgt id="395">9.12635e-12</wgt>
  <wgt id="396">9.14859e-12</wgt>
  <wgt id="397">9.11056e-12</wgt>
  <wgt id="398">9.13552e-12</wgt>
  <wgt id="399">9.11826e-12</wgt>
  <wgt id="400">9.11508e-12</wgt>
  <wgt id="401">9.15158e-12</wgt>
  <wgt id="402">9.03123e-12</wgt>
  <wgt id="403">9.20346e-12</wgt>
  <wgt id="404">9.44038e-12</wgt>
  <wgt id="405">8.38908e-12</wgt>
  <wgt id="406">8.89724e-12</wgt>
  <wgt id="407">9.6434e-12</wgt>
  <wgt id="408">9.24579e-12</wgt>
  <wgt id="409">8.91105e-12</wgt>
  <wgt id="410">8.76055e-12</wgt>
  <wgt id="411">9.30733e-12</wgt>
  <wgt id="412">9.10183e-12</wgt>
  <wgt id="413">9.16096e-12</wgt>
  <wgt id="414">8.98128e-12</wgt>
  <wgt id="415">9.23907e-12</wgt>
  <wgt id="416">9.50808e-12</wgt>
  <wgt id="417">8.60695e-12</wgt>
  <wgt id="418">9.15102e-12</wgt>
  <wgt id="419">8.99288e-12</wgt>
  <wgt id="420">9.43269e-12</wgt>
  <wgt id="421">8.91032e-12</wgt>
  <wgt id="422">9.02648e-12</wgt>
  <wgt id="423">9.17086e-12</wgt>
  <wgt id="424">9.48833e-12</wgt>
  <wgt id="425">8.87103e-12</wgt>
  <wgt id="426">9.12665e-12</wgt>
  <wgt id="427">8.84478e-12</wgt>
  <wgt id="428">9.72213e-12</wgt>
  <wgt id="429">9.29292e-12</wgt>
  <wgt id="430">9.64902e-12</wgt>
  <wgt id="431">9.57418e-12</wgt>
  <wgt id="432">9.51043e-12</wgt>
  <wgt id="433">9.44667e-12</wgt>
  <wgt id="434">9.36181e-12</wgt>
  <wgt id="435">9.20779e-12</wgt>
  <wgt id="436">9.13134e-12</wgt>
  <wgt id="437">9.05504e-12</wgt>
  <wgt id="438">9.29292e-12</wgt>
  <wgt id="439">9.31838e-12</wgt>
  <wgt id="440">9.30144e-12</wgt>
  <wgt id="441">9.28853e-12</wgt>
  <wgt id="442">9.28527e-12</wgt>
  <wgt id="443">7.7535e-12</wgt>
  <wgt id="444">7.86854e-12</wgt>
  <wgt id="445">7.93088e-12</wgt>
  <wgt id="446">7.69612e-12</wgt>
  <wgt id="447">7.75888e-12</wgt>
  <wgt id="448">7.59096e-12</wgt>
  <wgt id="449">7.96938e-12</wgt>
  <wgt id="450">7.94434e-12</wgt>
  <wgt id="451">7.72769e-12</wgt>
  <wgt id="452">7.91032e-12</wgt>
  <wgt id="453">7.90537e-12</wgt>
  <wgt id="454">7.28364e-12</wgt>
  <wgt id="455">7.86687e-12</wgt>
  <wgt id="456">8.01595e-12</wgt>
  <wgt id="457">7.77419e-12</wgt>
  <wgt id="458">7.93264e-12</wgt>
  <wgt id="459">7.82838e-12</wgt>
  <wgt id="460">8.01378e-12</wgt>
  <wgt id="461">7.53157e-12</wgt>
  <wgt id="462">7.70058e-12</wgt>
  <wgt id="463">7.60218e-12</wgt>
  <wgt id="464">7.72055e-12</wgt>
  <wgt id="465">7.83215e-12</wgt>
  <wgt id="466">7.45932e-12</wgt>
  <wgt id="467">7.70999e-12</wgt>
  <wgt id="468">7.76866e-12</wgt>
  <wgt id="469">7.72816e-12</wgt>
  <wgt id="470">7.58911e-12</wgt>
  <wgt id="471">7.62342e-12</wgt>
  <wgt id="472">7.82531e-12</wgt>
  <wgt id="473">7.47877e-12</wgt>
  <wgt id="474">5.79e-12</wgt>
  <wgt id="475">5.82195e-12</wgt>
  <wgt id="476">5.86978e-12</wgt>
  <wgt id="477">6.094e-12</wgt>
  <wgt id="478">6.02837e-12</wgt>
  <wgt id="479">5.21301e-12</wgt>
  <wgt id="480">6.28842e-12</wgt>
  <wgt id="481">5.91257e-12</wgt>
  <wgt id="482">6.02316e-12</wgt>
  <wgt id="483">6.29523e-12</wgt>
  <wgt id="484">6.12373e-12</wgt>
  <wgt id="485">5.09293e-12</wgt>
  <wgt id="486">6.12128e-12</wgt>
  <wgt id="487">5.46816e-12</wgt>
  <wgt id="488">5.68092e-12</wgt>
  <wgt id="489">4.80245e-12</wgt>
  <wgt id="490">5.85835e-12</wgt>
  <wgt id="491">5.66577e-12</wgt>
  <wgt id="492">5.70737e-12</wgt>
  <wgt id="493">5.02423e-12</wgt>
  <wgt id="494">5.00142e-12</wgt>
  <wgt id="495">5.98046e-12</wgt>
  <wgt id="496">5.23338e-12</wgt>
  <wgt id="497">5.27886e-12</wgt>
  <wgt id="498">5.90888e-12</wgt>
  <wgt id="499">5.97138e-12</wgt>
  <wgt id="500">6.03022e-12</wgt>
  <wgt id="501">6.10129e-12</wgt>
  <wgt id="502">6.48126e-12</wgt>
  <wgt id="503">5.59291e-12</wgt>
  <wgt id="504">6.06365e-12</wgt>
  <wgt id="505">6.28232e-12</wgt>
  <wgt id="506">4.9746e-12</wgt>
  <wgt id="507">5.37468e-12</wgt>
  <wgt id="508">6.1687e-12</wgt>
  <wgt id="509">5.79504e-12</wgt>
  <wgt id="510">5.7151e-12</wgt>
  <wgt id="511">5.42712e-12</wgt>
  <wgt id="512">6.43201e-12</wgt>
  <wgt id="513">6.28669e-12</wgt>
  <wgt id="514">6.4858e-12</wgt>
  <wgt id="515">6.3311e-12</wgt>
  <wgt id="516">6.70608e-12</wgt>
  <wgt id="517">5.92365e-12</wgt>
  <wgt id="518">6.19245e-12</wgt>
  <wgt id="519">5.56939e-12</wgt>
  <wgt id="520">5.66553e-12</wgt>
  <wgt id="521">5.34863e-12</wgt>
  <wgt id="522">5.8741e-12</wgt>
  <wgt id="523">5.48157e-12</wgt>
  <wgt id="524">6.17934e-12</wgt>
  <wgt id="525">5.47088e-12</wgt>
  <wgt id="526">6.40013e-12</wgt>
  <wgt id="527">5.66203e-12</wgt>
  <wgt id="528">5.6033e-12</wgt>
  <wgt id="529">5.08878e-12</wgt>
  <wgt id="530">6.2763e-12</wgt>
  <wgt id="531">5.43129e-12</wgt>
  <wgt id="532">6.31592e-12</wgt>
  <wgt id="533">6.07339e-12</wgt>
  <wgt id="534">5.28645e-12</wgt>
  <wgt id="535">6.09781e-12</wgt>
  <wgt id="536">6.20252e-12</wgt>
  <wgt id="537">5.17836e-12</wgt>
  <wgt id="538">5.65823e-12</wgt>
  <wgt id="539">5.65267e-12</wgt>
  <wgt id="540">5.88016e-12</wgt>
  <wgt id="541">5.73682e-12</wgt>
  <wgt id="542">5.45614e-12</wgt>
  <wgt id="543">5.3371e-12</wgt>
  <wgt id="544">5.70596e-12</wgt>
  <wgt id="545">5.26073e-12</wgt>
  <wgt id="546">5.09559e-12</wgt>
  <wgt id="547">5.4321e-12</wgt>
  <wgt id="548">5.8129e-12</wgt>
  <wgt id="549">5.68882e-12</wgt>
  <wgt id="550">5.19628e-12</wgt>
  <wgt id="551">5.60876e-12</wgt>
  <wgt id="552">5.52173e-12</wgt>
  <wgt id="553">5.06403e-12</wgt>
  <wgt id="554">5.91982e-12</wgt>
  <wgt id="555">5.83533e-12</wgt>
  <wgt id="556">5.85835e-12</wgt>
  <wgt id="557">5.72589e-12</wgt>
  <wgt id="558">5.80321e-12</wgt>
  <wgt id="559">6.0609e-12</wgt>
  <wgt id="560">6.3489e-12</wgt>
  <wgt id="561">6.33154e-12</wgt>
  <wgt id="562">6.07707e-12</wgt>
  <wgt id="563">6.35226e-12</wgt>
  <wgt id="564">6.34943e-12</wgt>
  <wgt id="565">6.49831e-12</wgt>
  <wgt id="566">5.1797e-12</wgt>
  <wgt id="567">5.94045e-12</wgt>
  <wgt id="568">5.27103e-12</wgt>
  <wgt id="569">5.94645e-12</wgt>
  <wgt id="570">6.20935e-12</wgt>
  <wgt id="571">6.45332e-12</wgt>
  <wgt id="572">5.38577e-12</wgt>
  <wgt id="573">5.64555e-12</wgt>
  <wgt id="574">5.76114e-12</wgt>
  <wgt id="575">6.31719e-12</wgt>
  <wgt id="576">7.29018e-12</wgt>
  <wgt id="577">6.326e-12</wgt>
  <wgt id="578">6.04199e-12</wgt>
  <wgt id="579">6.60167e-12</wgt>
  <wgt id="580">6.61228e-12</wgt>
  <wgt id="581">6.98441e-12</wgt>
  <wgt id="582">7.04864e-12</wgt>
  <wgt id="583">6.71423e-12</wgt>
  <wgt id="584">6.29951e-12</wgt>
  <wgt id="585">5.61347e-12</wgt>
  <wgt id="586">5.83691e-12</wgt>
  <wgt id="587">6.49234e-12</wgt>
  <wgt id="588">7.66238e-12</wgt>
  <wgt id="589">7.38747e-12</wgt>
  <wgt id="590">6.44766e-12</wgt>
  <wgt id="591">6.50426e-12</wgt>
  <wgt id="592">6.06746e-12</wgt>
  <wgt id="593">6.00476e-12</wgt>
  <wgt id="594">5.76893e-12</wgt>
  <wgt id="595">7.12115e-12</wgt>
  <wgt id="596">7.41035e-12</wgt>
  <wgt id="597">6.52483e-12</wgt>
  <wgt id="598">6.70791e-12</wgt>
  <wgt id="599">7.02254e-12</wgt>
  <wgt id="600">7.4729e-12</wgt>
  <wgt id="601">5.98904e-12</wgt>
  <wgt id="602">5.88284e-12</wgt>
  <wgt id="603">5.57056e-12</wgt>
  <wgt id="604">6.70129e-12</wgt>
  <wgt id="605">6.11503e-12</wgt>
  <wgt id="606">6.24215e-12</wgt>
  <wgt id="607">6.93815e-12</wgt>
  <wgt id="608">6.5685e-12</wgt>
  <wgt id="609">6.1936e-12</wgt>
  <wgt id="610">5.83838e-12</wgt>
  <wgt id="611">5.74649e-12</wgt>
  <wgt id="612">6.21401e-12</wgt>
  <wgt id="613">5.80027e-12</wgt>
  <wgt id="614">6.37532e-12</wgt>
  <wgt id="615">6.77379e-12</wgt>
  <wgt id="616">5.40648e-12</wgt>
  <wgt id="617">6.68618e-12</wgt>
  <wgt id="618">7.07289e-12</wgt>
  <wgt id="619">6.1614e-12</wgt>
  <wgt id="620">6.4456e-12</wgt>
  <wgt id="621">6.22154e-12</wgt>
  <wgt id="622">6.49234e-12</wgt>
  <wgt id="623">6.18996e-12</wgt>
  <wgt id="624">6.25269e-12</wgt>
  <wgt id="625">5.88541e-12</wgt>
  <wgt id="626">4.82666e-12</wgt>
  <wgt id="627">5.37533e-12</wgt>
  <wgt id="628">6.26536e-12</wgt>
  <wgt id="629">7.4336e-12</wgt>
  <wgt id="630">6.26523e-12</wgt>
  <wgt id="631">6.78514e-12</wgt>
  <wgt id="632">5.63559e-12</wgt>
  <wgt id="633">6.25594e-12</wgt>
  <wgt id="634">5.79686e-12</wgt>
  <wgt id="635">5.78621e-12</wgt>
  <wgt id="636">6.19032e-12</wgt>
  <wgt id="637">6.44606e-12</wgt>
  <wgt id="638">5.8637e-12</wgt>
  <wgt id="639">5.76596e-12</wgt>
  <wgt id="640">5.88805e-12</wgt>
  <wgt id="641">6.81949e-12</wgt>
  <wgt id="642">5.24032e-12</wgt>
  <wgt id="643">5.99039e-12</wgt>
  <wgt id="644">5.73294e-12</wgt>
  <wgt id="645">6.36018e-12</wgt>
  <wgt id="646">5.23681e-12</wgt>
  <wgt id="647">6.75974e-12</wgt>
  <wgt id="648">6.93183e-12</wgt>
  <wgt id="649">6.43313e-12</wgt>
  <wgt id="650">6.22824e-12</wgt>
  <wgt id="651">6.70979e-12</wgt>
  <wgt id="652">5.86351e-12</wgt>
  <wgt id="653">5.94649e-12</wgt>
  <wgt id="654">6.37378e-12</wgt>
  <wgt id="655">5.72977e-12</wgt>
  <wgt id="656">6.48284e-12</wgt>
  <wgt id="657">7.13058e-12</wgt>
  <wgt id="658">6.1004e-12</wgt>
  <wgt id="659">6.1195e-12</wgt>
  <wgt id="660">5.73707e-12</wgt>
  <wgt id="661">6.01072e-12</wgt>
  <wgt id="662">6.27533e-12</wgt>
  <wgt id="663">6.61514e-12</wgt>
  <wgt id="664">6.71865e-12</wgt>
  <wgt id="665">6.07125e-12</wgt>
  <wgt id="666">6.0578e-12</wgt>
  <wgt id="667">6.70363e-12</wgt>
  <wgt id="668">6.14432e-12</wgt>
  <wgt id="669">6.05832e-12</wgt>
  <wgt id="670">6.80677e-12</wgt>
  <wgt id="671">6.55125e-12</wgt>
  <wgt id="672">6.59895e-12</wgt>
  <wgt id="673">7.13102e-12</wgt>
  <wgt id="674">6.02035e-12</wgt>
  <wgt id="675">5.85298e-12</wgt>
  <wgt id="676">8.26035e-12</wgt>
  <wgt id="677">8.27189e-12</wgt>
  <wgt id="678">9.4894e-12</wgt>
  <wgt id="679">9.39503e-12</wgt>
  <wgt id="680">8.48815e-12</wgt>
  <wgt id="681">7.81148e-12</wgt>
  <wgt id="682">8.97113e-12</wgt>
  <wgt id="683">7.02916e-12</wgt>
  <wgt id="684">9.04897e-12</wgt>
  <wgt id="685">8.553e-12</wgt>
  <wgt id="686">8.81121e-12</wgt>
  <wgt id="687">8.20086e-12</wgt>
  <wgt id="688">8.0521e-12</wgt>
  <wgt id="689">9.0318e-12</wgt>
  <wgt id="690">8.52543e-12</wgt>
  <wgt id="691">8.49926e-12</wgt>
  <wgt id="692">7.8566e-12</wgt>
  <wgt id="693">1.24637e-11</wgt>
  <wgt id="694">9.52356e-12</wgt>
  <wgt id="695">7.28207e-12</wgt>
  <wgt id="696">7.55626e-12</wgt>
  <wgt id="697">6.80684e-12</wgt>
  <wgt id="698">6.02589e-12</wgt>
  <wgt id="699">6.7992e-12</wgt>
  <wgt id="700">7.18455e-12</wgt>
  <wgt id="701">8.27948e-12</wgt>
  <wgt id="702">7.57732e-12</wgt>
  <wgt id="703">1.13738e-11</wgt>
  <wgt id="704">9.52135e-12</wgt>
  <wgt id="705">9.42549e-12</wgt>
  <wgt id="706">7.28537e-12</wgt>
  <wgt id="707">7.4691e-12</wgt>
  <wgt id="708">7.35384e-12</wgt>
  <wgt id="709">7.71826e-12</wgt>
  <wgt id="710">5.60788e-12</wgt>
  <wgt id="711">9.45352e-12</wgt>
  <wgt id="712">7.53865e-12</wgt>
  <wgt id="713">8.95246e-12</wgt>
  <wgt id="714">6.76586e-12</wgt>
  <wgt id="715">7.50123e-12</wgt>
  <wgt id="716">7.78626e-12</wgt>
  <wgt id="717">6.44207e-12</wgt>
  <wgt id="718">8.49875e-12</wgt>
  <wgt id="719">7.6614e-12</wgt>
  <wgt id="720">8.95532e-12</wgt>
  <wgt id="721">6.74953e-12</wgt>
  <wgt id="722">5.3956e-12</wgt>
  <wgt id="723">1.00219e-11</wgt>
  <wgt id="724">9.32175e-12</wgt>
  <wgt id="725">8.7337e-12</wgt>
  <wgt id="726">8.12264e-12</wgt>
  <wgt id="727">8.51143e-12</wgt>
  <wgt id="728">8.63036e-12</wgt>
  <wgt id="729">6.56701e-12</wgt>
  <wgt id="730">9.68155e-12</wgt>
  <wgt id="731">8.19583e-12</wgt>
  <wgt id="732">1.00515e-11</wgt>
  <wgt id="733">7.33295e-12</wgt>
  <wgt id="734">8.6596e-12</wgt>
  <wgt id="735">7.87119e-12</wgt>
  <wgt id="736">7.24554e-12</wgt>
  <wgt id="737">6.26489e-12</wgt>
  <wgt id="738">7.68516e-12</wgt>
  <wgt id="739">8.42877e-12</wgt>
  <wgt id="740">1.06104e-11</wgt>
  <wgt id="741">9.62212e-12</wgt>
  <wgt id="742">7.08417e-12</wgt>
  <wgt id="743">7.38895e-12</wgt>
  <wgt id="744">7.88164e-12</wgt>
  <wgt id="745">9.61825e-12</wgt>
  <wgt id="746">9.96457e-12</wgt>
  <wgt id="747">6.38552e-12</wgt>
  <wgt id="748">7.73222e-12</wgt>
  <wgt id="749">8.78688e-12</wgt>
  <wgt id="750">9.22392e-12</wgt>
  <wgt id="751">8.39804e-12</wgt>
  <wgt id="752">7.16816e-12</wgt>
  <wgt id="753">7.00959e-12</wgt>
  <wgt id="754">8.71241e-12</wgt>
  <wgt id="755">7.77318e-12</wgt>
  <wgt id="756">7.7557e-12</wgt>
  <wgt id="757">6.63875e-12</wgt>
  <wgt id="758">7.91533e-12</wgt>
  <wgt id="759">9.08559e-12</wgt>
  <wgt id="760">7.41307e-12</wgt>
  <wgt id="761">9.7659e-12</wgt>
  <wgt id="762">9.8837e-12</wgt>
  <wgt id="763">9.18628e-12</wgt>
  <wgt id="764">9.31793e-12</wgt>
  <wgt id="765">8.61956e-12</wgt>
  <wgt id="766">8.67651e-12</wgt>
  <wgt id="767">8.60735e-12</wgt>
  <wgt id="768">7.15568e-12</wgt>
  <wgt id="769">8.56621e-12</wgt>
  <wgt id="770">6.89499e-12</wgt>
  <wgt id="771">1.08752e-11</wgt>
  <wgt id="772">7.92524e-12</wgt>
  <wgt id="773">8.60329e-12</wgt>
  <wgt id="774">6.12874e-12</wgt>
  <wgt id="775">8.82675e-12</wgt>
  <wgt id="776">1.08696e-11</wgt>
  <wgt id="777">6.34566e-12</wgt>
  <wgt id="778">4.44694e-12</wgt>
  <wgt id="779">1.37767e-12</wgt>
  <wgt id="780">3.338e-20</wgt>
  <wgt id="781">4.73152e-12</wgt>
  <wgt id="782">5.65361e-12</wgt>
  <wgt id="783">1.4988e-13</wgt>
  <wgt id="784">1.53117e-12</wgt>
  <wgt id="785">7.92467e-12</wgt>
  <wgt id="786">3.32493e-20</wgt>
  <wgt id="787">7.03685e-12</wgt>
  <wgt id="788">3.24897e-20</wgt>
  <wgt id="789">1.35394e-12</wgt>
  <wgt id="790">3.71175e-13</wgt>
  <wgt id="791">5.65581e-12</wgt>
  <wgt id="792">6.42412e-12</wgt>
  <wgt id="793">3.17116e-12</wgt>
  <wgt id="794">3.30788e-20</wgt>
  <wgt id="795">7.6999e-12</wgt>
  <wgt id="796">7.87572e-12</wgt>
  <wgt id="797">6.51388e-12</wgt>
  <wgt id="798">2.2646e-12</wgt>
  <wgt id="799">7.21917e-12</wgt>
  <wgt id="800">2.42672e-12</wgt>
  <wgt id="801">5.70107e-12</wgt>
  <wgt id="802">3.76187e-14</wgt>
  <wgt id="803">8.08259e-12</wgt>
  <wgt id="804">8.08997e-12</wgt>
  <wgt id="805">7.44492e-12</wgt>
  <wgt id="806">5.69623e-12</wgt>
  <wgt id="807">4.62323e-12</wgt>
  <wgt id="808">4.72948e-12</wgt>
  <wgt id="809">3.5414e-12</wgt>
  <wgt id="810">8.40832e-12</wgt>
  <wgt id="811">4.97174e-12</wgt>
  <wgt id="812">1.92737e-13</wgt>
  <wgt id="813">6.37687e-13</wgt>
  <wgt id="814">2.05989e-12</wgt>
  <wgt id="815">4.58417e-13</wgt>
  <wgt id="816">1.24168e-12</wgt>
  <wgt id="817">4.93389e-12</wgt>
  <wgt id="818">7.50729e-12</wgt>
  <wgt id="819">1.21693e-12</wgt>
  <wgt id="820">3.67714e-12</wgt>
  <wgt id="821">6.25301e-12</wgt>
  <wgt id="822">2.86891e-12</wgt>
  <wgt id="823">7.12966e-12</wgt>
  <wgt id="824">7.3035e-12</wgt>
  <wgt id="825">3.31112e-20</wgt>
  <wgt id="826">7.51725e-12</wgt>
  <wgt id="827">3.3566e-20</wgt>
  <wgt id="828">6.26963e-12</wgt>
  <wgt id="829">4.80996e-12</wgt>
  <wgt id="830">3.33443e-20</wgt>
  <wgt id="831">6.43434e-12</wgt>
  <wgt id="832">1.01362e-11</wgt>
  <wgt id="833">2.74956e-12</wgt>
  <wgt id="834">1.02341e-11</wgt>
  <wgt id="835">1.60158e-12</wgt>
  <wgt id="836">2.44688e-12</wgt>
  <wgt id="837">6.1121e-12</wgt>
  <wgt id="838">2.29677e-12</wgt>
  <wgt id="839">6.74327e-12</wgt>
  <wgt id="840">3.45711e-12</wgt>
  <wgt id="841">7.52496e-12</wgt>
  <wgt id="842">5.04634e-12</wgt>
  <wgt id="843">4.77313e-12</wgt>
  <wgt id="844">5.94956e-12</wgt>
  <wgt id="845">1.08578e-11</wgt>
  <wgt id="846">3.19191e-12</wgt>
  <wgt id="847">5.5141e-12</wgt>
  <wgt id="848">3.99586e-13</wgt>
  <wgt id="849">5.91187e-12</wgt>
  <wgt id="850">9.23539e-12</wgt>
  <wgt id="851">6.33254e-12</wgt>
  <wgt id="852">3.39053e-20</wgt>
  <wgt id="853">6.71025e-12</wgt>
  <wgt id="854">8.27065e-12</wgt>
  <wgt id="855">6.21786e-12</wgt>
  <wgt id="856">3.32241e-20</wgt>
  <wgt id="857">2.77746e-12</wgt>
  <wgt id="858">4.89908e-12</wgt>
  <wgt id="859">4.3673e-12</wgt>
  <wgt id="860">6.35275e-12</wgt>
  <wgt id="861">2.70719e-12</wgt>
  <wgt id="862">5.07851e-12</wgt>
  <wgt id="863">6.21826e-12</wgt>
  <wgt id="864">4.5893e-12</wgt>
  <wgt id="865">9.25659e-12</wgt>
  <wgt id="866">9.94984e-12</wgt>
  <wgt id="867">4.54852e-12</wgt>
  <wgt id="868">5.5293e-12</wgt>
  <wgt id="869">3.3146e-13</wgt>
  <wgt id="870">1.94992e-12</wgt>
  <wgt id="871">2.84359e-12</wgt>
  <wgt id="872">8.97624e-12</wgt>
  <wgt id="873">2.84823e-12</wgt>
  <wgt id="874">5.80734e-12</wgt>
  <wgt id="875">2.14536e-12</wgt>
  <wgt id="876">8.1658e-12</wgt>
  <wgt id="877">5.81331e-12</wgt>
  <wgt id="878">2.91773e-12</wgt>
  <wgt id="879">8.26035e-12</wgt>
  <wgt id="880">8.27189e-12</wgt>
  <wgt id="881">9.4894e-12</wgt>
  <wgt id="882">9.39503e-12</wgt>
  <wgt id="883">8.48815e-12</wgt>
  <wgt id="884">7.81148e-12</wgt>
  <wgt id="885">8.97113e-12</wgt>
  <wgt id="886">7.02916e-12</wgt>
  <wgt id="887">9.04897e-12</wgt>
  <wgt id="888">8.553e-12</wgt>
  <wgt id="889">8.81121e-12</wgt>
  <wgt id="890">8.20086e-12</wgt>
  <wgt id="891">8.0521e-12</wgt>
  <wgt id="892">9.0318e-12</wgt>
  <wgt id="893">8.52543e-12</wgt>
  <wgt id="894">8.49926e-12</wgt>
  <wgt id="895">7.8566e-12</wgt>
  <wgt id="896">1.24637e-11</wgt>
  <wgt id="897">9.52356e-12</wgt>
  <wgt id="898">7.28207e-12</wgt>
  <wgt id="899">7.55626e-12</wgt>
  <wgt id="900">6.80684e-12</wgt>
  <wgt id="901">6.02589e-12</wgt>
  <wgt id="902">6.7992e-12</wgt>
  <wgt id="903">7.18455e-12</wgt>
  <wgt id="904">8.27948e-12</wgt>
  <wgt id="905">7.57732e-12</wgt>
  <wgt id="906">1.13738e-11</wgt>
  <wgt id="907">9.52135e-12</wgt>
  <wgt id="908">9.42549e-12</wgt>
  <wgt id="909">7.28537e-12</wgt>
  <wgt id="910">7.4691e-12</wgt>
  <wgt id="911">7.35384e-12</wgt>
  <wgt id="912">7.71826e-12</wgt>
  <wgt id="913">5.60788e-12</wgt>
  <wgt id="914">9.45352e-12</wgt>
  <wgt id="915">7.53865e-12</wgt>
  <wgt id="916">8.95246e-12</wgt>
  <wgt id="917">6.76586e-12</wgt>
  <wgt id="918">7.50123e-12</wgt>
  <wgt id="919">7.78626e-12</wgt>
  <wgt id="920">6.44207e-12</wgt>
  <wgt id="921">8.49875e-12</wgt>
  <wgt id="922">7.6614e-12</wgt>
  <wgt id="923">8.95532e-12</wgt>
  <wgt id="924">6.74953e-12</wgt>
  <wgt id="925">5.3956e-12</wgt>
  <wgt id="926">1.00219e-11</wgt>
  <wgt id="927">9.32175e-12</wgt>
  <wgt id="928">8.7337e-12</wgt>
  <wgt id="929">8.12264e-12</wgt>
  <wgt id="930">8.51143e-12</wgt>
  <wgt id="931">8.63036e-12</wgt>
  <wgt id="932">6.56701e-12</wgt>
  <wgt id="933">9.68155e-12</wgt>
  <wgt id="934">8.19583e-12</wgt>
  <wgt id="935">1.00515e-11</wgt>
  <wgt id="936">7.33295e-12</wgt>
  <wgt id="937">8.6596e-12</wgt>
  <wgt id="938">7.87119e-12</wgt>
  <wgt id="939">7.24554e-12</wgt>
  <wgt id="940">6.26489e-12</wgt>
  <wgt id="941">7.68516e-12</wgt>
  <wgt id="942">8.42877e-12</wgt>
  <wgt id="943">1.06104e-11</wgt>
  <wgt id="944">9.62212e-12</wgt>
  <wgt id="945">7.08417e-12</wgt>
  <wgt id="946">7.38895e-12</wgt>
  <wgt id="947">7.88164e-12</wgt>
  <wgt id="948">9.61825e-12</wgt>
  <wgt id="949">9.96457e-12</wgt>
  <wgt id="950">6.38552e-12</wgt>
  <wgt id="951">7.73222e-12</wgt>
  <wgt id="952">8.78688e-12</wgt>
  <wgt id="953">9.22392e-12</wgt>
  <wgt id="954">8.39804e-12</wgt>
  <wgt id="955">7.16816e-12</wgt>
  <wgt id="956">7.00959e-12</wgt>
  <wgt id="957">8.71241e-12</wgt>
  <wgt id="958">7.77318e-12</wgt>
  <wgt id="959">7.7557e-12</wgt>
  <wgt id="960">6.63875e-12</wgt>
  <wgt id="961">7.91533e-12</wgt>
  <wgt id="962">9.08559e-12</wgt>
  <wgt id="963">7.41307e-12</wgt>
  <wgt id="964">9.7659e-12</wgt>
  <wgt id="965">9.8837e-12</wgt>
  <wgt id="966">9.18628e-12</wgt>
  <wgt id="967">9.31793e-12</wgt>
  <wgt id="968">8.61956e-12</wgt>
  <wgt id="969">8.67651e-12</wgt>
  <wgt id="970">8.60735e-12</wgt>
  <wgt id="971">7.15568e-12</wgt>
  <wgt id="972">8.56621e-12</wgt>
  <wgt id="973">6.89499e-12</wgt>
  <wgt id="974">1.08752e-11</wgt>
  <wgt id="975">7.92524e-12</wgt>
  <wgt id="976">8.60329e-12</wgt>
  <wgt id="977">6.12874e-12</wgt>
  <wgt id="978">8.82675e-12</wgt>
  <wgt id="979">1.08696e-11</wgt>
  <wgt id="980">8.17906e-12</wgt>
  <wgt id="981">8.66842e-12</wgt>
  <wgt id="982">8.10881e-12</wgt>
</rwgt>
</event>
<event>
 5   1  0.5790000E-11  0.1818911E+04  0.7818608E-02  0.7909755E-01
       21   -1    0    0  502  501  0.00000000000E+00  0.00000000000E+00  0.54767611883E+03  0.54767611883E+03  0.00000000000E+00 0.  1.
       21   -1    0    0  501  502 -0.00000000000E+00 -0.00000000000E+00 -0.15102154531E+04  0.15102154531E+04  0.00000000000E+00 0. -1.
       39    2    1    2    0    0  0.00000000000E+00  0.00000000000E+00 -0.96253933430E+03  0.20578915720E+04  0.18189105948E+04 0.  0.
       25    1    3    3    0    0  0.75985451059E+03  0.35174551074E+03 -0.85715608938E+03  0.12047594545E+04  0.12500000000E+03 0.  0.
       25    1    3    3    0    0 -0.75985451059E+03 -0.35174551074E+03 -0.10538324493E+03  0.85313211749E+03  0.12500000000E+03 0.  0.
<mgrwt>
<rscale>  0 0.18189106E+04</rscale>
<asrwt>0</asrwt>
<pdfrwt beam="1">  1       21 0.84257865E-01 0.18189106E+04</pdfrwt>
<pdfrwt beam="2">  1       21 0.23234084E+00 0.18189106E+04</pdfrwt>
<totfact> 0.47903488E+01</totfact>
</mgrwt>
<rwgt>
  <wgt id="1">5.79e-12</wgt>
  <wgt id="2">5.08732e-12</wgt>
  <wgt id="3">6.65333e-12</wgt>
  <wgt id="4">5.79e-12</wgt>
  <wgt id="5">5.08732e-12</wgt>
  <wgt id="6">6.65333e-12</wgt>
  <wgt id="7">5.79e-12</wgt>
  <wgt id="8">5.08732e-12</wgt>
  <wgt id="9">6.65333e-12</wgt>
  <wgt id="10">5.91912e-12</wgt>
  <wgt id="11">5.91548e-12</wgt>
  <wgt id="12">5.91105e-12</wgt>
  <wgt id="13">5.90274e-12</wgt>
  <wgt id="14">5.94067e-12</wgt>
  <wgt id="15">5.9283e-12</wgt>
  <wgt id="16">5.91115e-12</wgt>
  <wgt id="17">5.93436e-12</wgt>
  <wgt id="18">5.90954e-12</wgt>
  <wgt id="19">5.93051e-12</wgt>
  <wgt id="20">5.90683e-12</wgt>
  <wgt id="21">5.87957e-12</wgt>
  <wgt id="22">5.8903e-12</wgt>
  <wgt id="23">5.86036e-12</wgt>
  <wgt id="24">5.88851e-12</wgt>
  <wgt id="25">5.9039e-12</wgt>
  <wgt id="26">5.93779e-12</wgt>
  <wgt id="27">5.91592e-12</wgt>
  <wgt id="28">5.88961e-12</wgt>
  <wgt id="29">5.92305e-12</wgt>
  <wgt id="30">5.89315e-12</wgt>
  <wgt id="31">5.9395e-12</wgt>
  <wgt id="32">5.90186e-12</wgt>
  <wgt id="33">5.92985e-12</wgt>
  <wgt id="34">5.8945e-12</wgt>
  <wgt id="35">5.90811e-12</wgt>
  <wgt id="36">5.93921e-12</wgt>
  <wgt id="37">5.90428e-12</wgt>
  <wgt id="38">5.90124e-12</wgt>
  <wgt id="39">5.98643e-12</wgt>
  <wgt id="40">5.92318e-12</wgt>
  <wgt id="41">5.91886e-12</wgt>
  <wgt id="42">5.9227e-12</wgt>
  <wgt id="43">5.91676e-12</wgt>
  <wgt id="44">5.92492e-12</wgt>
  <wgt id="45">5.92892e-12</wgt>
  <wgt id="46">5.92144e-12</wgt>
  <wgt id="47">5.92225e-12</wgt>
  <wgt id="48">5.91636e-12</wgt>
  <wgt id="49">5.90052e-12</wgt>
  <wgt id="50">5.92175e-12</wgt>
  <wgt id="51">5.925e-12</wgt>
  <wgt id="52">5.9305e-12</wgt>
  <wgt id="53">5.88894e-12</wgt>
  <wgt id="54">5.91718e-12</wgt>
  <wgt id="55">5.91733e-12</wgt>
  <wgt id="56">5.94464e-12</wgt>
  <wgt id="57">5.93403e-12</wgt>
  <wgt id="58">5.8941e-12</wgt>
  <wgt id="59">5.90467e-12</wgt>
  <wgt id="60">5.92618e-12</wgt>
  <wgt id="61">5.89485e-12</wgt>
  <wgt id="62">5.90434e-12</wgt>
  <wgt id="63">5.91464e-12</wgt>
  <wgt id="64">5.9234e-12</wgt>
  <wgt id="65">5.92769e-12</wgt>
  <wgt id="66">5.91235e-12</wgt>
  <wgt id="67">5.89664e-12</wgt>
  <wgt id="68">5.91641e-12</wgt>
  <wgt id="69">5.92073e-12</wgt>
  <wgt id="70">5.9198e-12</wgt>
  <wgt id="71">5.92007e-12</wgt>
  <wgt id="72">5.91049e-12</wgt>
  <wgt id="73">5.92139e-12</wgt>
  <wgt id="74">5.92142e-12</wgt>
  <wgt id="75">5.91129e-12</wgt>
  <wgt id="76">5.93047e-12</wgt>
  <wgt id="77">5.91835e-12</wgt>
  <wgt id="78">5.91937e-12</wgt>
  <wgt id="79">5.931e-12</wgt>
  <wgt id="80">5.89977e-12</wgt>
  <wgt id="81">5.91401e-12</wgt>
  <wgt id="82">5.91923e-12</wgt>
  <wgt id="83">5.90012e-12</wgt>
  <wgt id="84">5.91071e-12</wgt>
  <wgt id="85">5.90732e-12</wgt>
  <wgt id="86">5.93474e-12</wgt>
  <wgt id="87">5.89077e-12</wgt>
  <wgt id="88">5.92525e-12</wgt>
  <wgt id="89">5.92419e-12</wgt>
  <wgt id="90">5.92933e-12</wgt>
  <wgt id="91">5.92468e-12</wgt>
  <wgt id="92">5.92948e-12</wgt>
  <wgt id="93">5.92107e-12</wgt>
  <wgt id="94">5.91387e-12</wgt>
  <wgt id="95">5.92574e-12</wgt>
  <wgt id="96">5.92346e-12</wgt>
  <wgt id="97">5.90976e-12</wgt>
  <wgt id="98">5.92141e-12</wgt>
  <wgt id="99">5.9124e-12</wgt>
  <wgt id="100">5.92437e-12</wgt>
  <wgt id="101">5.91918e-12</wgt>
  <wgt id="102">5.91505e-12</wgt>
  <wgt id="103">5.92616e-12</wgt>
  <wgt id="104">5.91684e-12</wgt>
  <wgt id="105">5.92595e-12</wgt>
  <wgt id="106">5.91125e-12</wgt>
  <wgt id="107">5.93406e-12</wgt>
  <wgt id="108">5.91331e-12</wgt>
  <wgt id="109">5.91993e-12</wgt>
  <wgt id="110">5.91952e-12</wgt>
  <wgt id="111">5.95843e-12</wgt>
  <wgt id="112">5.92988e-12</wgt>
  <wgt id="113">7.69471e-12</wgt>
  <wgt id="114">7.84466e-12</wgt>
  <wgt id="115">7.7145e-12</wgt>
  <wgt id="116">9.90117e-12</wgt>
  <wgt id="117">6.33245e-12</wgt>
  <wgt id="118">6.34959e-12</wgt>
  <wgt id="119">6.32281e-12</wgt>
  <wgt id="120">6.33355e-12</wgt>
  <wgt id="121">6.33204e-12</wgt>
  <wgt id="122">6.32114e-12</wgt>
  <wgt id="123">6.34817e-12</wgt>
  <wgt id="124">6.32326e-12</wgt>
  <wgt id="125">6.33839e-12</wgt>
  <wgt id="126">6.33969e-12</wgt>
  <wgt id="127">6.32758e-12</wgt>
  <wgt id="128">6.3521e-12</wgt>
  <wgt id="129">6.31324e-12</wgt>
  <wgt id="130">6.36484e-12</wgt>
  <wgt id="131">6.29936e-12</wgt>
  <wgt id="132">6.18066e-12</wgt>
  <wgt id="133">6.50986e-12</wgt>
  <wgt id="134">6.27302e-12</wgt>
  <wgt id="135">6.37886e-12</wgt>
  <wgt id="136">6.4047e-12</wgt>
  <wgt id="137">6.24483e-12</wgt>
  <wgt id="138">6.55199e-12</wgt>
  <wgt id="139">6.11895e-12</wgt>
  <wgt id="140">6.29138e-12</wgt>
  <wgt id="141">6.36425e-12</wgt>
  <wgt id="142">6.33272e-12</wgt>
  <wgt id="143">6.34192e-12</wgt>
  <wgt id="144">6.18847e-12</wgt>
  <wgt id="145">6.46297e-12</wgt>
  <wgt id="146">6.37596e-12</wgt>
  <wgt id="147">6.29841e-12</wgt>
  <wgt id="148">6.34967e-12</wgt>
  <wgt id="149">6.33111e-12</wgt>
  <wgt id="150">6.38241e-12</wgt>
  <wgt id="151">6.30915e-12</wgt>
  <wgt id="152">6.33405e-12</wgt>
  <wgt id="153">6.33201e-12</wgt>
  <wgt id="154">6.38275e-12</wgt>
  <wgt id="155">6.2708e-12</wgt>
  <wgt id="156">6.42907e-12</wgt>
  <wgt id="157">6.22174e-12</wgt>
  <wgt id="158">7.62895e-12</wgt>
  <wgt id="159">7.66146e-12</wgt>
  <wgt id="160">7.60373e-12</wgt>
  <wgt id="161">7.61406e-12</wgt>
  <wgt id="162">7.64591e-12</wgt>
  <wgt id="163">7.62308e-12</wgt>
  <wgt id="164">7.63874e-12</wgt>
  <wgt id="165">7.63292e-12</wgt>
  <wgt id="166">7.62727e-12</wgt>
  <wgt id="167">7.62362e-12</wgt>
  <wgt id="168">7.63699e-12</wgt>
  <wgt id="169">7.59534e-12</wgt>
  <wgt id="170">7.64992e-12</wgt>
  <wgt id="171">7.6238e-12</wgt>
  <wgt id="172">7.63678e-12</wgt>
  <wgt id="173">7.62712e-12</wgt>
  <wgt id="174">7.63012e-12</wgt>
  <wgt id="175">7.44257e-12</wgt>
  <wgt id="176">7.87078e-12</wgt>
  <wgt id="177">7.66127e-12</wgt>
  <wgt id="178">7.59991e-12</wgt>
  <wgt id="179">7.91211e-12</wgt>
  <wgt id="180">7.1795e-12</wgt>
  <wgt id="181">7.43336e-12</wgt>
  <wgt id="182">7.75862e-12</wgt>
  <wgt id="183">7.5092e-12</wgt>
  <wgt id="184">7.6884e-12</wgt>
  <wgt id="185">7.5695e-12</wgt>
  <wgt id="186">7.69811e-12</wgt>
  <wgt id="187">7.56137e-12</wgt>
  <wgt id="188">7.74938e-12</wgt>
  <wgt id="189">7.58595e-12</wgt>
  <wgt id="190">7.64702e-12</wgt>
  <wgt id="191">7.64908e-12</wgt>
  <wgt id="192">7.61753e-12</wgt>
  <wgt id="193">7.72243e-12</wgt>
  <wgt id="194">7.58229e-12</wgt>
  <wgt id="195">7.49765e-12</wgt>
  <wgt id="196">7.88393e-12</wgt>
  <wgt id="197">7.66185e-12</wgt>
  <wgt id="198">7.62112e-12</wgt>
  <wgt id="199">7.62895e-12</wgt>
  <wgt id="200">7.68908e-12</wgt>
  <wgt id="201">7.66702e-12</wgt>
  <wgt id="202">7.64619e-12</wgt>
  <wgt id="203">7.61492e-12</wgt>
  <wgt id="204">7.60065e-12</wgt>
  <wgt id="205">7.58729e-12</wgt>
  <wgt id="206">7.49478e-12</wgt>
  <wgt id="207">7.53682e-12</wgt>
  <wgt id="208">7.45304e-12</wgt>
  <wgt id="209">7.50944e-12</wgt>
  <wgt id="210">7.48431e-12</wgt>
  <wgt id="211">7.49364e-12</wgt>
  <wgt id="212">7.49533e-12</wgt>
  <wgt id="213">7.49416e-12</wgt>
  <wgt id="214">7.4961e-12</wgt>
  <wgt id="215">7.49834e-12</wgt>
  <wgt id="216">7.49236e-12</wgt>
  <wgt id="217">7.51173e-12</wgt>
  <wgt id="218">7.48216e-12</wgt>
  <wgt id="219">7.47967e-12</wgt>
  <wgt id="220">7.50363e-12</wgt>
  <wgt id="221">7.4936e-12</wgt>
  <wgt id="222">7.49628e-12</wgt>
  <wgt id="223">7.14359e-12</wgt>
  <wgt id="224">7.81317e-12</wgt>
  <wgt id="225">7.41868e-12</wgt>
  <wgt id="226">7.59054e-12</wgt>
  <wgt id="227">7.4327e-12</wgt>
  <wgt id="228">7.52198e-12</wgt>
  <wgt id="229">7.40329e-12</wgt>
  <wgt id="230">7.54038e-12</wgt>
  <wgt id="231">7.69014e-12</wgt>
  <wgt id="232">7.33281e-12</wgt>
  <wgt id="233">7.45938e-12</wgt>
  <wgt id="234">7.54967e-12</wgt>
  <wgt id="235">7.36425e-12</wgt>
  <wgt id="236">7.62018e-12</wgt>
  <wgt id="237">7.4051e-12</wgt>
  <wgt id="238">7.52508e-12</wgt>
  <wgt id="239">7.45497e-12</wgt>
  <wgt id="240">7.5669e-12</wgt>
  <wgt id="241">7.42755e-12</wgt>
  <wgt id="242">7.5744e-12</wgt>
  <wgt id="243">7.55036e-12</wgt>
  <wgt id="244">7.53566e-12</wgt>
  <wgt id="245">7.48886e-12</wgt>
  <wgt id="246">7.54605e-12</wgt>
  <wgt id="247">7.49478e-12</wgt>
  <wgt id="248">7.55635e-12</wgt>
  <wgt id="249">7.53356e-12</wgt>
  <wgt id="250">7.51151e-12</wgt>
  <wgt id="251">7.47954e-12</wgt>
  <wgt id="252">7.46415e-12</wgt>
  <wgt id="253">7.45299e-12</wgt>
  <wgt id="254">7.30286e-12</wgt>
  <wgt id="255">7.30902e-12</wgt>
  <wgt id="256">7.29557e-12</wgt>
  <wgt id="257">7.30919e-12</wgt>
  <wgt id="258">7.29803e-12</wgt>
  <wgt id="259">7.35049e-12</wgt>
  <wgt id="260">7.25619e-12</wgt>
  <wgt id="261">7.30641e-12</wgt>
  <wgt id="262">7.29842e-12</wgt>
  <wgt id="263">7.30043e-12</wgt>
  <wgt id="264">7.3053e-12</wgt>
  <wgt id="265">7.29646e-12</wgt>
  <wgt id="266">7.31453e-12</wgt>
  <wgt id="267">7.30471e-12</wgt>
  <wgt id="268">7.29989e-12</wgt>
  <wgt id="269">7.32003e-12</wgt>
  <wgt id="270">7.29126e-12</wgt>
  <wgt id="271">7.28842e-12</wgt>
  <wgt id="272">7.3186e-12</wgt>
  <wgt id="273">7.2845e-12</wgt>
  <wgt id="274">7.31592e-12</wgt>
  <wgt id="275">7.27444e-12</wgt>
  <wgt id="276">7.33149e-12</wgt>
  <wgt id="277">7.26493e-12</wgt>
  <wgt id="278">7.3382e-12</wgt>
  <wgt id="279">7.18888e-12</wgt>
  <wgt id="280">7.44454e-12</wgt>
  <wgt id="281">7.27758e-12</wgt>
  <wgt id="282">7.30383e-12</wgt>
  <wgt id="283">7.12114e-12</wgt>
  <wgt id="284">7.52543e-12</wgt>
  <wgt id="285">6.9941e-12</wgt>
  <wgt id="286">7.55652e-12</wgt>
  <wgt id="287">7.32381e-12</wgt>
  <wgt id="288">7.27571e-12</wgt>
  <wgt id="289">7.34772e-12</wgt>
  <wgt id="290">7.19697e-12</wgt>
  <wgt id="291">7.2858e-12</wgt>
  <wgt id="292">7.30642e-12</wgt>
  <wgt id="293">7.25294e-12</wgt>
  <wgt id="294">7.35231e-12</wgt>
  <wgt id="295">7.17798e-12</wgt>
  <wgt id="296">7.45407e-12</wgt>
  <wgt id="297">7.30715e-12</wgt>
  <wgt id="298">7.32106e-12</wgt>
  <wgt id="299">7.28275e-12</wgt>
  <wgt id="300">7.35489e-12</wgt>
  <wgt id="301">7.2391e-12</wgt>
  <wgt id="302">7.48475e-12</wgt>
  <wgt id="303">7.26276e-12</wgt>
  <wgt id="304">7.32619e-12</wgt>
  <wgt id="305">7.32935e-12</wgt>
  <wgt id="306">7.33602e-12</wgt>
  <wgt id="307">7.32208e-12</wgt>
  <wgt id="308">7.33615e-12</wgt>
  <wgt id="309">7.32438e-12</wgt>
  <wgt id="310">7.37871e-12</wgt>
  <wgt id="311">7.28306e-12</wgt>
  <wgt id="312">7.33032e-12</wgt>
  <wgt id="313">7.32762e-12</wgt>
  <wgt id="314">7.32692e-12</wgt>
  <wgt id="315">7.33119e-12</wgt>
  <wgt id="316">7.32295e-12</wgt>
  <wgt id="317">7.34101e-12</wgt>
  <wgt id="318">7.33287e-12</wgt>
  <wgt id="319">7.32208e-12</wgt>
  <wgt id="320">7.34697e-12</wgt>
  <wgt id="321">7.31876e-12</wgt>
  <wgt id="322">7.31111e-12</wgt>
  <wgt id="323">7.35012e-12</wgt>
  <wgt id="324">7.31493e-12</wgt>
  <wgt id="325">7.34122e-12</wgt>
  <wgt id="326">7.30594e-12</wgt>
  <wgt id="327">7.35859e-12</wgt>
  <wgt id="328">7.29152e-12</wgt>
  <wgt id="329">7.35102e-12</wgt>
  <wgt id="330">7.51106e-12</wgt>
  <wgt id="331">7.15437e-12</wgt>
  <wgt id="332">7.30796e-12</wgt>
  <wgt id="333">7.32902e-12</wgt>
  <wgt id="334">7.18654e-12</wgt>
  <wgt id="335">7.50579e-12</wgt>
  <wgt id="336">7.1048e-12</wgt>
  <wgt id="337">7.60026e-12</wgt>
  <wgt id="338">7.40236e-12</wgt>
  <wgt id="339">7.26077e-12</wgt>
  <wgt id="340">7.37187e-12</wgt>
  <wgt id="341">7.21878e-12</wgt>
  <wgt id="342">7.31749e-12</wgt>
  <wgt id="343">7.32278e-12</wgt>
  <wgt id="344">7.28395e-12</wgt>
  <wgt id="345">7.38181e-12</wgt>
  <wgt id="346">7.19994e-12</wgt>
  <wgt id="347">7.47711e-12</wgt>
  <wgt id="348">7.33811e-12</wgt>
  <wgt id="349">7.3425e-12</wgt>
  <wgt id="350">7.30368e-12</wgt>
  <wgt id="351">7.39243e-12</wgt>
  <wgt id="352">7.26189e-12</wgt>
  <wgt id="353">7.51891e-12</wgt>
  <wgt id="354">7.26919e-12</wgt>
  <wgt id="355">7.36649e-12</wgt>
  <wgt id="356">7.30286e-12</wgt>
  <wgt id="357">7.3598e-12</wgt>
  <wgt id="358">7.32935e-12</wgt>
  <wgt id="359">7.32904e-12</wgt>
  <wgt id="360">7.34208e-12</wgt>
  <wgt id="361">7.32283e-12</wgt>
  <wgt id="362">7.43111e-12</wgt>
  <wgt id="363">7.41623e-12</wgt>
  <wgt id="364">7.39481e-12</wgt>
  <wgt id="365">7.37372e-12</wgt>
  <wgt id="366">7.34992e-12</wgt>
  <wgt id="367">7.30041e-12</wgt>
  <wgt id="368">7.27236e-12</wgt>
  <wgt id="369">7.24197e-12</wgt>
  <wgt id="370">7.32283e-12</wgt>
  <wgt id="371">7.35257e-12</wgt>
  <wgt id="372">7.33612e-12</wgt>
  <wgt id="373">7.31118e-12</wgt>
  <wgt id="374">7.3097e-12</wgt>
  <wgt id="375">7.7942e-12</wgt>
  <wgt id="376">7.79445e-12</wgt>
  <wgt id="377">7.79409e-12</wgt>
  <wgt id="378">7.82158e-12</wgt>
  <wgt id="379">7.76719e-12</wgt>
  <wgt id="380">7.8165e-12</wgt>
  <wgt id="381">7.78514e-12</wgt>
  <wgt id="382">7.82537e-12</wgt>
  <wgt id="383">7.76341e-12</wgt>
  <wgt id="384">7.79899e-12</wgt>
  <wgt id="385">7.78976e-12</wgt>
  <wgt id="386">7.81651e-12</wgt>
  <wgt id="387">7.78438e-12</wgt>
  <wgt id="388">7.78806e-12</wgt>
  <wgt id="389">7.80126e-12</wgt>
  <wgt id="390">7.81058e-12</wgt>
  <wgt id="391">7.77639e-12</wgt>
  <wgt id="392">7.74812e-12</wgt>
  <wgt id="393">7.82006e-12</wgt>
  <wgt id="394">7.80282e-12</wgt>
  <wgt id="395">7.78233e-12</wgt>
  <wgt id="396">7.79609e-12</wgt>
  <wgt id="397">7.79242e-12</wgt>
  <wgt id="398">7.77915e-12</wgt>
  <wgt id="399">7.80849e-12</wgt>
  <wgt id="400">7.78652e-12</wgt>
  <wgt id="401">7.81039e-12</wgt>
  <wgt id="402">7.74215e-12</wgt>
  <wgt id="403">7.81588e-12</wgt>
  <wgt id="404">7.95012e-12</wgt>
  <wgt id="405">7.41666e-12</wgt>
  <wgt id="406">7.67929e-12</wgt>
  <wgt id="407">8.04301e-12</wgt>
  <wgt id="408">7.85193e-12</wgt>
  <wgt id="409">7.6826e-12</wgt>
  <wgt id="410">7.60579e-12</wgt>
  <wgt id="411">7.88117e-12</wgt>
  <wgt id="412">7.78129e-12</wgt>
  <wgt id="413">7.81068e-12</wgt>
  <wgt id="414">7.71816e-12</wgt>
  <wgt id="415">7.85259e-12</wgt>
  <wgt id="416">7.96613e-12</wgt>
  <wgt id="417">7.55434e-12</wgt>
  <wgt id="418">7.80459e-12</wgt>
  <wgt id="419">7.73753e-12</wgt>
  <wgt id="420">7.86856e-12</wgt>
  <wgt id="421">7.75443e-12</wgt>
  <wgt id="422">7.79266e-12</wgt>
  <wgt id="423">7.7962e-12</wgt>
  <wgt id="424">7.91222e-12</wgt>
  <wgt id="425">7.71958e-12</wgt>
  <wgt id="426">7.7942e-12</wgt>
  <wgt id="427">7.73613e-12</wgt>
  <wgt id="428">7.95853e-12</wgt>
  <wgt id="429">7.85055e-12</wgt>
  <wgt id="430">8.0404e-12</wgt>
  <wgt id="431">8.00342e-12</wgt>
  <wgt id="432">7.9674e-12</wgt>
  <wgt id="433">7.93292e-12</wgt>
  <wgt id="434">7.88988e-12</wgt>
  <wgt id="435">7.80001e-12</wgt>
  <wgt id="436">7.75336e-12</wgt>
  <wgt id="437">7.70937e-12</wgt>
  <wgt id="438">7.85055e-12</wgt>
  <wgt id="439">7.87455e-12</wgt>
  <wgt id="440">7.86061e-12</wgt>
  <wgt id="441">7.84205e-12</wgt>
  <wgt id="442">7.83631e-12</wgt>
  <wgt id="443">7.61754e-12</wgt>
  <wgt id="444">7.6605e-12</wgt>
  <wgt id="445">7.63423e-12</wgt>
  <wgt id="446">7.5657e-12</wgt>
  <wgt id="447">7.61301e-12</wgt>
  <wgt id="448">7.45195e-12</wgt>
  <wgt id="449">7.7225e-12</wgt>
  <wgt id="450">7.63666e-12</wgt>
  <wgt id="451">7.60501e-12</wgt>
  <wgt id="452">7.7536e-12</wgt>
  <wgt id="453">7.66962e-12</wgt>
  <wgt id="454">7.33543e-12</wgt>
  <wgt id="455">7.6422e-12</wgt>
  <wgt id="456">7.59327e-12</wgt>
  <wgt id="457">7.63437e-12</wgt>
  <wgt id="458">7.71711e-12</wgt>
  <wgt id="459">7.67148e-12</wgt>
  <wgt id="460">7.69257e-12</wgt>
  <wgt id="461">7.4975e-12</wgt>
  <wgt id="462">7.58426e-12</wgt>
  <wgt id="463">7.53615e-12</wgt>
  <wgt id="464">7.59028e-12</wgt>
  <wgt id="465">7.67855e-12</wgt>
  <wgt id="466">7.53454e-12</wgt>
  <wgt id="467">7.5638e-12</wgt>
  <wgt id="468">7.60408e-12</wgt>
  <wgt id="469">7.61218e-12</wgt>
  <wgt id="470">7.54854e-12</wgt>
  <wgt id="471">7.56331e-12</wgt>
  <wgt id="472">7.64364e-12</wgt>
  <wgt id="473">7.45225e-12</wgt>
  <wgt id="474">5.79e-12</wgt>
  <wgt id="475">5.98018e-12</wgt>
  <wgt id="476">5.67365e-12</wgt>
  <wgt id="477">5.54505e-12</wgt>
  <wgt id="478">5.8407e-12</wgt>
  <wgt id="479">5.69795e-12</wgt>
  <wgt id="480">6.02606e-12</wgt>
  <wgt id="481">5.75085e-12</wgt>
  <wgt id="482">5.69197e-12</wgt>
  <wgt id="483">5.65359e-12</wgt>
  <wgt id="484">5.98658e-12</wgt>
  <wgt id="485">5.69482e-12</wgt>
  <wgt id="486">6.02508e-12</wgt>
  <wgt id="487">5.8145e-12</wgt>
  <wgt id="488">5.90209e-12</wgt>
  <wgt id="489">5.54695e-12</wgt>
  <wgt id="490">5.61199e-12</wgt>
  <wgt id="491">5.78641e-12</wgt>
  <wgt id="492">5.70314e-12</wgt>
  <wgt id="493">5.57106e-12</wgt>
  <wgt id="494">5.61968e-12</wgt>
  <wgt id="495">5.81157e-12</wgt>
  <wgt id="496">5.60593e-12</wgt>
  <wgt id="497">5.57615e-12</wgt>
  <wgt id="498">5.91977e-12</wgt>
  <wgt id="499">5.7158e-12</wgt>
  <wgt id="500">5.6781e-12</wgt>
  <wgt id="501">5.94045e-12</wgt>
  <wgt id="502">5.74603e-12</wgt>
  <wgt id="503">5.8161e-12</wgt>
  <wgt id="504">5.88004e-12</wgt>
  <wgt id="505">5.65651e-12</wgt>
  <wgt id="506">5.8431e-12</wgt>
  <wgt id="507">5.78737e-12</wgt>
  <wgt id="508">5.96962e-12</wgt>
  <wgt id="509">5.43687e-12</wgt>
  <wgt id="510">5.88778e-12</wgt>
  <wgt id="511">5.61938e-12</wgt>
  <wgt id="512">5.91354e-12</wgt>
  <wgt id="513">5.9468e-12</wgt>
  <wgt id="514">5.83563e-12</wgt>
  <wgt id="515">5.7647e-12</wgt>
  <wgt id="516">6.05227e-12</wgt>
  <wgt id="517">5.91235e-12</wgt>
  <wgt id="518">5.94268e-12</wgt>
  <wgt id="519">5.66196e-12</wgt>
  <wgt id="520">5.89558e-12</wgt>
  <wgt id="521">5.92691e-12</wgt>
  <wgt id="522">6.0121e-12</wgt>
  <wgt id="523">5.74832e-12</wgt>
  <wgt id="524">5.74539e-12</wgt>
  <wgt id="525">5.93154e-12</wgt>
  <wgt id="526">5.83031e-12</wgt>
  <wgt id="527">5.8217e-12</wgt>
  <wgt id="528">5.81216e-12</wgt>
  <wgt id="529">5.74189e-12</wgt>
  <wgt id="530">5.90486e-12</wgt>
  <wgt id="531">5.70809e-12</wgt>
  <wgt id="532">6.08394e-12</wgt>
  <wgt id="533">5.5642e-12</wgt>
  <wgt id="534">5.78081e-12</wgt>
  <wgt id="535">5.82294e-12</wgt>
  <wgt id="536">5.73507e-12</wgt>
  <wgt id="537">5.78033e-12</wgt>
  <wgt id="538">5.8567e-12</wgt>
  <wgt id="539">5.70973e-12</wgt>
  <wgt id="540">5.75789e-12</wgt>
  <wgt id="541">5.61911e-12</wgt>
  <wgt id="542">5.73299e-12</wgt>
  <wgt id="543">5.80466e-12</wgt>
  <wgt id="544">6.01554e-12</wgt>
  <wgt id="545">5.6792e-12</wgt>
  <wgt id="546">5.58721e-12</wgt>
  <wgt id="547">5.68412e-12</wgt>
  <wgt id="548">5.56795e-12</wgt>
  <wgt id="549">5.72844e-12</wgt>
  <wgt id="550">5.67945e-12</wgt>
  <wgt id="551">5.86616e-12</wgt>
  <wgt id="552">5.61877e-12</wgt>
  <wgt id="553">5.73746e-12</wgt>
  <wgt id="554">6.15647e-12</wgt>
  <wgt id="555">5.93569e-12</wgt>
  <wgt id="556">5.61199e-12</wgt>
  <wgt id="557">5.92534e-12</wgt>
  <wgt id="558">5.67123e-12</wgt>
  <wgt id="559">5.62912e-12</wgt>
  <wgt id="560">6.27037e-12</wgt>
  <wgt id="561">5.72701e-12</wgt>
  <wgt id="562">5.96509e-12</wgt>
  <wgt id="563">5.79441e-12</wgt>
  <wgt id="564">5.94427e-12</wgt>
  <wgt id="565">5.67769e-12</wgt>
  <wgt id="566">5.87431e-12</wgt>
  <wgt id="567">5.74835e-12</wgt>
  <wgt id="568">5.78392e-12</wgt>
  <wgt id="569">5.93872e-12</wgt>
  <wgt id="570">5.58228e-12</wgt>
  <wgt id="571">6.31768e-12</wgt>
  <wgt id="572">5.73226e-12</wgt>
  <wgt id="573">5.61039e-12</wgt>
  <wgt id="574">5.64041e-12</wgt>
  <wgt id="575">6.2925e-12</wgt>
  <wgt id="576">6.36111e-12</wgt>
  <wgt id="577">6.50652e-12</wgt>
  <wgt id="578">6.49879e-12</wgt>
  <wgt id="579">6.45283e-12</wgt>
  <wgt id="580">6.49841e-12</wgt>
  <wgt id="581">6.74799e-12</wgt>
  <wgt id="582">6.38431e-12</wgt>
  <wgt id="583">6.35311e-12</wgt>
  <wgt id="584">6.26421e-12</wgt>
  <wgt id="585">6.19477e-12</wgt>
  <wgt id="586">6.11634e-12</wgt>
  <wgt id="587">6.40207e-12</wgt>
  <wgt id="588">6.31138e-12</wgt>
  <wgt id="589">6.45725e-12</wgt>
  <wgt id="590">6.30106e-12</wgt>
  <wgt id="591">6.52258e-12</wgt>
  <wgt id="592">5.96379e-12</wgt>
  <wgt id="593">6.22772e-12</wgt>
  <wgt id="594">6.4775e-12</wgt>
  <wgt id="595">6.32543e-12</wgt>
  <wgt id="596">6.48602e-12</wgt>
  <wgt id="597">6.19112e-12</wgt>
  <wgt id="598">6.06093e-12</wgt>
  <wgt id="599">6.55903e-12</wgt>
  <wgt id="600">6.31396e-12</wgt>
  <wgt id="601">6.12699e-12</wgt>
  <wgt id="602">6.11471e-12</wgt>
  <wgt id="603">6.13218e-12</wgt>
  <wgt id="604">6.38657e-12</wgt>
  <wgt id="605">6.50774e-12</wgt>
  <wgt id="606">6.3011e-12</wgt>
  <wgt id="607">6.28861e-12</wgt>
  <wgt id="608">6.38645e-12</wgt>
  <wgt id="609">6.07649e-12</wgt>
  <wgt id="610">6.06613e-12</wgt>
  <wgt id="611">6.23824e-12</wgt>
  <wgt id="612">6.62502e-12</wgt>
  <wgt id="613">6.28254e-12</wgt>
  <wgt id="614">6.31993e-12</wgt>
  <wgt id="615">6.24143e-12</wgt>
  <wgt id="616">6.54697e-12</wgt>
  <wgt id="617">6.43933e-12</wgt>
  <wgt id="618">6.67616e-12</wgt>
  <wgt id="619">6.24262e-12</wgt>
  <wgt id="620">6.50754e-12</wgt>
  <wgt id="621">6.30266e-12</wgt>
  <wgt id="622">6.40207e-12</wgt>
  <wgt id="623">6.45811e-12</wgt>
  <wgt id="624">6.29955e-12</wgt>
  <wgt id="625">6.19557e-12</wgt>
  <wgt id="626">6.05584e-12</wgt>
  <wgt id="627">6.03787e-12</wgt>
  <wgt id="628">6.39342e-12</wgt>
  <wgt id="629">6.24347e-12</wgt>
  <wgt id="630">5.98069e-12</wgt>
  <wgt id="631">6.32766e-12</wgt>
  <wgt id="632">6.03085e-12</wgt>
  <wgt id="633">6.26998e-12</wgt>
  <wgt id="634">6.19148e-12</wgt>
  <wgt id="635">6.06822e-12</wgt>
  <wgt id="636">6.38226e-12</wgt>
  <wgt id="637">6.22785e-12</wgt>
  <wgt id="638">6.11521e-12</wgt>
  <wgt id="639">6.21949e-12</wgt>
  <wgt id="640">6.30332e-12</wgt>
  <wgt id="641">6.41095e-12</wgt>
  <wgt id="642">5.88082e-12</wgt>
  <wgt id="643">6.25075e-12</wgt>
  <wgt id="644">5.89407e-12</wgt>
  <wgt id="645">6.31641e-12</wgt>
  <wgt id="646">6.19972e-12</wgt>
  <wgt id="647">6.2459e-12</wgt>
  <wgt id="648">6.39288e-12</wgt>
  <wgt id="649">6.32889e-12</wgt>
  <wgt id="650">6.14648e-12</wgt>
  <wgt id="651">6.46791e-12</wgt>
  <wgt id="652">6.20409e-12</wgt>
  <wgt id="653">6.0843e-12</wgt>
  <wgt id="654">6.15633e-12</wgt>
  <wgt id="655">6.25529e-12</wgt>
  <wgt id="656">6.31085e-12</wgt>
  <wgt id="657">6.68414e-12</wgt>
  <wgt id="658">6.1903e-12</wgt>
  <wgt id="659">6.05695e-12</wgt>
  <wgt id="660">6.37655e-12</wgt>
  <wgt id="661">6.22869e-12</wgt>
  <wgt id="662">6.29431e-12</wgt>
  <wgt id="663">6.33861e-12</wgt>
  <wgt id="664">6.26835e-12</wgt>
  <wgt id="665">6.30401e-12</wgt>
  <wgt id="666">6.23941e-12</wgt>
  <wgt id="667">6.51463e-12</wgt>
  <wgt id="668">6.28115e-12</wgt>
  <wgt id="669">6.42423e-12</wgt>
  <wgt id="670">6.44796e-12</wgt>
  <wgt id="671">6.28344e-12</wgt>
  <wgt id="672">6.06721e-12</wgt>
  <wgt id="673">6.37466e-12</wgt>
  <wgt id="674">6.15442e-12</wgt>
  <wgt id="675">6.25859e-12</wgt>
  <wgt id="676">7.77903e-12</wgt>
  <wgt id="677">7.90792e-12</wgt>
  <wgt id="678">8.13752e-12</wgt>
  <wgt id="679">7.47636e-12</wgt>
  <wgt id="680">7.65806e-12</wgt>
  <wgt id="681">7.9046e-12</wgt>
  <wgt id="682">8.03105e-12</wgt>
  <wgt id="683">7.63246e-12</wgt>
  <wgt id="684">8.03781e-12</wgt>
  <wgt id="685">7.58703e-12</wgt>
  <wgt id="686">7.56204e-12</wgt>
  <wgt id="687">7.93218e-12</wgt>
  <wgt id="688">7.73059e-12</wgt>
  <wgt id="689">8.09232e-12</wgt>
  <wgt id="690">8.01696e-12</wgt>
  <wgt id="691">8.17122e-12</wgt>
  <wgt id="692">7.73453e-12</wgt>
  <wgt id="693">8.99233e-12</wgt>
  <wgt id="694">8.23171e-12</wgt>
  <wgt id="695">7.59582e-12</wgt>
  <wgt id="696">7.6403e-12</wgt>
  <wgt id="697">7.57172e-12</wgt>
  <wgt id="698">7.13311e-12</wgt>
  <wgt id="699">7.13252e-12</wgt>
  <wgt id="700">7.00087e-12</wgt>
  <wgt id="701">7.75593e-12</wgt>
  <wgt id="702">7.70653e-12</wgt>
  <wgt id="703">8.73924e-12</wgt>
  <wgt id="704">8.41445e-12</wgt>
  <wgt id="705">8.27583e-12</wgt>
  <wgt id="706">7.50566e-12</wgt>
  <wgt id="707">7.49101e-12</wgt>
  <wgt id="708">7.60664e-12</wgt>
  <wgt id="709">7.59457e-12</wgt>
  <wgt id="710">7.24506e-12</wgt>
  <wgt id="711">7.72307e-12</wgt>
  <wgt id="712">7.56239e-12</wgt>
  <wgt id="713">8.32161e-12</wgt>
  <wgt id="714">7.55052e-12</wgt>
  <wgt id="715">7.70837e-12</wgt>
  <wgt id="716">7.50256e-12</wgt>
  <wgt id="717">7.40727e-12</wgt>
  <wgt id="718">7.8528e-12</wgt>
  <wgt id="719">7.16209e-12</wgt>
  <wgt id="720">7.5226e-12</wgt>
  <wgt id="721">7.13757e-12</wgt>
  <wgt id="722">7.00558e-12</wgt>
  <wgt id="723">8.22199e-12</wgt>
  <wgt id="724">8.11771e-12</wgt>
  <wgt id="725">8.07737e-12</wgt>
  <wgt id="726">7.77302e-12</wgt>
  <wgt id="727">7.64292e-12</wgt>
  <wgt id="728">7.57748e-12</wgt>
  <wgt id="729">7.5306e-12</wgt>
  <wgt id="730">8.19419e-12</wgt>
  <wgt id="731">7.6195e-12</wgt>
  <wgt id="732">8.46996e-12</wgt>
  <wgt id="733">7.64191e-12</wgt>
  <wgt id="734">7.88866e-12</wgt>
  <wgt id="735">7.92039e-12</wgt>
  <wgt id="736">7.58412e-12</wgt>
  <wgt id="737">7.82315e-12</wgt>
  <wgt id="738">7.53104e-12</wgt>
  <wgt id="739">7.91587e-12</wgt>
  <wgt id="740">8.51448e-12</wgt>
  <wgt id="741">7.127e-12</wgt>
  <wgt id="742">7.68904e-12</wgt>
  <wgt id="743">7.53177e-12</wgt>
  <wgt id="744">7.60961e-12</wgt>
  <wgt id="745">8.00248e-12</wgt>
  <wgt id="746">8.1369e-12</wgt>
  <wgt id="747">7.03885e-12</wgt>
  <wgt id="748">7.73704e-12</wgt>
  <wgt id="749">8.02984e-12</wgt>
  <wgt id="750">8.15351e-12</wgt>
  <wgt id="751">7.89427e-12</wgt>
  <wgt id="752">7.21293e-12</wgt>
  <wgt id="753">7.37867e-12</wgt>
  <wgt id="754">8.06836e-12</wgt>
  <wgt id="755">7.75706e-12</wgt>
  <wgt id="756">7.73392e-12</wgt>
  <wgt id="757">7.19846e-12</wgt>
  <wgt id="758">7.70875e-12</wgt>
  <wgt id="759">8.26961e-12</wgt>
  <wgt id="760">7.7628e-12</wgt>
  <wgt id="761">8.15386e-12</wgt>
  <wgt id="762">8.15808e-12</wgt>
  <wgt id="763">7.74876e-12</wgt>
  <wgt id="764">8.02276e-12</wgt>
  <wgt id="765">7.96702e-12</wgt>
  <wgt id="766">7.75497e-12</wgt>
  <wgt id="767">7.89852e-12</wgt>
  <wgt id="768">7.34767e-12</wgt>
  <wgt id="769">8.17764e-12</wgt>
  <wgt id="770">7.72104e-12</wgt>
  <wgt id="771">8.90381e-12</wgt>
  <wgt id="772">7.45525e-12</wgt>
  <wgt id="773">7.72505e-12</wgt>
  <wgt id="774">6.89319e-12</wgt>
  <wgt id="775">8.1009e-12</wgt>
  <wgt id="776">8.29721e-12</wgt>
  <wgt id="777">7.41181e-12</wgt>
  <wgt id="778">5.80065e-12</wgt>
  <wgt id="779">4.75845e-12</wgt>
  <wgt id="780">3.90214e-12</wgt>
  <wgt id="781">6.37918e-12</wgt>
  <wgt id="782">6.15663e-12</wgt>
  <wgt id="783">4.77334e-12</wgt>
  <wgt id="784">5.04322e-12</wgt>
  <wgt id="785">7.05167e-12</wgt>
  <wgt id="786">4.59167e-12</wgt>
  <wgt id="787">6.53218e-12</wgt>
  <wgt id="788">3.60268e-12</wgt>
  <wgt id="789">5.08787e-12</wgt>
  <wgt id="790">4.48776e-12</wgt>
  <wgt id="791">5.73434e-12</wgt>
  <wgt id="792">7.69159e-12</wgt>
  <wgt id="793">5.74777e-12</wgt>
  <wgt id="794">4.39211e-12</wgt>
  <wgt id="795">6.67549e-12</wgt>
  <wgt id="796">7.54344e-12</wgt>
  <wgt id="797">6.78193e-12</wgt>
  <wgt id="798">5.17342e-12</wgt>
  <wgt id="799">6.45764e-12</wgt>
  <wgt id="800">4.98255e-12</wgt>
  <wgt id="801">5.3808e-12</wgt>
  <wgt id="802">4.44183e-12</wgt>
  <wgt id="803">7.78393e-12</wgt>
  <wgt id="804">6.79853e-12</wgt>
  <wgt id="805">6.64208e-12</wgt>
  <wgt id="806">6.39365e-12</wgt>
  <wgt id="807">5.57273e-12</wgt>
  <wgt id="808">5.5466e-12</wgt>
  <wgt id="809">5.50507e-12</wgt>
  <wgt id="810">6.34151e-12</wgt>
  <wgt id="811">6.14987e-12</wgt>
  <wgt id="812">4.46607e-12</wgt>
  <wgt id="813">4.53891e-12</wgt>
  <wgt id="814">4.86537e-12</wgt>
  <wgt id="815">4.75242e-12</wgt>
  <wgt id="816">4.44548e-12</wgt>
  <wgt id="817">5.93096e-12</wgt>
  <wgt id="818">5.97468e-12</wgt>
  <wgt id="819">4.78292e-12</wgt>
  <wgt id="820">5.74035e-12</wgt>
  <wgt id="821">6.43568e-12</wgt>
  <wgt id="822">4.8535e-12</wgt>
  <wgt id="823">6.60045e-12</wgt>
  <wgt id="824">7.54936e-12</wgt>
  <wgt id="825">4.30081e-12</wgt>
  <wgt id="826">6.16741e-12</wgt>
  <wgt id="827">3.72057e-12</wgt>
  <wgt id="828">7.31101e-12</wgt>
  <wgt id="829">5.915e-12</wgt>
  <wgt id="830">4.13945e-12</wgt>
  <wgt id="831">6.21227e-12</wgt>
  <wgt id="832">9.21058e-12</wgt>
  <wgt id="833">5.33183e-12</wgt>
  <wgt id="834">8.79894e-12</wgt>
  <wgt id="835">4.87568e-12</wgt>
  <wgt id="836">5.62063e-12</wgt>
  <wgt id="837">6.39451e-12</wgt>
  <wgt id="838">5.36474e-12</wgt>
  <wgt id="839">6.1796e-12</wgt>
  <wgt id="840">5.40517e-12</wgt>
  <wgt id="841">7.02641e-12</wgt>
  <wgt id="842">5.41069e-12</wgt>
  <wgt id="843">5.83512e-12</wgt>
  <wgt id="844">6.00279e-12</wgt>
  <wgt id="845">8.49696e-12</wgt>
  <wgt id="846">5.91705e-12</wgt>
  <wgt id="847">5.96402e-12</wgt>
  <wgt id="848">4.92324e-12</wgt>
  <wgt id="849">5.93313e-12</wgt>
  <wgt id="850">7.35255e-12</wgt>
  <wgt id="851">6.32327e-12</wgt>
  <wgt id="852">4.74782e-12</wgt>
  <wgt id="853">6.36158e-12</wgt>
  <wgt id="854">6.99644e-12</wgt>
  <wgt id="855">6.40666e-12</wgt>
  <wgt id="856">4.18762e-12</wgt>
  <wgt id="857">5.66556e-12</wgt>
  <wgt id="858">5.53459e-12</wgt>
  <wgt id="859">5.51676e-12</wgt>
  <wgt id="860">6.30558e-12</wgt>
  <wgt id="861">5.17512e-12</wgt>
  <wgt id="862">5.79568e-12</wgt>
  <wgt id="863">6.12102e-12</wgt>
  <wgt id="864">6.10316e-12</wgt>
  <wgt id="865">7.85333e-12</wgt>
  <wgt id="866">8.81784e-12</wgt>
  <wgt id="867">5.81647e-12</wgt>
  <wgt id="868">5.58329e-12</wgt>
  <wgt id="869">4.52502e-12</wgt>
  <wgt id="870">4.75274e-12</wgt>
  <wgt id="871">4.644e-12</wgt>
  <wgt id="872">6.84219e-12</wgt>
  <wgt id="873">4.97701e-12</wgt>
  <wgt id="874">6.06012e-12</wgt>
  <wgt id="875">5.06581e-12</wgt>
  <wgt id="876">6.75384e-12</wgt>
  <wgt id="877">6.38307e-12</wgt>
  <wgt id="878">4.97379e-12</wgt>
  <wgt id="879">7.77903e-12</wgt>
  <wgt id="880">7.90792e-12</wgt>
  <wgt id="881">8.13752e-12</wgt>
  <wgt id="882">7.47636e-12</wgt>
  <wgt id="883">7.65806e-12</wgt>
  <wgt id="884">7.9046e-12</wgt>
  <wgt id="885">8.03105e-12</wgt>
  <wgt id="886">7.63246e-12</wgt>
  <wgt id="887">8.03781e-12</wgt>
  <wgt id="888">7.58703e-12</wgt>
  <wgt id="889">7.56204e-12</wgt>
  <wgt id="890">7.93218e-12</wgt>
  <wgt id="891">7.73059e-12</wgt>
  <wgt id="892">8.09232e-12</wgt>
  <wgt id="893">8.01696e-12</wgt>
  <wgt id="894">8.17122e-12</wgt>
  <wgt id="895">7.73453e-12</wgt>
  <wgt id="896">8.99233e-12</wgt>
  <wgt id="897">8.23171e-12</wgt>
  <wgt id="898">7.59582e-12</wgt>
  <wgt id="899">7.6403e-12</wgt>
  <wgt id="900">7.57172e-12</wgt>
  <wgt id="901">7.13311e-12</wgt>
  <wgt id="902">7.13252e-12</wgt>
  <wgt id="903">7.00087e-12</wgt>
  <wgt id="904">7.75593e-12</wgt>
  <wgt id="905">7.70653e-12</wgt>
  <wgt id="906">8.73924e-12</wgt>
  <wgt id="907">8.41445e-12</wgt>
  <wgt id="908">8.27583e-12</wgt>
  <wgt id="909">7.50566e-12</wgt>
  <wgt id="910">7.49101e-12</wgt>
  <wgt id="911">7.60664e-12</wgt>
  <wgt id="912">7.59457e-12</wgt>
  <wgt id="913">7.24506e-12</wgt>
  <wgt id="914">7.72307e-12</wgt>
  <wgt id="915">7.56239e-12</wgt>
  <wgt id="916">8.32161e-12</wgt>
  <wgt id="917">7.55052e-12</wgt>
  <wgt id="918">7.70837e-12</wgt>
  <wgt id="919">7.50256e-12</wgt>
  <wgt id="920">7.40727e-12</wgt>
  <wgt id="921">7.8528e-12</wgt>
  <wgt id="922">7.16209e-12</wgt>
  <wgt id="923">7.5226e-12</wgt>
  <wgt id="924">7.13757e-12</wgt>
  <wgt id="925">7.00558e-12</wgt>
  <wgt id="926">8.22199e-12</wgt>
  <wgt id="927">8.11771e-12</wgt>
  <wgt id="928">8.07737e-12</wgt>
  <wgt id="929">7.77302e-12</wgt>
  <wgt id="930">7.64292e-12</wgt>
  <wgt id="931">7.57748e-12</wgt>
  <wgt id="932">7.5306e-12</wgt>
  <wgt id="933">8.19419e-12</wgt>
  <wgt id="934">7.6195e-12</wgt>
  <wgt id="935">8.46996e-12</wgt>
  <wgt id="936">7.64191e-12</wgt>
  <wgt id="937">7.88866e-12</wgt>
  <wgt id="938">7.92039e-12</wgt>
  <wgt id="939">7.58412e-12</wgt>
  <wgt id="940">7.82315e-12</wgt>
  <wgt id="941">7.53104e-12</wgt>
  <wgt id="942">7.91587e-12</wgt>
  <wgt id="943">8.51448e-12</wgt>
  <wgt id="944">7.127e-12</wgt>
  <wgt id="945">7.68904e-12</wgt>
  <wgt id="946">7.53177e-12</wgt>
  <wgt id="947">7.60961e-12</wgt>
  <wgt id="948">8.00248e-12</wgt>
  <wgt id="949">8.1369e-12</wgt>
  <wgt id="950">7.03885e-12</wgt>
  <wgt id="951">7.73704e-12</wgt>
  <wgt id="952">8.02984e-12</wgt>
  <wgt id="953">8.15351e-12</wgt>
  <wgt id="954">7.89427e-12</wgt>
  <wgt id="955">7.21293e-12</wgt>
  <wgt id="956">7.37867e-12</wgt>
  <wgt id="957">8.06836e-12</wgt>
  <wgt id="958">7.75706e-12</wgt>
  <wgt id="959">7.73392e-12</wgt>
  <wgt id="960">7.19846e-12</wgt>
  <wgt id="961">7.70875e-12</wgt>
  <wgt id="962">8.26961e-12</wgt>
  <wgt id="963">7.7628e-12</wgt>
  <wgt id="964">8.15386e-12</wgt>
  <wgt id="965">8.15808e-12</wgt>
  <wgt id="966">7.74876e-12</wgt>
  <wgt id="967">8.02276e-12</wgt>
  <wgt id="968">7.96702e-12</wgt>
  <wgt id="969">7.75497e-12</wgt>
  <wgt id="970">7.89852e-12</wgt>
  <wgt id="971">7.34767e-12</wgt>
  <wgt id="972">8.17764e-12</wgt>
  <wgt id="973">7.72104e-12</wgt>
  <wgt id="974">8.90381e-12</wgt>
  <wgt id="975">7.45525e-12</wgt>
  <wgt id="976">7.72505e-12</wgt>
  <wgt id="977">6.89319e-12</wgt>
  <wgt id="978">8.1009e-12</wgt>
  <wgt id="979">8.29721e-12</wgt>
  <wgt id="980">7.76839e-12</wgt>
  <wgt id="981">7.80456e-12</wgt>
  <wgt id="982">7.54181e-12</wgt>
</rwgt>
</event>
<event>
 5   1  0.5790000E-11  0.2221709E+04  0.7818608E-02  0.7740741E-01
       21   -1    0    0  502  501  0.00000000000E+00  0.00000000000E+00  0.57417580240E+03  0.57417580240E+03  0.00000000000E+00 0.  1.
       21   -1    0    0  501  502 -0.00000000000E+00 -0.00000000000E+00 -0.21491644893E+04  0.21491644893E+04  0.00000000000E+00 0. -1.
       39    2    1    2    0    0  0.00000000000E+00  0.00000000000E+00 -0.15749886869E+04  0.27233402917E+04  0.22217094726E+04 0.  0.
       25    1    3    3    0    0 -0.74393024313E+03  0.61038448325E+03 -0.14502941930E+04  0.17449870115E+04  0.12500000000E+03 0.  0.
       25    1    3    3    0    0  0.74393024313E+03 -0.61038448325E+03 -0.12469449386E+03  0.97835328018E+03  0.12500000000E+03 0.  0.
<mgrwt>
<rscale>  0 0.22217095E+04</rscale>
<asrwt>0</asrwt>
<pdfrwt beam="1">  1       21 0.88334738E-01 0.22217095E+04</pdfrwt>
<pdfrwt beam="2">  1       21 0.33064069E+00 0.22217095E+04</pdfrwt>
<totfact> 0.88244436E+00</totfact>
</mgrwt>
<rwgt>
  <wgt id="1">5.79e-12</wgt>
  <wgt id="2">5.00159e-12</wgt>
  <wgt id="3">6.77738e-12</wgt>
  <wgt id="4">5.79e-12</wgt>
  <wgt id="5">5.00159e-12</wgt>
  <wgt id="6">6.77738e-12</wgt>
  <wgt id="7">5.79e-12</wgt>
  <wgt id="8">5.00159e-12</wgt>
  <wgt id="9">6.77738e-12</wgt>
  <wgt id="10">6.08916e-12</wgt>
  <wgt id="11">6.08784e-12</wgt>
  <wgt id="12">6.07387e-12</wgt>
  <wgt id="13">6.07802e-12</wgt>
  <wgt id="14">6.10847e-12</wgt>
  <wgt id="15">6.09875e-12</wgt>
  <wgt id="16">6.07343e-12</wgt>
  <wgt id="17">6.12384e-12</wgt>
  <wgt id="18">6.08392e-12</wgt>
  <wgt id="19">6.1151e-12</wgt>
  <wgt id="20">6.08882e-12</wgt>
  <wgt id="21">6.03872e-12</wgt>
  <wgt id="22">6.04244e-12</wgt>
  <wgt id="23">5.99021e-12</wgt>
  <wgt id="24">6.03975e-12</wgt>
  <wgt id="25">6.06526e-12</wgt>
  <wgt id="26">6.10533e-12</wgt>
  <wgt id="27">6.07586e-12</wgt>
  <wgt id="28">6.04806e-12</wgt>
  <wgt id="29">6.09074e-12</wgt>
  <wgt id="30">6.03504e-12</wgt>
  <wgt id="31">6.11678e-12</wgt>
  <wgt id="32">6.03818e-12</wgt>
  <wgt id="33">6.09639e-12</wgt>
  <wgt id="34">6.04587e-12</wgt>
  <wgt id="35">6.0427e-12</wgt>
  <wgt id="36">6.12079e-12</wgt>
  <wgt id="37">6.06775e-12</wgt>
  <wgt id="38">6.0609e-12</wgt>
  <wgt id="39">6.204e-12</wgt>
  <wgt id="40">6.09594e-12</wgt>
  <wgt id="41">6.08561e-12</wgt>
  <wgt id="42">6.10109e-12</wgt>
  <wgt id="43">6.09479e-12</wgt>
  <wgt id="44">6.12865e-12</wgt>
  <wgt id="45">6.09639e-12</wgt>
  <wgt id="46">6.06144e-12</wgt>
  <wgt id="47">6.15844e-12</wgt>
  <wgt id="48">6.12876e-12</wgt>
  <wgt id="49">6.04967e-12</wgt>
  <wgt id="50">6.02859e-12</wgt>
  <wgt id="51">6.04494e-12</wgt>
  <wgt id="52">6.10694e-12</wgt>
  <wgt id="53">6.15647e-12</wgt>
  <wgt id="54">6.12492e-12</wgt>
  <wgt id="55">6.08401e-12</wgt>
  <wgt id="56">6.0521e-12</wgt>
  <wgt id="57">6.0459e-12</wgt>
  <wgt id="58">6.08721e-12</wgt>
  <wgt id="59">6.10272e-12</wgt>
  <wgt id="60">6.03294e-12</wgt>
  <wgt id="61">6.0573e-12</wgt>
  <wgt id="62">6.07968e-12</wgt>
  <wgt id="63">6.08438e-12</wgt>
  <wgt id="64">6.08331e-12</wgt>
  <wgt id="65">6.05937e-12</wgt>
  <wgt id="66">6.09814e-12</wgt>
  <wgt id="67">6.08751e-12</wgt>
  <wgt id="68">6.08702e-12</wgt>
  <wgt id="69">6.0761e-12</wgt>
  <wgt id="70">6.06661e-12</wgt>
  <wgt id="71">6.08928e-12</wgt>
  <wgt id="72">6.05772e-12</wgt>
  <wgt id="73">6.11159e-12</wgt>
  <wgt id="74">6.11602e-12</wgt>
  <wgt id="75">6.08408e-12</wgt>
  <wgt id="76">6.13216e-12</wgt>
  <wgt id="77">6.07709e-12</wgt>
  <wgt id="78">6.08363e-12</wgt>
  <wgt id="79">6.10437e-12</wgt>
  <wgt id="80">6.03548e-12</wgt>
  <wgt id="81">6.08636e-12</wgt>
  <wgt id="82">6.09555e-12</wgt>
  <wgt id="83">6.04796e-12</wgt>
  <wgt id="84">6.06524e-12</wgt>
  <wgt id="85">6.0629e-12</wgt>
  <wgt id="86">6.11621e-12</wgt>
  <wgt id="87">6.02783e-12</wgt>
  <wgt id="88">6.10898e-12</wgt>
  <wgt id="89">6.10212e-12</wgt>
  <wgt id="90">6.11169e-12</wgt>
  <wgt id="91">6.09709e-12</wgt>
  <wgt id="92">6.10785e-12</wgt>
  <wgt id="93">6.0962e-12</wgt>
  <wgt id="94">6.07048e-12</wgt>
  <wgt id="95">6.10973e-12</wgt>
  <wgt id="96">6.10669e-12</wgt>
  <wgt id="97">6.0631e-12</wgt>
  <wgt id="98">6.089e-12</wgt>
  <wgt id="99">6.08219e-12</wgt>
  <wgt id="100">6.10333e-12</wgt>
  <wgt id="101">6.07914e-12</wgt>
  <wgt id="102">6.07664e-12</wgt>
  <wgt id="103">6.11266e-12</wgt>
  <wgt id="104">6.07698e-12</wgt>
  <wgt id="105">6.10419e-12</wgt>
  <wgt id="106">6.07201e-12</wgt>
  <wgt id="107">6.12774e-12</wgt>
  <wgt id="108">6.07655e-12</wgt>
  <wgt id="109">6.0937e-12</wgt>
  <wgt id="110">6.08711e-12</wgt>
  <wgt id="111">6.08303e-12</wgt>
  <wgt id="112">6.17308e-12</wgt>
  <wgt id="113">8.74386e-12</wgt>
  <wgt id="114">8.06818e-12</wgt>
  <wgt id="115">7.91234e-12</wgt>
  <wgt id="116">1.07862e-11</wgt>
  <wgt id="117">6.65819e-12</wgt>
  <wgt id="118">6.68218e-12</wgt>
  <wgt id="119">6.64446e-12</wgt>
  <wgt id="120">6.65835e-12</wgt>
  <wgt id="121">6.65803e-12</wgt>
  <wgt id="122">6.64769e-12</wgt>
  <wgt id="123">6.67274e-12</wgt>
  <wgt id="124">6.64932e-12</wgt>
  <wgt id="125">6.66395e-12</wgt>
  <wgt id="126">6.66703e-12</wgt>
  <wgt id="127">6.65231e-12</wgt>
  <wgt id="128">6.67842e-12</wgt>
  <wgt id="129">6.63809e-12</wgt>
  <wgt id="130">6.69001e-12</wgt>
  <wgt id="131">6.62515e-12</wgt>
  <wgt id="132">6.47466e-12</wgt>
  <wgt id="133">6.87665e-12</wgt>
  <wgt id="134">6.58781e-12</wgt>
  <wgt id="135">6.71344e-12</wgt>
  <wgt id="136">6.76028e-12</wgt>
  <wgt id="137">6.53555e-12</wgt>
  <wgt id="138">6.96091e-12</wgt>
  <wgt id="139">6.3711e-12</wgt>
  <wgt id="140">6.62718e-12</wgt>
  <wgt id="141">6.68142e-12</wgt>
  <wgt id="142">6.6563e-12</wgt>
  <wgt id="143">6.67937e-12</wgt>
  <wgt id="144">6.38078e-12</wgt>
  <wgt id="145">6.92808e-12</wgt>
  <wgt id="146">6.74711e-12</wgt>
  <wgt id="147">6.58518e-12</wgt>
  <wgt id="148">6.68247e-12</wgt>
  <wgt id="149">6.65643e-12</wgt>
  <wgt id="150">6.71351e-12</wgt>
  <wgt id="151">6.63221e-12</wgt>
  <wgt id="152">6.65974e-12</wgt>
  <wgt id="153">6.6576e-12</wgt>
  <wgt id="154">6.67112e-12</wgt>
  <wgt id="155">6.62902e-12</wgt>
  <wgt id="156">6.88591e-12</wgt>
  <wgt id="157">6.45092e-12</wgt>
  <wgt id="158">7.97675e-12</wgt>
  <wgt id="159">8.011e-12</wgt>
  <wgt id="160">7.94934e-12</wgt>
  <wgt id="161">7.95722e-12</wgt>
  <wgt id="162">7.99884e-12</wgt>
  <wgt id="163">7.96808e-12</wgt>
  <wgt id="164">7.98977e-12</wgt>
  <wgt id="165">7.97973e-12</wgt>
  <wgt id="166">7.97474e-12</wgt>
  <wgt id="167">7.97132e-12</wgt>
  <wgt id="168">7.98465e-12</wgt>
  <wgt id="169">7.94396e-12</wgt>
  <wgt id="170">7.99723e-12</wgt>
  <wgt id="171">7.9717e-12</wgt>
  <wgt id="172">7.98409e-12</wgt>
  <wgt id="173">7.96151e-12</wgt>
  <wgt id="174">7.98236e-12</wgt>
  <wgt id="175">7.74749e-12</wgt>
  <wgt id="176">8.27732e-12</wgt>
  <wgt id="177">8.01232e-12</wgt>
  <wgt id="178">7.94465e-12</wgt>
  <wgt id="179">8.38325e-12</wgt>
  <wgt id="180">7.35089e-12</wgt>
  <wgt id="181">7.71125e-12</wgt>
  <wgt id="182">8.1542e-12</wgt>
  <wgt id="183">7.81571e-12</wgt>
  <wgt id="184">8.05697e-12</wgt>
  <wgt id="185">7.88695e-12</wgt>
  <wgt id="186">8.08494e-12</wgt>
  <wgt id="187">7.88563e-12</wgt>
  <wgt id="188">8.1377e-12</wgt>
  <wgt id="189">7.91432e-12</wgt>
  <wgt id="190">8.00244e-12</wgt>
  <wgt id="191">8.00582e-12</wgt>
  <wgt id="192">7.95967e-12</wgt>
  <wgt id="193">8.11049e-12</wgt>
  <wgt id="194">7.90941e-12</wgt>
  <wgt id="195">7.68927e-12</wgt>
  <wgt id="196">8.44593e-12</wgt>
  <wgt id="197">8.01919e-12</wgt>
  <wgt id="198">7.96653e-12</wgt>
  <wgt id="199">7.97675e-12</wgt>
  <wgt id="200">8.05448e-12</wgt>
  <wgt id="201">8.0283e-12</wgt>
  <wgt id="202">8.00278e-12</wgt>
  <wgt id="203">7.96675e-12</wgt>
  <wgt id="204">7.94836e-12</wgt>
  <wgt id="205">7.93291e-12</wgt>
  <wgt id="206">7.81741e-12</wgt>
  <wgt id="207">7.86374e-12</wgt>
  <wgt id="208">7.77091e-12</wgt>
  <wgt id="209">7.83948e-12</wgt>
  <wgt id="210">7.80115e-12</wgt>
  <wgt id="211">7.81496e-12</wgt>
  <wgt id="212">7.81924e-12</wgt>
  <wgt id="213">7.81646e-12</wgt>
  <wgt id="214">7.81819e-12</wgt>
  <wgt id="215">7.82294e-12</wgt>
  <wgt id="216">7.81348e-12</wgt>
  <wgt id="217">7.83418e-12</wgt>
  <wgt id="218">7.80384e-12</wgt>
  <wgt id="219">7.80635e-12</wgt>
  <wgt id="220">7.82401e-12</wgt>
  <wgt id="221">7.82074e-12</wgt>
  <wgt id="222">7.80698e-12</wgt>
  <wgt id="223">7.37386e-12</wgt>
  <wgt id="224">8.22371e-12</wgt>
  <wgt id="225">7.72142e-12</wgt>
  <wgt id="226">7.93928e-12</wgt>
  <wgt id="227">7.74297e-12</wgt>
  <wgt id="228">7.85005e-12</wgt>
  <wgt id="229">7.70578e-12</wgt>
  <wgt id="230">7.87249e-12</wgt>
  <wgt id="231">8.08422e-12</wgt>
  <wgt id="232">7.59892e-12</wgt>
  <wgt id="233">7.76734e-12</wgt>
  <wgt id="234">7.9011e-12</wgt>
  <wgt id="235">7.48741e-12</wgt>
  <wgt id="236">8.08619e-12</wgt>
  <wgt id="237">7.62604e-12</wgt>
  <wgt id="238">7.88077e-12</wgt>
  <wgt id="239">7.74036e-12</wgt>
  <wgt id="240">7.95554e-12</wgt>
  <wgt id="241">7.72143e-12</wgt>
  <wgt id="242">7.93003e-12</wgt>
  <wgt id="243">7.95287e-12</wgt>
  <wgt id="244">7.81541e-12</wgt>
  <wgt id="245">7.81453e-12</wgt>
  <wgt id="246">7.85898e-12</wgt>
  <wgt id="247">7.81741e-12</wgt>
  <wgt id="248">7.90181e-12</wgt>
  <wgt id="249">7.87317e-12</wgt>
  <wgt id="250">7.8426e-12</wgt>
  <wgt id="251">7.80178e-12</wgt>
  <wgt id="252">7.78068e-12</wgt>
  <wgt id="253">7.76648e-12</wgt>
  <wgt id="254">7.52692e-12</wgt>
  <wgt id="255">7.53324e-12</wgt>
  <wgt id="256">7.51967e-12</wgt>
  <wgt id="257">7.53292e-12</wgt>
  <wgt id="258">7.52252e-12</wgt>
  <wgt id="259">7.57737e-12</wgt>
  <wgt id="260">7.47837e-12</wgt>
  <wgt id="261">7.53821e-12</wgt>
  <wgt id="262">7.51391e-12</wgt>
  <wgt id="263">7.52132e-12</wgt>
  <wgt id="264">7.53312e-12</wgt>
  <wgt id="265">7.51811e-12</wgt>
  <wgt id="266">7.54462e-12</wgt>
  <wgt id="267">7.52967e-12</wgt>
  <wgt id="268">7.5235e-12</wgt>
  <wgt id="269">7.54952e-12</wgt>
  <wgt id="270">7.51153e-12</wgt>
  <wgt id="271">7.50581e-12</wgt>
  <wgt id="272">7.55068e-12</wgt>
  <wgt id="273">7.5076e-12</wgt>
  <wgt id="274">7.54152e-12</wgt>
  <wgt id="275">7.48067e-12</wgt>
  <wgt id="276">7.57529e-12</wgt>
  <wgt id="277">7.48341e-12</wgt>
  <wgt id="278">7.56683e-12</wgt>
  <wgt id="279">7.38973e-12</wgt>
  <wgt id="280">7.69967e-12</wgt>
  <wgt id="281">7.49164e-12</wgt>
  <wgt id="282">7.53815e-12</wgt>
  <wgt id="283">7.28069e-12</wgt>
  <wgt id="284">7.83458e-12</wgt>
  <wgt id="285">7.11978e-12</wgt>
  <wgt id="286">7.87206e-12</wgt>
  <wgt id="287">7.55385e-12</wgt>
  <wgt id="288">7.49247e-12</wgt>
  <wgt id="289">7.58836e-12</wgt>
  <wgt id="290">7.39239e-12</wgt>
  <wgt id="291">7.49769e-12</wgt>
  <wgt id="292">7.52685e-12</wgt>
  <wgt id="293">7.46062e-12</wgt>
  <wgt id="294">7.59316e-12</wgt>
  <wgt id="295">7.36567e-12</wgt>
  <wgt id="296">7.72454e-12</wgt>
  <wgt id="297">7.50757e-12</wgt>
  <wgt id="298">7.56508e-12</wgt>
  <wgt id="299">7.50137e-12</wgt>
  <wgt id="300">7.5947e-12</wgt>
  <wgt id="301">7.37306e-12</wgt>
  <wgt id="302">7.88072e-12</wgt>
  <wgt id="303">7.44268e-12</wgt>
  <wgt id="304">7.57409e-12</wgt>
  <wgt id="305">7.45287e-12</wgt>
  <wgt id="306">7.45986e-12</wgt>
  <wgt id="307">7.4457e-12</wgt>
  <wgt id="308">7.45954e-12</wgt>
  <wgt id="309">7.44893e-12</wgt>
  <wgt id="310">7.5045e-12</wgt>
  <wgt id="311">7.40607e-12</wgt>
  <wgt id="312">7.46306e-12</wgt>
  <wgt id="313">7.44245e-12</wgt>
  <wgt id="314">7.44744e-12</wgt>
  <wgt id="315">7.45861e-12</wgt>
  <wgt id="316">7.4443e-12</wgt>
  <wgt id="317">7.47243e-12</wgt>
  <wgt id="318">7.45882e-12</wgt>
  <wgt id="319">7.4433e-12</wgt>
  <wgt id="320">7.47734e-12</wgt>
  <wgt id="321">7.43977e-12</wgt>
  <wgt id="322">7.43019e-12</wgt>
  <wgt id="323">7.48004e-12</wgt>
  <wgt id="324">7.43927e-12</wgt>
  <wgt id="325">7.46497e-12</wgt>
  <wgt id="326">7.41473e-12</wgt>
  <wgt id="327">7.50236e-12</wgt>
  <wgt id="328">7.41424e-12</wgt>
  <wgt id="329">7.47448e-12</wgt>
  <wgt id="330">7.66267e-12</wgt>
  <wgt id="331">7.25425e-12</wgt>
  <wgt id="332">7.42399e-12</wgt>
  <wgt id="333">7.46047e-12</wgt>
  <wgt id="334">7.26627e-12</wgt>
  <wgt id="335">7.68784e-12</wgt>
  <wgt id="336">7.1652e-12</wgt>
  <wgt id="337">7.81038e-12</wgt>
  <wgt id="338">7.54606e-12</wgt>
  <wgt id="339">7.36778e-12</wgt>
  <wgt id="340">7.50805e-12</wgt>
  <wgt id="341">7.3184e-12</wgt>
  <wgt id="342">7.43263e-12</wgt>
  <wgt id="343">7.43758e-12</wgt>
  <wgt id="344">7.39515e-12</wgt>
  <wgt id="345">7.5207e-12</wgt>
  <wgt id="346">7.28923e-12</wgt>
  <wgt id="347">7.64108e-12</wgt>
  <wgt id="348">7.43541e-12</wgt>
  <wgt id="349">7.48748e-12</wgt>
  <wgt id="350">7.4215e-12</wgt>
  <wgt id="351">7.5332e-12</wgt>
  <wgt id="352">7.29824e-12</wgt>
  <wgt id="353">7.79578e-12</wgt>
  <wgt id="354">7.33441e-12</wgt>
  <wgt id="355">7.52314e-12</wgt>
  <wgt id="356">7.52692e-12</wgt>
  <wgt id="357">7.45697e-12</wgt>
  <wgt id="358">7.45287e-12</wgt>
  <wgt id="359">7.52369e-12</wgt>
  <wgt id="360">7.66332e-12</wgt>
  <wgt id="361">7.56741e-12</wgt>
  <wgt id="362">7.71884e-12</wgt>
  <wgt id="363">7.6993e-12</wgt>
  <wgt id="364">7.66062e-12</wgt>
  <wgt id="365">7.63133e-12</wgt>
  <wgt id="366">7.60207e-12</wgt>
  <wgt id="367">7.5459e-12</wgt>
  <wgt id="368">7.50973e-12</wgt>
  <wgt id="369">7.47071e-12</wgt>
  <wgt id="370">7.56741e-12</wgt>
  <wgt id="371">7.59797e-12</wgt>
  <wgt id="372">7.58044e-12</wgt>
  <wgt id="373">7.55619e-12</wgt>
  <wgt id="374">7.5668e-12</wgt>
  <wgt id="375">8.69785e-12</wgt>
  <wgt id="376">8.69808e-12</wgt>
  <wgt id="377">8.69727e-12</wgt>
  <wgt id="378">8.73114e-12</wgt>
  <wgt id="379">8.66474e-12</wgt>
  <wgt id="380">8.72292e-12</wgt>
  <wgt id="381">8.68777e-12</wgt>
  <wgt id="382">8.73664e-12</wgt>
  <wgt id="383">8.65941e-12</wgt>
  <wgt id="384">8.70336e-12</wgt>
  <wgt id="385">8.69247e-12</wgt>
  <wgt id="386">8.72404e-12</wgt>
  <wgt id="387">8.68656e-12</wgt>
  <wgt id="388">8.69054e-12</wgt>
  <wgt id="389">8.70657e-12</wgt>
  <wgt id="390">8.71682e-12</wgt>
  <wgt id="391">8.67795e-12</wgt>
  <wgt id="392">8.62073e-12</wgt>
  <wgt id="393">8.74126e-12</wgt>
  <wgt id="394">8.70322e-12</wgt>
  <wgt id="395">8.69003e-12</wgt>
  <wgt id="396">8.71358e-12</wgt>
  <wgt id="397">8.68674e-12</wgt>
  <wgt id="398">8.68579e-12</wgt>
  <wgt id="399">8.70916e-12</wgt>
  <wgt id="400">8.68491e-12</wgt>
  <wgt id="401">8.72549e-12</wgt>
  <wgt id="402">8.61699e-12</wgt>
  <wgt id="403">8.7505e-12</wgt>
  <wgt id="404">8.95328e-12</wgt>
  <wgt id="405">8.09085e-12</wgt>
  <wgt id="406">8.51267e-12</wgt>
  <wgt id="407">9.10946e-12</wgt>
  <wgt id="408">8.79393e-12</wgt>
  <wgt id="409">8.52016e-12</wgt>
  <wgt id="410">8.39893e-12</wgt>
  <wgt id="411">8.8419e-12</wgt>
  <wgt id="412">8.67684e-12</wgt>
  <wgt id="413">8.72761e-12</wgt>
  <wgt id="414">8.57871e-12</wgt>
  <wgt id="415">8.79021e-12</wgt>
  <wgt id="416">9.00088e-12</wgt>
  <wgt id="417">8.28185e-12</wgt>
  <wgt id="418">8.71641e-12</wgt>
  <wgt id="419">8.59811e-12</wgt>
  <wgt id="420">8.91543e-12</wgt>
  <wgt id="421">8.55122e-12</wgt>
  <wgt id="422">8.64122e-12</wgt>
  <wgt id="423">8.72395e-12</wgt>
  <wgt id="424">8.96437e-12</wgt>
  <wgt id="425">8.5153e-12</wgt>
  <wgt id="426">8.69785e-12</wgt>
  <wgt id="427">8.51482e-12</wgt>
  <wgt id="428">9.11013e-12</wgt>
  <wgt id="429">8.81997e-12</wgt>
  <wgt id="430">9.11453e-12</wgt>
  <wgt id="431">9.05466e-12</wgt>
  <wgt id="432">9.00053e-12</wgt>
  <wgt id="433">8.94712e-12</wgt>
  <wgt id="434">8.87871e-12</wgt>
  <wgt id="435">8.74641e-12</wgt>
  <wgt id="436">8.67992e-12</wgt>
  <wgt id="437">8.61458e-12</wgt>
  <wgt id="438">8.81997e-12</wgt>
  <wgt id="439">8.84652e-12</wgt>
  <wgt id="440">8.82954e-12</wgt>
  <wgt id="441">8.81321e-12</wgt>
  <wgt id="442">8.8081e-12</wgt>
  <wgt id="443">7.89e-12</wgt>
  <wgt id="444">7.9783e-12</wgt>
  <wgt id="445">7.98709e-12</wgt>
  <wgt id="446">7.83049e-12</wgt>
  <wgt id="447">7.89454e-12</wgt>
  <wgt id="448">7.70186e-12</wgt>
  <wgt id="449">8.06206e-12</wgt>
  <wgt id="450">8.00782e-12</wgt>
  <wgt id="451">7.8666e-12</wgt>
  <wgt id="452">8.06205e-12</wgt>
  <wgt id="453">7.99636e-12</wgt>
  <wgt id="454">7.46994e-12</wgt>
  <wgt id="455">7.96321e-12</wgt>
  <wgt id="456">8.05496e-12</wgt>
  <wgt id="457">7.91474e-12</wgt>
  <wgt id="458">8.03999e-12</wgt>
  <wgt id="459">7.96425e-12</wgt>
  <wgt id="460">8.06659e-12</wgt>
  <wgt id="461">7.69365e-12</wgt>
  <wgt id="462">7.83534e-12</wgt>
  <wgt id="463">7.75789e-12</wgt>
  <wgt id="464">7.85182e-12</wgt>
  <wgt id="465">7.97506e-12</wgt>
  <wgt id="466">7.68509e-12</wgt>
  <wgt id="467">7.83021e-12</wgt>
  <wgt id="468">7.88632e-12</wgt>
  <wgt id="469">7.86993e-12</wgt>
  <wgt id="470">7.75911e-12</wgt>
  <wgt id="471">7.7859e-12</wgt>
  <wgt id="472">7.94812e-12</wgt>
  <wgt id="473">7.62938e-12</wgt>
  <wgt id="474">5.79e-12</wgt>
  <wgt id="475">5.77599e-12</wgt>
  <wgt id="476">5.76343e-12</wgt>
  <wgt id="477">5.88595e-12</wgt>
  <wgt id="478">5.8842e-12</wgt>
  <wgt id="479">5.47113e-12</wgt>
  <wgt id="480">6.12798e-12</wgt>
  <wgt id="481">5.84801e-12</wgt>
  <wgt id="482">5.83152e-12</wgt>
  <wgt id="483">5.86478e-12</wgt>
  <wgt id="484">6.03393e-12</wgt>
  <wgt id="485">5.25791e-12</wgt>
  <wgt id="486">6.10566e-12</wgt>
  <wgt id="487">5.60686e-12</wgt>
  <wgt id="488">5.83573e-12</wgt>
  <wgt id="489">5.1605e-12</wgt>
  <wgt id="490">5.71645e-12</wgt>
  <wgt id="491">5.71144e-12</wgt>
  <wgt id="492">5.70561e-12</wgt>
  <wgt id="493">5.30845e-12</wgt>
  <wgt id="494">5.32966e-12</wgt>
  <wgt id="495">5.82219e-12</wgt>
  <wgt id="496">5.46295e-12</wgt>
  <wgt id="497">5.38632e-12</wgt>
  <wgt id="498">5.95921e-12</wgt>
  <wgt id="499">5.8625e-12</wgt>
  <wgt id="500">5.75253e-12</wgt>
  <wgt id="501">6.00796e-12</wgt>
  <wgt id="502">6.08632e-12</wgt>
  <wgt id="503">5.67683e-12</wgt>
  <wgt id="504">6.00321e-12</wgt>
  <wgt id="505">6.04578e-12</wgt>
  <wgt id="506">5.35234e-12</wgt>
  <wgt id="507">5.6528e-12</wgt>
  <wgt id="508">6.12459e-12</wgt>
  <wgt id="509">5.57234e-12</wgt>
  <wgt id="510">5.82308e-12</wgt>
  <wgt id="511">5.46779e-12</wgt>
  <wgt id="512">6.22728e-12</wgt>
  <wgt id="513">6.06262e-12</wgt>
  <wgt id="514">6.16711e-12</wgt>
  <wgt id="515">5.99314e-12</wgt>
  <wgt id="516">6.45709e-12</wgt>
  <wgt id="517">5.93004e-12</wgt>
  <wgt id="518">6.02594e-12</wgt>
  <wgt id="519">5.55139e-12</wgt>
  <wgt id="520">5.86749e-12</wgt>
  <wgt id="521">5.61065e-12</wgt>
  <wgt id="522">6.01148e-12</wgt>
  <wgt id="523">5.47442e-12</wgt>
  <wgt id="524">5.93899e-12</wgt>
  <wgt id="525">5.63091e-12</wgt>
  <wgt id="526">6.12875e-12</wgt>
  <wgt id="527">5.69559e-12</wgt>
  <wgt id="528">5.75835e-12</wgt>
  <wgt id="529">5.48424e-12</wgt>
  <wgt id="530">6.11641e-12</wgt>
  <wgt id="531">5.52882e-12</wgt>
  <wgt id="532">6.28861e-12</wgt>
  <wgt id="533">5.81321e-12</wgt>
  <wgt id="534">5.52892e-12</wgt>
  <wgt id="535">5.90088e-12</wgt>
  <wgt id="536">6.01305e-12</wgt>
  <wgt id="537">5.45353e-12</wgt>
  <wgt id="538">5.73107e-12</wgt>
  <wgt id="539">5.65471e-12</wgt>
  <wgt id="540">6.1349e-12</wgt>
  <wgt id="541">5.76101e-12</wgt>
  <wgt id="542">5.65128e-12</wgt>
  <wgt id="543">5.56353e-12</wgt>
  <wgt id="544">5.81955e-12</wgt>
  <wgt id="545">5.44156e-12</wgt>
  <wgt id="546">5.27504e-12</wgt>
  <wgt id="547">5.57514e-12</wgt>
  <wgt id="548">5.60902e-12</wgt>
  <wgt id="549">5.68327e-12</wgt>
  <wgt id="550">5.57993e-12</wgt>
  <wgt id="551">5.79303e-12</wgt>
  <wgt id="552">5.30868e-12</wgt>
  <wgt id="553">5.37944e-12</wgt>
  <wgt id="554">6.06103e-12</wgt>
  <wgt id="555">5.9203e-12</wgt>
  <wgt id="556">5.71645e-12</wgt>
  <wgt id="557">5.90262e-12</wgt>
  <wgt id="558">5.74788e-12</wgt>
  <wgt id="559">5.84677e-12</wgt>
  <wgt id="560">6.40383e-12</wgt>
  <wgt id="561">5.98785e-12</wgt>
  <wgt id="562">6.03006e-12</wgt>
  <wgt id="563">6.43172e-12</wgt>
  <wgt id="564">6.1787e-12</wgt>
  <wgt id="565">6.06638e-12</wgt>
  <wgt id="566">5.55996e-12</wgt>
  <wgt id="567">5.805e-12</wgt>
  <wgt id="568">5.54418e-12</wgt>
  <wgt id="569">5.87863e-12</wgt>
  <wgt id="570">5.84861e-12</wgt>
  <wgt id="571">6.40162e-12</wgt>
  <wgt id="572">5.57883e-12</wgt>
  <wgt id="573">5.6334e-12</wgt>
  <wgt id="574">5.67249e-12</wgt>
  <wgt id="575">6.38238e-12</wgt>
  <wgt id="576">7.0439e-12</wgt>
  <wgt id="577">6.64983e-12</wgt>
  <wgt id="578">6.44492e-12</wgt>
  <wgt id="579">6.65235e-12</wgt>
  <wgt id="580">6.82761e-12</wgt>
  <wgt id="581">7.07161e-12</wgt>
  <wgt id="582">6.90191e-12</wgt>
  <wgt id="583">6.54553e-12</wgt>
  <wgt id="584">6.30621e-12</wgt>
  <wgt id="585">5.85915e-12</wgt>
  <wgt id="586">5.97476e-12</wgt>
  <wgt id="587">6.52204e-12</wgt>
  <wgt id="588">7.1049e-12</wgt>
  <wgt id="589">7.05763e-12</wgt>
  <wgt id="590">6.33507e-12</wgt>
  <wgt id="591">6.55906e-12</wgt>
  <wgt id="592">5.95022e-12</wgt>
  <wgt id="593">6.15668e-12</wgt>
  <wgt id="594">6.17993e-12</wgt>
  <wgt id="595">6.77965e-12</wgt>
  <wgt id="596">7.61628e-12</wgt>
  <wgt id="597">6.51366e-12</wgt>
  <wgt id="598">6.52451e-12</wgt>
  <wgt id="599">6.86126e-12</wgt>
  <wgt id="600">6.93373e-12</wgt>
  <wgt id="601">6.10544e-12</wgt>
  <wgt id="602">6.14762e-12</wgt>
  <wgt id="603">5.91642e-12</wgt>
  <wgt id="604">6.57324e-12</wgt>
  <wgt id="605">6.40048e-12</wgt>
  <wgt id="606">6.51799e-12</wgt>
  <wgt id="607">6.73964e-12</wgt>
  <wgt id="608">6.6483e-12</wgt>
  <wgt id="609">6.33954e-12</wgt>
  <wgt id="610">6.06459e-12</wgt>
  <wgt id="611">6.00895e-12</wgt>
  <wgt id="612">6.50785e-12</wgt>
  <wgt id="613">6.0507e-12</wgt>
  <wgt id="614">6.32615e-12</wgt>
  <wgt id="615">6.54764e-12</wgt>
  <wgt id="616">6.01175e-12</wgt>
  <wgt id="617">6.66053e-12</wgt>
  <wgt id="618">7.07037e-12</wgt>
  <wgt id="619">6.24877e-12</wgt>
  <wgt id="620">6.58738e-12</wgt>
  <wgt id="621">6.28489e-12</wgt>
  <wgt id="622">6.52204e-12</wgt>
  <wgt id="623">6.38053e-12</wgt>
  <wgt id="624">6.42131e-12</wgt>
  <wgt id="625">6.05265e-12</wgt>
  <wgt id="626">5.55541e-12</wgt>
  <wgt id="627">5.7074e-12</wgt>
  <wgt id="628">6.32772e-12</wgt>
  <wgt id="629">6.63148e-12</wgt>
  <wgt id="630">6.14692e-12</wgt>
  <wgt id="631">6.58694e-12</wgt>
  <wgt id="632">5.7849e-12</wgt>
  <wgt id="633">6.34638e-12</wgt>
  <wgt id="634">6.05094e-12</wgt>
  <wgt id="635">5.84973e-12</wgt>
  <wgt id="636">6.44518e-12</wgt>
  <wgt id="637">6.31358e-12</wgt>
  <wgt id="638">6.06155e-12</wgt>
  <wgt id="639">6.06136e-12</wgt>
  <wgt id="640">6.18712e-12</wgt>
  <wgt id="641">6.73523e-12</wgt>
  <wgt id="642">5.66294e-12</wgt>
  <wgt id="643">6.1818e-12</wgt>
  <wgt id="644">5.70395e-12</wgt>
  <wgt id="645">6.36572e-12</wgt>
  <wgt id="646">5.72793e-12</wgt>
  <wgt id="647">6.51554e-12</wgt>
  <wgt id="648">6.74159e-12</wgt>
  <wgt id="649">6.40571e-12</wgt>
  <wgt id="650">6.09539e-12</wgt>
  <wgt id="651">6.8682e-12</wgt>
  <wgt id="652">6.06031e-12</wgt>
  <wgt id="653">6.09236e-12</wgt>
  <wgt id="654">6.49143e-12</wgt>
  <wgt id="655">6.08676e-12</wgt>
  <wgt id="656">6.4277e-12</wgt>
  <wgt id="657">7.06666e-12</wgt>
  <wgt id="658">6.32343e-12</wgt>
  <wgt id="659">6.11176e-12</wgt>
  <wgt id="660">6.1133e-12</wgt>
  <wgt id="661">6.1964e-12</wgt>
  <wgt id="662">6.28323e-12</wgt>
  <wgt id="663">6.53166e-12</wgt>
  <wgt id="664">6.51584e-12</wgt>
  <wgt id="665">6.28724e-12</wgt>
  <wgt id="666">6.20779e-12</wgt>
  <wgt id="667">6.75469e-12</wgt>
  <wgt id="668">6.26899e-12</wgt>
  <wgt id="669">6.32798e-12</wgt>
  <wgt id="670">6.73334e-12</wgt>
  <wgt id="671">6.49246e-12</wgt>
  <wgt id="672">6.27282e-12</wgt>
  <wgt id="673">6.86721e-12</wgt>
  <wgt id="674">6.16459e-12</wgt>
  <wgt id="675">6.11992e-12</wgt>
  <wgt id="676">8.26504e-12</wgt>
  <wgt id="677">8.35333e-12</wgt>
  <wgt id="678">9.13914e-12</wgt>
  <wgt id="679">8.64677e-12</wgt>
  <wgt id="680">8.36815e-12</wgt>
  <wgt id="681">8.01858e-12</wgt>
  <wgt id="682">8.74059e-12</wgt>
  <wgt id="683">7.4814e-12</wgt>
  <wgt id="684">8.74522e-12</wgt>
  <wgt id="685">8.31506e-12</wgt>
  <wgt id="686">8.506e-12</wgt>
  <wgt id="687">8.46248e-12</wgt>
  <wgt id="688">8.00871e-12</wgt>
  <wgt id="689">8.65607e-12</wgt>
  <wgt id="690">8.45535e-12</wgt>
  <wgt id="691">8.46645e-12</wgt>
  <wgt id="692">8.0331e-12</wgt>
  <wgt id="693">1.11891e-11</wgt>
  <wgt id="694">9.17257e-12</wgt>
  <wgt id="695">7.67917e-12</wgt>
  <wgt id="696">7.90135e-12</wgt>
  <wgt id="697">7.37291e-12</wgt>
  <wgt id="698">6.67421e-12</wgt>
  <wgt id="699">6.93787e-12</wgt>
  <wgt id="700">7.31058e-12</wgt>
  <wgt id="701">8.24829e-12</wgt>
  <wgt id="702">7.90542e-12</wgt>
  <wgt id="703">1.04201e-11</wgt>
  <wgt id="704">9.34353e-12</wgt>
  <wgt id="705">9.36551e-12</wgt>
  <wgt id="706">7.68696e-12</wgt>
  <wgt id="707">7.6914e-12</wgt>
  <wgt id="708">7.80059e-12</wgt>
  <wgt id="709">7.95236e-12</wgt>
  <wgt id="710">6.76362e-12</wgt>
  <wgt id="711">8.93322e-12</wgt>
  <wgt id="712">7.68908e-12</wgt>
  <wgt id="713">8.92173e-12</wgt>
  <wgt id="714">7.30499e-12</wgt>
  <wgt id="715">7.83552e-12</wgt>
  <wgt id="716">7.92019e-12</wgt>
  <wgt id="717">7.07086e-12</wgt>
  <wgt id="718">8.48992e-12</wgt>
  <wgt id="719">7.55051e-12</wgt>
  <wgt id="720">8.5714e-12</wgt>
  <wgt id="721">6.98054e-12</wgt>
  <wgt id="722">6.34879e-12</wgt>
  <wgt id="723">9.40917e-12</wgt>
  <wgt id="724">9.03429e-12</wgt>
  <wgt id="725">8.63805e-12</wgt>
  <wgt id="726">8.19262e-12</wgt>
  <wgt id="727">8.33453e-12</wgt>
  <wgt id="728">8.13794e-12</wgt>
  <wgt id="729">7.44675e-12</wgt>
  <wgt id="730">9.23678e-12</wgt>
  <wgt id="731">8.12752e-12</wgt>
  <wgt id="732">9.71518e-12</wgt>
  <wgt id="733">7.60561e-12</wgt>
  <wgt id="734">8.56161e-12</wgt>
  <wgt id="735">8.24955e-12</wgt>
  <wgt id="736">7.57794e-12</wgt>
  <wgt id="737">7.49237e-12</wgt>
  <wgt id="738">7.84583e-12</wgt>
  <wgt id="739">8.77092e-12</wgt>
  <wgt id="740">9.91171e-12</wgt>
  <wgt id="741">8.83581e-12</wgt>
  <wgt id="742">7.81075e-12</wgt>
  <wgt id="743">7.50808e-12</wgt>
  <wgt id="744">8.08568e-12</wgt>
  <wgt id="745">9.11883e-12</wgt>
  <wgt id="746">9.3874e-12</wgt>
  <wgt id="747">6.75868e-12</wgt>
  <wgt id="748">7.93778e-12</wgt>
  <wgt id="749">8.59192e-12</wgt>
  <wgt id="750">9.00651e-12</wgt>
  <wgt id="751">8.31313e-12</wgt>
  <wgt id="752">7.39149e-12</wgt>
  <wgt id="753">7.32699e-12</wgt>
  <wgt id="754">8.67201e-12</wgt>
  <wgt id="755">8.02589e-12</wgt>
  <wgt id="756">7.96716e-12</wgt>
  <wgt id="757">7.03372e-12</wgt>
  <wgt id="758">7.98914e-12</wgt>
  <wgt id="759">9.13935e-12</wgt>
  <wgt id="760">7.82706e-12</wgt>
  <wgt id="761">9.26475e-12</wgt>
  <wgt id="762">9.30903e-12</wgt>
  <wgt id="763">8.54495e-12</wgt>
  <wgt id="764">8.90203e-12</wgt>
  <wgt id="765">8.4299e-12</wgt>
  <wgt id="766">8.40892e-12</wgt>
  <wgt id="767">8.44551e-12</wgt>
  <wgt id="768">7.44608e-12</wgt>
  <wgt id="769">8.68434e-12</wgt>
  <wgt id="770">7.65585e-12</wgt>
  <wgt id="771">1.02451e-11</wgt>
  <wgt id="772">8.06173e-12</wgt>
  <wgt id="773">8.33512e-12</wgt>
  <wgt id="774">6.44658e-12</wgt>
  <wgt id="775">8.684e-12</wgt>
  <wgt id="776">9.70506e-12</wgt>
  <wgt id="777">7.17758e-12</wgt>
  <wgt id="778">5.2623e-12</wgt>
  <wgt id="779">2.99854e-12</wgt>
  <wgt id="780">1.56576e-12</wgt>
  <wgt id="781">5.97905e-12</wgt>
  <wgt id="782">6.52377e-12</wgt>
  <wgt id="783">2.52541e-12</wgt>
  <wgt id="784">3.44566e-12</wgt>
  <wgt id="785">8.09594e-12</wgt>
  <wgt id="786">2.50288e-12</wgt>
  <wgt id="787">7.06543e-12</wgt>
  <wgt id="788">3.77948e-13</wgt>
  <wgt id="789">3.43757e-12</wgt>
  <wgt id="790">2.6217e-12</wgt>
  <wgt id="791">6.31373e-12</wgt>
  <wgt id="792">7.23972e-12</wgt>
  <wgt id="793">4.82725e-12</wgt>
  <wgt id="794">2.29488e-12</wgt>
  <wgt id="795">7.58748e-12</wgt>
  <wgt id="796">7.75278e-12</wgt>
  <wgt id="797">6.96843e-12</wgt>
  <wgt id="798">3.79828e-12</wgt>
  <wgt id="799">6.93947e-12</wgt>
  <wgt id="800">3.89971e-12</wgt>
  <wgt id="801">5.29204e-12</wgt>
  <wgt id="802">2.20171e-12</wgt>
  <wgt id="803">8.68857e-12</wgt>
  <wgt id="804">7.68908e-12</wgt>
  <wgt id="805">7.35236e-12</wgt>
  <wgt id="806">5.91486e-12</wgt>
  <wgt id="807">5.23548e-12</wgt>
  <wgt id="808">5.08517e-12</wgt>
  <wgt id="809">4.68416e-12</wgt>
  <wgt id="810">6.77623e-12</wgt>
  <wgt id="811">5.53694e-12</wgt>
  <wgt id="812">2.69316e-12</wgt>
  <wgt id="813">2.93836e-12</wgt>
  <wgt id="814">3.43933e-12</wgt>
  <wgt id="815">2.6394e-12</wgt>
  <wgt id="816">3.1707e-12</wgt>
  <wgt id="817">5.36743e-12</wgt>
  <wgt id="818">7.50019e-12</wgt>
  <wgt id="819">2.92164e-12</wgt>
  <wgt id="820">4.8687e-12</wgt>
  <wgt id="821">6.5627e-12</wgt>
  <wgt id="822">4.18317e-12</wgt>
  <wgt id="823">7.03152e-12</wgt>
  <wgt id="824">8.11068e-12</wgt>
  <wgt id="825">1.96976e-12</wgt>
  <wgt id="826">7.01598e-12</wgt>
  <wgt id="827">1.90204e-12</wgt>
  <wgt id="828">6.92149e-12</wgt>
  <wgt id="829">5.45786e-12</wgt>
  <wgt id="830">1.89979e-12</wgt>
  <wgt id="831">6.4722e-12</wgt>
  <wgt id="832">9.93027e-12</wgt>
  <wgt id="833">4.01941e-12</wgt>
  <wgt id="834">9.79553e-12</wgt>
  <wgt id="835">3.40739e-12</wgt>
  <wgt id="836">4.07641e-12</wgt>
  <wgt id="837">6.38786e-12</wgt>
  <wgt id="838">3.96688e-12</wgt>
  <wgt id="839">6.49721e-12</wgt>
  <wgt id="840">4.38964e-12</wgt>
  <wgt id="841">7.77362e-12</wgt>
  <wgt id="842">5.44127e-12</wgt>
  <wgt id="843">5.78843e-12</wgt>
  <wgt id="844">6.06782e-12</wgt>
  <wgt id="845">1.0146e-11</wgt>
  <wgt id="846">5.13017e-12</wgt>
  <wgt id="847">5.81441e-12</wgt>
  <wgt id="848">2.75279e-12</wgt>
  <wgt id="849">5.96117e-12</wgt>
  <wgt id="850">8.64539e-12</wgt>
  <wgt id="851">6.48563e-12</wgt>
  <wgt id="852">2.12665e-12</wgt>
  <wgt id="853">6.83457e-12</wgt>
  <wgt id="854">7.83879e-12</wgt>
  <wgt id="855">6.70296e-12</wgt>
  <wgt id="856">1.85515e-12</wgt>
  <wgt id="857">4.37658e-12</wgt>
  <wgt id="858">5.04118e-12</wgt>
  <wgt id="859">5.11455e-12</wgt>
  <wgt id="860">7.10228e-12</wgt>
  <wgt id="861">4.18742e-12</wgt>
  <wgt id="862">5.47974e-12</wgt>
  <wgt id="863">6.33698e-12</wgt>
  <wgt id="864">5.43555e-12</wgt>
  <wgt id="865">9.00845e-12</wgt>
  <wgt id="866">1.00094e-11</wgt>
  <wgt id="867">5.35249e-12</wgt>
  <wgt id="868">5.63878e-12</wgt>
  <wgt id="869">2.56551e-12</wgt>
  <wgt id="870">3.35847e-12</wgt>
  <wgt id="871">3.52373e-12</wgt>
  <wgt id="872">8.15858e-12</wgt>
  <wgt id="873">4.0391e-12</wgt>
  <wgt id="874">6.03357e-12</wgt>
  <wgt id="875">3.83219e-12</wgt>
  <wgt id="876">7.70157e-12</wgt>
  <wgt id="877">6.1453e-12</wgt>
  <wgt id="878">4.19191e-12</wgt>
  <wgt id="879">8.26504e-12</wgt>
  <wgt id="880">8.35333e-12</wgt>
  <wgt id="881">9.13914e-12</wgt>
  <wgt id="882">8.64677e-12</wgt>
  <wgt id="883">8.36815e-12</wgt>
  <wgt id="884">8.01858e-12</wgt>
  <wgt id="885">8.74059e-12</wgt>
  <wgt id="886">7.4814e-12</wgt>
  <wgt id="887">8.74522e-12</wgt>
  <wgt id="888">8.31506e-12</wgt>
  <wgt id="889">8.506e-12</wgt>
  <wgt id="890">8.46248e-12</wgt>
  <wgt id="891">8.00871e-12</wgt>
  <wgt id="892">8.65607e-12</wgt>
  <wgt id="893">8.45535e-12</wgt>
  <wgt id="894">8.46645e-12</wgt>
  <wgt id="895">8.0331e-12</wgt>
  <wgt id="896">1.11891e-11</wgt>
  <wgt id="897">9.17257e-12</wgt>
  <wgt id="898">7.67917e-12</wgt>
  <wgt id="899">7.90135e-12</wgt>
  <wgt id="900">7.37291e-12</wgt>
  <wgt id="901">6.67421e-12</wgt>
  <wgt id="902">6.93787e-12</wgt>
  <wgt id="903">7.31058e-12</wgt>
  <wgt id="904">8.24829e-12</wgt>
  <wgt id="905">7.90542e-12</wgt>
  <wgt id="906">1.04201e-11</wgt>
  <wgt id="907">9.34353e-12</wgt>
  <wgt id="908">9.36551e-12</wgt>
  <wgt id="909">7.68696e-12</wgt>
  <wgt id="910">7.6914e-12</wgt>
  <wgt id="911">7.80059e-12</wgt>
  <wgt id="912">7.95236e-12</wgt>
  <wgt id="913">6.76362e-12</wgt>
  <wgt id="914">8.93322e-12</wgt>
  <wgt id="915">7.68908e-12</wgt>
  <wgt id="916">8.92173e-12</wgt>
  <wgt id="917">7.30499e-12</wgt>
  <wgt id="918">7.83552e-12</wgt>
  <wgt id="919">7.92019e-12</wgt>
  <wgt id="920">7.07086e-12</wgt>
  <wgt id="921">8.48992e-12</wgt>
  <wgt id="922">7.55051e-12</wgt>
  <wgt id="923">8.5714e-12</wgt>
  <wgt id="924">6.98054e-12</wgt>
  <wgt id="925">6.34879e-12</wgt>
  <wgt id="926">9.40917e-12</wgt>
  <wgt id="927">9.03429e-12</wgt>
  <wgt id="928">8.63805e-12</wgt>
  <wgt id="929">8.19262e-12</wgt>
  <wgt id="930">8.33453e-12</wgt>
  <wgt id="931">8.13794e-12</wgt>
  <wgt id="932">7.44675e-12</wgt>
  <wgt id="933">9.23678e-12</wgt>
  <wgt id="934">8.12752e-12</wgt>
  <wgt id="935">9.71518e-12</wgt>
  <wgt id="936">7.60561e-12</wgt>
  <wgt id="937">8.56161e-12</wgt>
  <wgt id="938">8.24955e-12</wgt>
  <wgt id="939">7.57794e-12</wgt>
  <wgt id="940">7.49237e-12</wgt>
  <wgt id="941">7.84583e-12</wgt>
  <wgt id="942">8.77092e-12</wgt>
  <wgt id="943">9.91171e-12</wgt>
  <wgt id="944">8.83581e-12</wgt>
  <wgt id="945">7.81075e-12</wgt>
  <wgt id="946">7.50808e-12</wgt>
  <wgt id="947">8.08568e-12</wgt>
  <wgt id="948">9.11883e-12</wgt>
  <wgt id="949">9.3874e-12</wgt>
  <wgt id="950">6.75868e-12</wgt>
  <wgt id="951">7.93778e-12</wgt>
  <wgt id="952">8.59192e-12</wgt>
  <wgt id="953">9.00651e-12</wgt>
  <wgt id="954">8.31313e-12</wgt>
  <wgt id="955">7.39149e-12</wgt>
  <wgt id="956">7.32699e-12</wgt>
  <wgt id="957">8.67201e-12</wgt>
  <wgt id="958">8.02589e-12</wgt>
  <wgt id="959">7.96716e-12</wgt>
  <wgt id="960">7.03372e-12</wgt>
  <wgt id="961">7.98914e-12</wgt>
  <wgt id="962">9.13935e-12</wgt>
  <wgt id="963">7.82706e-12</wgt>
  <wgt id="964">9.26475e-12</wgt>
  <wgt id="965">9.30903e-12</wgt>
  <wgt id="966">8.54495e-12</wgt>
  <wgt id="967">8.90203e-12</wgt>
  <wgt id="968">8.4299e-12</wgt>
  <wgt id="969">8.40892e-12</wgt>
  <wgt id="970">8.44551e-12</wgt>
  <wgt id="971">7.44608e-12</wgt>
  <wgt id="972">8.68434e-12</wgt>
  <wgt id="973">7.65585e-12</wgt>
  <wgt id="974">1.02451e-11</wgt>
  <wgt id="975">8.06173e-12</wgt>
  <wgt id="976">8.33512e-12</wgt>
  <wgt id="977">6.44658e-12</wgt>
  <wgt id="978">8.684e-12</wgt>
  <wgt id="979">9.70506e-12</wgt>
  <wgt id="980">8.2001e-12</wgt>
  <wgt id="981">8.4822e-12</wgt>
  <wgt id="982">8.01585e-12</wgt>
</rwgt>
</event>
<event>
 5   1  0.5790000E-11  0.2275385E+04  0.7818608E-02  0.7721057E-01
       21   -1    0    0  502  501  0.00000000000E+00  0.00000000000E+00  0.76170887944E+03  0.76170887944E+03  0.00000000000E+00 0. -1.
       21   -1    0    0  501  502 -0.00000000000E+00 -0.00000000000E+00 -0.16992633899E+04  0.16992633899E+04  0.00000000000E+00 0.  1.
       39    2    1    2    0    0  0.00000000000E+00  0.00000000000E+00 -0.93755451042E+03  0.24609722693E+04  0.22753848137E+04 0.  0.
       25    1    3    3    0    0  0.68955507208E+03  0.72668142452E+03  0.98571332427E+02  0.10143438262E+04  0.12500000000E+03 0.  0.
       25    1    3    3    0    0 -0.68955507208E+03 -0.72668142452E+03 -0.10361258428E+04  0.14466284431E+04  0.12500000000E+03 0.  0.
<mgrwt>
<rscale>  0 0.22753848E+04</rscale>
<asrwt>0</asrwt>
<pdfrwt beam="1">  1       21 0.11718598E+00 0.22753848E+04</pdfrwt>
<pdfrwt beam="2">  1       21 0.26142514E+00 0.22753848E+04</pdfrwt>
<totfact> 0.11715995E+01</totfact>
</mgrwt>
<rwgt>
  <wgt id="1">5.79e-12</wgt>
  <wgt id="2">5.03275e-12</wgt>
  <wgt id="3">6.73117e-12</wgt>
  <wgt id="4">5.79e-12</wgt>
  <wgt id="5">5.03275e-12</wgt>
  <wgt id="6">6.73117e-12</wgt>
  <wgt id="7">5.79e-12</wgt>
  <wgt id="8">5.03275e-12</wgt>
  <wgt id="9">6.73117e-12</wgt>
  <wgt id="10">6.02448e-12</wgt>
  <wgt id="11">6.02079e-12</wgt>
  <wgt id="12">6.01445e-12</wgt>
  <wgt id="13">6.00695e-12</wgt>
  <wgt id="14">6.04638e-12</wgt>
  <wgt id="15">6.0348e-12</wgt>
  <wgt id="16">6.01509e-12</wgt>
  <wgt id="17">6.04459e-12</wgt>
  <wgt id="18">6.01437e-12</wgt>
  <wgt id="19">6.03995e-12</wgt>
  <wgt id="20">6.01288e-12</wgt>
  <wgt id="21">5.98054e-12</wgt>
  <wgt id="22">5.99068e-12</wgt>
  <wgt id="23">5.95466e-12</wgt>
  <wgt id="24">5.98859e-12</wgt>
  <wgt id="25">6.00559e-12</wgt>
  <wgt id="26">6.04383e-12</wgt>
  <wgt id="27">6.01936e-12</wgt>
  <wgt id="28">5.992e-12</wgt>
  <wgt id="29">6.02822e-12</wgt>
  <wgt id="30">5.99209e-12</wgt>
  <wgt id="31">6.04891e-12</wgt>
  <wgt id="32">6.00103e-12</wgt>
  <wgt id="33">6.03605e-12</wgt>
  <wgt id="34">5.99554e-12</wgt>
  <wgt id="35">6.00658e-12</wgt>
  <wgt id="36">6.04717e-12</wgt>
  <wgt id="37">6.00756e-12</wgt>
  <wgt id="38">6.00499e-12</wgt>
  <wgt id="39">6.10566e-12</wgt>
  <wgt id="40">6.03038e-12</wgt>
  <wgt id="41">6.02118e-12</wgt>
  <wgt id="42">6.03428e-12</wgt>
  <wgt id="43">6.02378e-12</wgt>
  <wgt id="44">6.02686e-12</wgt>
  <wgt id="45">6.03565e-12</wgt>
  <wgt id="46">6.0197e-12</wgt>
  <wgt id="47">6.03415e-12</wgt>
  <wgt id="48">6.03138e-12</wgt>
  <wgt id="49">6.00759e-12</wgt>
  <wgt id="50">6.01783e-12</wgt>
  <wgt id="51">6.02075e-12</wgt>
  <wgt id="52">6.03487e-12</wgt>
  <wgt id="53">6.01272e-12</wgt>
  <wgt id="54">6.02792e-12</wgt>
  <wgt id="55">6.02426e-12</wgt>
  <wgt id="56">6.04114e-12</wgt>
  <wgt id="57">6.02877e-12</wgt>
  <wgt id="58">6.00324e-12</wgt>
  <wgt id="59">6.01432e-12</wgt>
  <wgt id="60">6.02025e-12</wgt>
  <wgt id="61">5.98966e-12</wgt>
  <wgt id="62">6.00481e-12</wgt>
  <wgt id="63">6.01671e-12</wgt>
  <wgt id="64">6.02502e-12</wgt>
  <wgt id="65">6.0284e-12</wgt>
  <wgt id="66">6.01873e-12</wgt>
  <wgt id="67">5.99643e-12</wgt>
  <wgt id="68">6.02264e-12</wgt>
  <wgt id="69">6.0239e-12</wgt>
  <wgt id="70">6.02432e-12</wgt>
  <wgt id="71">6.02e-12</wgt>
  <wgt id="72">6.00338e-12</wgt>
  <wgt id="73">6.03676e-12</wgt>
  <wgt id="74">6.02946e-12</wgt>
  <wgt id="75">6.02022e-12</wgt>
  <wgt id="76">6.04424e-12</wgt>
  <wgt id="77">6.02015e-12</wgt>
  <wgt id="78">6.02113e-12</wgt>
  <wgt id="79">6.04098e-12</wgt>
  <wgt id="80">5.99545e-12</wgt>
  <wgt id="81">6.023e-12</wgt>
  <wgt id="82">6.02569e-12</wgt>
  <wgt id="83">5.99971e-12</wgt>
  <wgt id="84">6.0167e-12</wgt>
  <wgt id="85">6.00846e-12</wgt>
  <wgt id="86">6.04363e-12</wgt>
  <wgt id="87">5.98772e-12</wgt>
  <wgt id="88">6.03177e-12</wgt>
  <wgt id="89">6.02919e-12</wgt>
  <wgt id="90">6.04122e-12</wgt>
  <wgt id="91">6.03133e-12</wgt>
  <wgt id="92">6.03722e-12</wgt>
  <wgt id="93">6.03085e-12</wgt>
  <wgt id="94">6.01764e-12</wgt>
  <wgt id="95">6.0397e-12</wgt>
  <wgt id="96">6.03129e-12</wgt>
  <wgt id="97">6.00929e-12</wgt>
  <wgt id="98">6.02654e-12</wgt>
  <wgt id="99">6.01066e-12</wgt>
  <wgt id="100">6.03514e-12</wgt>
  <wgt id="101">6.02657e-12</wgt>
  <wgt id="102">6.02083e-12</wgt>
  <wgt id="103">6.03593e-12</wgt>
  <wgt id="104">6.01989e-12</wgt>
  <wgt id="105">6.03444e-12</wgt>
  <wgt id="106">6.01362e-12</wgt>
  <wgt id="107">6.04678e-12</wgt>
  <wgt id="108">6.01604e-12</wgt>
  <wgt id="109">6.02828e-12</wgt>
  <wgt id="110">6.02359e-12</wgt>
  <wgt id="111">6.06707e-12</wgt>
  <wgt id="112">6.05417e-12</wgt>
  <wgt id="113">8.27229e-12</wgt>
  <wgt id="114">8.25067e-12</wgt>
  <wgt id="115">8.1175e-12</wgt>
  <wgt id="116">1.12228e-11</wgt>
  <wgt id="117">6.67975e-12</wgt>
  <wgt id="118">6.70304e-12</wgt>
  <wgt id="119">6.66645e-12</wgt>
  <wgt id="120">6.6803e-12</wgt>
  <wgt id="121">6.67939e-12</wgt>
  <wgt id="122">6.66833e-12</wgt>
  <wgt id="123">6.69548e-12</wgt>
  <wgt id="124">6.67038e-12</wgt>
  <wgt id="125">6.68572e-12</wgt>
  <wgt id="126">6.69066e-12</wgt>
  <wgt id="127">6.67243e-12</wgt>
  <wgt id="128">6.70042e-12</wgt>
  <wgt id="129">6.65916e-12</wgt>
  <wgt id="130">6.71622e-12</wgt>
  <wgt id="131">6.6421e-12</wgt>
  <wgt id="132">6.50355e-12</wgt>
  <wgt id="133">6.88848e-12</wgt>
  <wgt id="134">6.60852e-12</wgt>
  <wgt id="135">6.73543e-12</wgt>
  <wgt id="136">6.76998e-12</wgt>
  <wgt id="137">6.57089e-12</wgt>
  <wgt id="138">6.95063e-12</wgt>
  <wgt id="139">6.41948e-12</wgt>
  <wgt id="140">6.63951e-12</wgt>
  <wgt id="141">6.71101e-12</wgt>
  <wgt id="142">6.67968e-12</wgt>
  <wgt id="143">6.6932e-12</wgt>
  <wgt id="144">6.4661e-12</wgt>
  <wgt id="145">6.88107e-12</wgt>
  <wgt id="146">6.74735e-12</wgt>
  <wgt id="147">6.62558e-12</wgt>
  <wgt id="148">6.70166e-12</wgt>
  <wgt id="149">6.67822e-12</wgt>
  <wgt id="150">6.73662e-12</wgt>
  <wgt id="151">6.65307e-12</wgt>
  <wgt id="152">6.68231e-12</wgt>
  <wgt id="153">6.67886e-12</wgt>
  <wgt id="154">6.7211e-12</wgt>
  <wgt id="155">6.62601e-12</wgt>
  <wgt id="156">6.8392e-12</wgt>
  <wgt id="157">6.52071e-12</wgt>
  <wgt id="158">8.02947e-12</wgt>
  <wgt id="159">8.06292e-12</wgt>
  <wgt id="160">8.00208e-12</wgt>
  <wgt id="161">8.00935e-12</wgt>
  <wgt id="162">8.05119e-12</wgt>
  <wgt id="163">8.02037e-12</wgt>
  <wgt id="164">8.04181e-12</wgt>
  <wgt id="165">8.03217e-12</wgt>
  <wgt id="166">8.02675e-12</wgt>
  <wgt id="167">8.02353e-12</wgt>
  <wgt id="168">8.03725e-12</wgt>
  <wgt id="169">7.99521e-12</wgt>
  <wgt id="170">8.05042e-12</wgt>
  <wgt id="171">8.02124e-12</wgt>
  <wgt id="172">8.03986e-12</wgt>
  <wgt id="173">8.02377e-12</wgt>
  <wgt id="174">8.03094e-12</wgt>
  <wgt id="175">7.80306e-12</wgt>
  <wgt id="176">8.32383e-12</wgt>
  <wgt id="177">8.06985e-12</wgt>
  <wgt id="178">7.99204e-12</wgt>
  <wgt id="179">8.38518e-12</wgt>
  <wgt id="180">7.4713e-12</wgt>
  <wgt id="181">7.78683e-12</wgt>
  <wgt id="182">8.18989e-12</wgt>
  <wgt id="183">7.88158e-12</wgt>
  <wgt id="184">8.10229e-12</wgt>
  <wgt id="185">7.95597e-12</wgt>
  <wgt id="186">8.11735e-12</wgt>
  <wgt id="187">7.95112e-12</wgt>
  <wgt id="188">8.1686e-12</wgt>
  <wgt id="189">7.97407e-12</wgt>
  <wgt id="190">8.0516e-12</wgt>
  <wgt id="191">8.05318e-12</wgt>
  <wgt id="192">8.01471e-12</wgt>
  <wgt id="193">8.14846e-12</wgt>
  <wgt id="194">7.96978e-12</wgt>
  <wgt id="195">7.80735e-12</wgt>
  <wgt id="196">8.41227e-12</wgt>
  <wgt id="197">8.07013e-12</wgt>
  <wgt id="198">8.0194e-12</wgt>
  <wgt id="199">8.02947e-12</wgt>
  <wgt id="200">8.10063e-12</wgt>
  <wgt id="201">8.07502e-12</wgt>
  <wgt id="202">8.05085e-12</wgt>
  <wgt id="203">8.01409e-12</wgt>
  <wgt id="204">7.99655e-12</wgt>
  <wgt id="205">7.98178e-12</wgt>
  <wgt id="206">7.81947e-12</wgt>
  <wgt id="207">7.86563e-12</wgt>
  <wgt id="208">7.77405e-12</wgt>
  <wgt id="209">7.84264e-12</wgt>
  <wgt id="210">7.80266e-12</wgt>
  <wgt id="211">7.81692e-12</wgt>
  <wgt id="212">7.82151e-12</wgt>
  <wgt id="213">7.81875e-12</wgt>
  <wgt id="214">7.82054e-12</wgt>
  <wgt id="215">7.82506e-12</wgt>
  <wgt id="216">7.81548e-12</wgt>
  <wgt id="217">7.84004e-12</wgt>
  <wgt id="218">7.80373e-12</wgt>
  <wgt id="219">7.81022e-12</wgt>
  <wgt id="220">7.82509e-12</wgt>
  <wgt id="221">7.81834e-12</wgt>
  <wgt id="222">7.82119e-12</wgt>
  <wgt id="223">7.40102e-12</wgt>
  <wgt id="224">8.20162e-12</wgt>
  <wgt id="225">7.72592e-12</wgt>
  <wgt id="226">7.93772e-12</wgt>
  <wgt id="227">7.74601e-12</wgt>
  <wgt id="228">7.85181e-12</wgt>
  <wgt id="229">7.7112e-12</wgt>
  <wgt id="230">7.87325e-12</wgt>
  <wgt id="231">8.05411e-12</wgt>
  <wgt id="232">7.62673e-12</wgt>
  <wgt id="233">7.77668e-12</wgt>
  <wgt id="234">7.88873e-12</wgt>
  <wgt id="235">7.611e-12</wgt>
  <wgt id="236">8.00162e-12</wgt>
  <wgt id="237">7.68772e-12</wgt>
  <wgt id="238">7.86389e-12</wgt>
  <wgt id="239">7.76406e-12</wgt>
  <wgt id="240">7.91934e-12</wgt>
  <wgt id="241">7.73604e-12</wgt>
  <wgt id="242">7.91936e-12</wgt>
  <wgt id="243">7.92428e-12</wgt>
  <wgt id="244">7.84763e-12</wgt>
  <wgt id="245">7.81459e-12</wgt>
  <wgt id="246">7.87231e-12</wgt>
  <wgt id="247">7.81947e-12</wgt>
  <wgt id="248">7.89209e-12</wgt>
  <wgt id="249">7.86578e-12</wgt>
  <wgt id="250">7.8398e-12</wgt>
  <wgt id="251">7.80233e-12</wgt>
  <wgt id="252">7.7843e-12</wgt>
  <wgt id="253">7.7713e-12</wgt>
  <wgt id="254">7.61448e-12</wgt>
  <wgt id="255">7.62161e-12</wgt>
  <wgt id="256">7.60677e-12</wgt>
  <wgt id="257">7.62038e-12</wgt>
  <wgt id="258">7.61014e-12</wgt>
  <wgt id="259">7.66523e-12</wgt>
  <wgt id="260">7.5654e-12</wgt>
  <wgt id="261">7.62513e-12</wgt>
  <wgt id="262">7.6019e-12</wgt>
  <wgt id="263">7.61045e-12</wgt>
  <wgt id="264">7.61918e-12</wgt>
  <wgt id="265">7.60569e-12</wgt>
  <wgt id="266">7.63199e-12</wgt>
  <wgt id="267">7.61699e-12</wgt>
  <wgt id="268">7.61102e-12</wgt>
  <wgt id="269">7.63801e-12</wgt>
  <wgt id="270">7.59851e-12</wgt>
  <wgt id="271">7.59881e-12</wgt>
  <wgt id="272">7.63185e-12</wgt>
  <wgt id="273">7.59254e-12</wgt>
  <wgt id="274">7.63117e-12</wgt>
  <wgt id="275">7.5785e-12</wgt>
  <wgt id="276">7.65171e-12</wgt>
  <wgt id="277">7.57085e-12</wgt>
  <wgt id="278">7.65455e-12</wgt>
  <wgt id="279">7.47267e-12</wgt>
  <wgt id="280">7.79266e-12</wgt>
  <wgt id="281">7.58119e-12</wgt>
  <wgt id="282">7.61824e-12</wgt>
  <wgt id="283">7.39043e-12</wgt>
  <wgt id="284">7.89124e-12</wgt>
  <wgt id="285">7.24247e-12</wgt>
  <wgt id="286">7.92401e-12</wgt>
  <wgt id="287">7.63912e-12</wgt>
  <wgt id="288">7.58289e-12</wgt>
  <wgt id="289">7.66966e-12</wgt>
  <wgt id="290">7.48819e-12</wgt>
  <wgt id="291">7.59103e-12</wgt>
  <wgt id="292">7.61818e-12</wgt>
  <wgt id="293">7.55417e-12</wgt>
  <wgt id="294">7.67443e-12</wgt>
  <wgt id="295">7.46699e-12</wgt>
  <wgt id="296">7.79469e-12</wgt>
  <wgt id="297">7.60903e-12</wgt>
  <wgt id="298">7.64524e-12</wgt>
  <wgt id="299">7.59008e-12</wgt>
  <wgt id="300">7.67919e-12</wgt>
  <wgt id="301">7.49876e-12</wgt>
  <wgt id="302">7.89924e-12</wgt>
  <wgt id="303">7.55058e-12</wgt>
  <wgt id="304">7.65091e-12</wgt>
  <wgt id="305">7.61033e-12</wgt>
  <wgt id="306">7.61767e-12</wgt>
  <wgt id="307">7.60223e-12</wgt>
  <wgt id="308">7.6168e-12</wgt>
  <wgt id="309">7.60589e-12</wgt>
  <wgt id="310">7.66267e-12</wgt>
  <wgt id="311">7.56171e-12</wgt>
  <wgt id="312">7.6189e-12</wgt>
  <wgt id="313">7.60111e-12</wgt>
  <wgt id="314">7.60616e-12</wgt>
  <wgt id="315">7.6141e-12</wgt>
  <wgt id="316">7.60173e-12</wgt>
  <wgt id="317">7.62881e-12</wgt>
  <wgt id="318">7.61563e-12</wgt>
  <wgt id="319">7.60078e-12</wgt>
  <wgt id="320">7.63511e-12</wgt>
  <wgt id="321">7.59638e-12</wgt>
  <wgt id="322">7.59129e-12</wgt>
  <wgt id="323">7.63221e-12</wgt>
  <wgt id="324">7.59254e-12</wgt>
  <wgt id="325">7.62561e-12</wgt>
  <wgt id="326">7.58115e-12</wgt>
  <wgt id="327">7.64755e-12</wgt>
  <wgt id="328">7.57071e-12</wgt>
  <wgt id="329">7.63261e-12</wgt>
  <wgt id="330">7.82862e-12</wgt>
  <wgt id="331">7.40199e-12</wgt>
  <wgt id="332">7.58259e-12</wgt>
  <wgt id="333">7.61201e-12</wgt>
  <wgt id="334">7.43603e-12</wgt>
  <wgt id="335">7.8272e-12</wgt>
  <wgt id="336">7.34202e-12</wgt>
  <wgt id="337">7.9382e-12</wgt>
  <wgt id="338">7.69665e-12</wgt>
  <wgt id="339">7.53024e-12</wgt>
  <wgt id="340">7.66169e-12</wgt>
  <wgt id="341">7.47973e-12</wgt>
  <wgt id="342">7.59353e-12</wgt>
  <wgt id="343">7.60127e-12</wgt>
  <wgt id="344">7.55608e-12</wgt>
  <wgt id="345">7.67313e-12</wgt>
  <wgt id="346">7.45764e-12</wgt>
  <wgt id="347">7.78567e-12</wgt>
  <wgt id="348">7.60755e-12</wgt>
  <wgt id="349">7.63622e-12</wgt>
  <wgt id="350">7.57964e-12</wgt>
  <wgt id="351">7.68792e-12</wgt>
  <wgt id="352">7.4867e-12</wgt>
  <wgt id="353">7.90073e-12</wgt>
  <wgt id="354">7.51524e-12</wgt>
  <wgt id="355">7.66789e-12</wgt>
  <wgt id="356">7.61448e-12</wgt>
  <wgt id="357">7.63373e-12</wgt>
  <wgt id="358">7.61033e-12</wgt>
  <wgt id="359">7.63281e-12</wgt>
  <wgt id="360">7.68931e-12</wgt>
  <wgt id="361">7.6431e-12</wgt>
  <wgt id="362">7.7795e-12</wgt>
  <wgt id="363">7.76098e-12</wgt>
  <wgt id="364">7.73115e-12</wgt>
  <wgt id="365">7.70462e-12</wgt>
  <wgt id="366">7.67576e-12</wgt>
  <wgt id="367">7.6176e-12</wgt>
  <wgt id="368">7.58394e-12</wgt>
  <wgt id="369">7.54774e-12</wgt>
  <wgt id="370">7.6431e-12</wgt>
  <wgt id="371">7.67621e-12</wgt>
  <wgt id="372">7.65789e-12</wgt>
  <wgt id="373">7.63103e-12</wgt>
  <wgt id="374">7.63235e-12</wgt>
  <wgt id="375">8.32385e-12</wgt>
  <wgt id="376">8.32468e-12</wgt>
  <wgt id="377">8.3228e-12</wgt>
  <wgt id="378">8.35437e-12</wgt>
  <wgt id="379">8.29386e-12</wgt>
  <wgt id="380">8.34693e-12</wgt>
  <wgt id="381">8.31488e-12</wgt>
  <wgt id="382">8.36492e-12</wgt>
  <wgt id="383">8.28343e-12</wgt>
  <wgt id="384">8.32918e-12</wgt>
  <wgt id="385">8.31851e-12</wgt>
  <wgt id="386">8.35453e-12</wgt>
  <wgt id="387">8.31094e-12</wgt>
  <wgt id="388">8.31634e-12</wgt>
  <wgt id="389">8.33329e-12</wgt>
  <wgt id="390">8.34514e-12</wgt>
  <wgt id="391">8.30153e-12</wgt>
  <wgt id="392">8.25817e-12</wgt>
  <wgt id="393">8.3615e-12</wgt>
  <wgt id="394">8.3335e-12</wgt>
  <wgt id="395">8.31085e-12</wgt>
  <wgt id="396">8.33212e-12</wgt>
  <wgt id="397">8.31817e-12</wgt>
  <wgt id="398">8.29718e-12</wgt>
  <wgt id="399">8.34995e-12</wgt>
  <wgt id="400">8.3112e-12</wgt>
  <wgt id="401">8.35289e-12</wgt>
  <wgt id="402">8.2551e-12</wgt>
  <wgt id="403">8.35845e-12</wgt>
  <wgt id="404">8.52781e-12</wgt>
  <wgt id="405">7.83415e-12</wgt>
  <wgt id="406">8.17714e-12</wgt>
  <wgt id="407">8.64545e-12</wgt>
  <wgt id="408">8.39981e-12</wgt>
  <wgt id="409">8.18043e-12</wgt>
  <wgt id="410">8.08378e-12</wgt>
  <wgt id="411">8.43665e-12</wgt>
  <wgt id="412">8.30791e-12</wgt>
  <wgt id="413">8.34788e-12</wgt>
  <wgt id="414">8.2279e-12</wgt>
  <wgt id="415">8.39842e-12</wgt>
  <wgt id="416">8.55921e-12</wgt>
  <wgt id="417">7.99899e-12</wgt>
  <wgt id="418">8.33668e-12</wgt>
  <wgt id="419">8.25426e-12</wgt>
  <wgt id="420">8.46661e-12</wgt>
  <wgt id="421">8.23676e-12</wgt>
  <wgt id="422">8.30116e-12</wgt>
  <wgt id="423">8.33591e-12</wgt>
  <wgt id="424">8.51124e-12</wgt>
  <wgt id="425">8.20219e-12</wgt>
  <wgt id="426">8.32385e-12</wgt>
  <wgt id="427">8.22352e-12</wgt>
  <wgt id="428">8.58519e-12</wgt>
  <wgt id="429">8.40879e-12</wgt>
  <wgt id="430">8.65218e-12</wgt>
  <wgt id="431">8.60378e-12</wgt>
  <wgt id="432">8.55805e-12</wgt>
  <wgt id="433">8.51371e-12</wgt>
  <wgt id="434">8.45891e-12</wgt>
  <wgt id="435">8.34652e-12</wgt>
  <wgt id="436">8.28925e-12</wgt>
  <wgt id="437">8.2342e-12</wgt>
  <wgt id="438">8.40879e-12</wgt>
  <wgt id="439">8.43574e-12</wgt>
  <wgt id="440">8.41949e-12</wgt>
  <wgt id="441">8.40083e-12</wgt>
  <wgt id="442">8.39437e-12</wgt>
  <wgt id="443">7.97135e-12</wgt>
  <wgt id="444">8.02896e-12</wgt>
  <wgt id="445">7.98346e-12</wgt>
  <wgt id="446">7.91622e-12</wgt>
  <wgt id="447">7.95948e-12</wgt>
  <wgt id="448">7.76933e-12</wgt>
  <wgt id="449">8.10561e-12</wgt>
  <wgt id="450">7.99498e-12</wgt>
  <wgt id="451">7.95461e-12</wgt>
  <wgt id="452">8.14659e-12</wgt>
  <wgt id="453">8.04801e-12</wgt>
  <wgt id="454">7.62287e-12</wgt>
  <wgt id="455">8.00227e-12</wgt>
  <wgt id="456">7.987e-12</wgt>
  <wgt id="457">7.99973e-12</wgt>
  <wgt id="458">8.08259e-12</wgt>
  <wgt id="459">8.03424e-12</wgt>
  <wgt id="460">8.059e-12</wgt>
  <wgt id="461">7.80979e-12</wgt>
  <wgt id="462">7.91348e-12</wgt>
  <wgt id="463">7.86852e-12</wgt>
  <wgt id="464">7.9312e-12</wgt>
  <wgt id="465">8.05508e-12</wgt>
  <wgt id="466">7.85029e-12</wgt>
  <wgt id="467">7.89999e-12</wgt>
  <wgt id="468">7.95411e-12</wgt>
  <wgt id="469">7.95345e-12</wgt>
  <wgt id="470">7.8813e-12</wgt>
  <wgt id="471">7.89333e-12</wgt>
  <wgt id="472">8.01163e-12</wgt>
  <wgt id="473">7.72497e-12</wgt>
  <wgt id="474">5.79e-12</wgt>
  <wgt id="475">5.93999e-12</wgt>
  <wgt id="476">5.70564e-12</wgt>
  <wgt id="477">5.69565e-12</wgt>
  <wgt id="478">5.83884e-12</wgt>
  <wgt id="479">5.64231e-12</wgt>
  <wgt id="480">6.03423e-12</wgt>
  <wgt id="481">5.76392e-12</wgt>
  <wgt id="482">5.69631e-12</wgt>
  <wgt id="483">5.66895e-12</wgt>
  <wgt id="484">6.00426e-12</wgt>
  <wgt id="485">5.60616e-12</wgt>
  <wgt id="486">6.03939e-12</wgt>
  <wgt id="487">5.78613e-12</wgt>
  <wgt id="488">5.8953e-12</wgt>
  <wgt id="489">5.4508e-12</wgt>
  <wgt id="490">5.57391e-12</wgt>
  <wgt id="491">5.7533e-12</wgt>
  <wgt id="492">5.67917e-12</wgt>
  <wgt id="493">5.51967e-12</wgt>
  <wgt id="494">5.56668e-12</wgt>
  <wgt id="495">5.81738e-12</wgt>
  <wgt id="496">5.59028e-12</wgt>
  <wgt id="497">5.52442e-12</wgt>
  <wgt id="498">5.94304e-12</wgt>
  <wgt id="499">5.73428e-12</wgt>
  <wgt id="500">5.66416e-12</wgt>
  <wgt id="501">6.02399e-12</wgt>
  <wgt id="502">5.78489e-12</wgt>
  <wgt id="503">5.77779e-12</wgt>
  <wgt id="504">5.9148e-12</wgt>
  <wgt id="505">5.7903e-12</wgt>
  <wgt id="506">5.69332e-12</wgt>
  <wgt id="507">5.78707e-12</wgt>
  <wgt id="508">5.99595e-12</wgt>
  <wgt id="509">5.44672e-12</wgt>
  <wgt id="510">5.91307e-12</wgt>
  <wgt id="511">5.59446e-12</wgt>
  <wgt id="512">5.99392e-12</wgt>
  <wgt id="513">5.99701e-12</wgt>
  <wgt id="514">5.88965e-12</wgt>
  <wgt id="515">5.79093e-12</wgt>
  <wgt id="516">6.13747e-12</wgt>
  <wgt id="517">5.92675e-12</wgt>
  <wgt id="518">5.9549e-12</wgt>
  <wgt id="519">5.61101e-12</wgt>
  <wgt id="520">5.90633e-12</wgt>
  <wgt id="521">5.88785e-12</wgt>
  <wgt id="522">6.04276e-12</wgt>
  <wgt id="523">5.70942e-12</wgt>
  <wgt id="524">5.77673e-12</wgt>
  <wgt id="525">5.90806e-12</wgt>
  <wgt id="526">5.90458e-12</wgt>
  <wgt id="527">5.81425e-12</wgt>
  <wgt id="528">5.8223e-12</wgt>
  <wgt id="529">5.68781e-12</wgt>
  <wgt id="530">5.95688e-12</wgt>
  <wgt id="531">5.66661e-12</wgt>
  <wgt id="532">6.17913e-12</wgt>
  <wgt id="533">5.5745e-12</wgt>
  <wgt id="534">5.73631e-12</wgt>
  <wgt id="535">5.79413e-12</wgt>
  <wgt id="536">5.80203e-12</wgt>
  <wgt id="537">5.72366e-12</wgt>
  <wgt id="538">5.82921e-12</wgt>
  <wgt id="539">5.68167e-12</wgt>
  <wgt id="540">5.84452e-12</wgt>
  <wgt id="541">5.65215e-12</wgt>
  <wgt id="542">5.72363e-12</wgt>
  <wgt id="543">5.73758e-12</wgt>
  <wgt id="544">5.99958e-12</wgt>
  <wgt id="545">5.63855e-12</wgt>
  <wgt id="546">5.5638e-12</wgt>
  <wgt id="547">5.64502e-12</wgt>
  <wgt id="548">5.55875e-12</wgt>
  <wgt id="549">5.69368e-12</wgt>
  <wgt id="550">5.67469e-12</wgt>
  <wgt id="551">5.8667e-12</wgt>
  <wgt id="552">5.54317e-12</wgt>
  <wgt id="553">5.67657e-12</wgt>
  <wgt id="554">6.17523e-12</wgt>
  <wgt id="555">5.94812e-12</wgt>
  <wgt id="556">5.57391e-12</wgt>
  <wgt id="557">5.94046e-12</wgt>
  <wgt id="558">5.66893e-12</wgt>
  <wgt id="559">5.67251e-12</wgt>
  <wgt id="560">6.36359e-12</wgt>
  <wgt id="561">5.76176e-12</wgt>
  <wgt id="562">5.96543e-12</wgt>
  <wgt id="563">5.92977e-12</wgt>
  <wgt id="564">5.96826e-12</wgt>
  <wgt id="565">5.70638e-12</wgt>
  <wgt id="566">5.82761e-12</wgt>
  <wgt id="567">5.74979e-12</wgt>
  <wgt id="568">5.73216e-12</wgt>
  <wgt id="569">5.87083e-12</wgt>
  <wgt id="570">5.55291e-12</wgt>
  <wgt id="571">6.40464e-12</wgt>
  <wgt id="572">5.6778e-12</wgt>
  <wgt id="573">5.59754e-12</wgt>
  <wgt id="574">5.62263e-12</wgt>
  <wgt id="575">6.38385e-12</wgt>
  <wgt id="576">6.5646e-12</wgt>
  <wgt id="577">6.5929e-12</wgt>
  <wgt id="578">6.57188e-12</wgt>
  <wgt id="579">6.57303e-12</wgt>
  <wgt id="580">6.64778e-12</wgt>
  <wgt id="581">6.91365e-12</wgt>
  <wgt id="582">6.53648e-12</wgt>
  <wgt id="583">6.44671e-12</wgt>
  <wgt id="584">6.35135e-12</wgt>
  <wgt id="585">6.19378e-12</wgt>
  <wgt id="586">6.14596e-12</wgt>
  <wgt id="587">6.48771e-12</wgt>
  <wgt id="588">6.515e-12</wgt>
  <wgt id="589">6.66737e-12</wgt>
  <wgt id="590">6.38508e-12</wgt>
  <wgt id="591">6.60528e-12</wgt>
  <wgt id="592">6.00627e-12</wgt>
  <wgt id="593">6.29926e-12</wgt>
  <wgt id="594">6.47452e-12</wgt>
  <wgt id="595">6.47194e-12</wgt>
  <wgt id="596">6.77989e-12</wgt>
  <wgt id="597">6.31934e-12</wgt>
  <wgt id="598">6.17773e-12</wgt>
  <wgt id="599">6.6686e-12</wgt>
  <wgt id="600">6.46514e-12</wgt>
  <wgt id="601">6.18057e-12</wgt>
  <wgt id="602">6.19487e-12</wgt>
  <wgt id="603">6.16796e-12</wgt>
  <wgt id="604">6.49524e-12</wgt>
  <wgt id="605">6.58388e-12</wgt>
  <wgt id="606">6.39867e-12</wgt>
  <wgt id="607">6.43963e-12</wgt>
  <wgt id="608">6.52993e-12</wgt>
  <wgt id="609">6.16314e-12</wgt>
  <wgt id="610">6.15671e-12</wgt>
  <wgt id="611">6.31172e-12</wgt>
  <wgt id="612">6.77861e-12</wgt>
  <wgt id="613">6.27032e-12</wgt>
  <wgt id="614">6.38862e-12</wgt>
  <wgt id="615">6.34283e-12</wgt>
  <wgt id="616">6.53363e-12</wgt>
  <wgt id="617">6.57123e-12</wgt>
  <wgt id="618">6.83763e-12</wgt>
  <wgt id="619">6.29413e-12</wgt>
  <wgt id="620">6.61311e-12</wgt>
  <wgt id="621">6.37485e-12</wgt>
  <wgt id="622">6.48771e-12</wgt>
  <wgt id="623">6.51696e-12</wgt>
  <wgt id="624">6.40158e-12</wgt>
  <wgt id="625">6.22207e-12</wgt>
  <wgt id="626">6.05382e-12</wgt>
  <wgt id="627">6.02338e-12</wgt>
  <wgt id="628">6.48864e-12</wgt>
  <wgt id="629">6.32478e-12</wgt>
  <wgt id="630">6.18697e-12</wgt>
  <wgt id="631">6.45144e-12</wgt>
  <wgt id="632">6.01962e-12</wgt>
  <wgt id="633">6.34881e-12</wgt>
  <wgt id="634">6.25419e-12</wgt>
  <wgt id="635">6.05535e-12</wgt>
  <wgt id="636">6.46723e-12</wgt>
  <wgt id="637">6.39443e-12</wgt>
  <wgt id="638">6.15501e-12</wgt>
  <wgt id="639">6.24931e-12</wgt>
  <wgt id="640">6.35063e-12</wgt>
  <wgt id="641">6.54721e-12</wgt>
  <wgt id="642">6.13695e-12</wgt>
  <wgt id="643">6.3126e-12</wgt>
  <wgt id="644">5.87815e-12</wgt>
  <wgt id="645">6.40936e-12</wgt>
  <wgt id="646">6.23929e-12</wgt>
  <wgt id="647">6.34388e-12</wgt>
  <wgt id="648">6.52401e-12</wgt>
  <wgt id="649">6.43426e-12</wgt>
  <wgt id="650">6.17761e-12</wgt>
  <wgt id="651">6.62605e-12</wgt>
  <wgt id="652">6.25895e-12</wgt>
  <wgt id="653">6.18168e-12</wgt>
  <wgt id="654">6.30284e-12</wgt>
  <wgt id="655">6.26301e-12</wgt>
  <wgt id="656">6.38368e-12</wgt>
  <wgt id="657">6.81467e-12</wgt>
  <wgt id="658">6.41727e-12</wgt>
  <wgt id="659">6.12222e-12</wgt>
  <wgt id="660">6.3986e-12</wgt>
  <wgt id="661">6.27909e-12</wgt>
  <wgt id="662">6.32872e-12</wgt>
  <wgt id="663">6.43245e-12</wgt>
  <wgt id="664">6.35588e-12</wgt>
  <wgt id="665">6.37131e-12</wgt>
  <wgt id="666">6.2998e-12</wgt>
  <wgt id="667">6.64729e-12</wgt>
  <wgt id="668">6.36678e-12</wgt>
  <wgt id="669">6.49199e-12</wgt>
  <wgt id="670">6.59327e-12</wgt>
  <wgt id="671">6.37608e-12</wgt>
  <wgt id="672">6.13174e-12</wgt>
  <wgt id="673">6.54118e-12</wgt>
  <wgt id="674">6.22849e-12</wgt>
  <wgt id="675">6.27539e-12</wgt>
  <wgt id="676">8.1348e-12</wgt>
  <wgt id="677">8.23372e-12</wgt>
  <wgt id="678">8.65024e-12</wgt>
  <wgt id="679">7.83158e-12</wgt>
  <wgt id="680">8.0625e-12</wgt>
  <wgt id="681">8.16576e-12</wgt>
  <wgt id="682">8.42428e-12</wgt>
  <wgt id="683">7.87355e-12</wgt>
  <wgt id="684">8.48886e-12</wgt>
  <wgt id="685">7.91081e-12</wgt>
  <wgt id="686">7.9369e-12</wgt>
  <wgt id="687">8.46016e-12</wgt>
  <wgt id="688">7.97569e-12</wgt>
  <wgt id="689">8.57631e-12</wgt>
  <wgt id="690">8.43319e-12</wgt>
  <wgt id="691">8.47446e-12</wgt>
  <wgt id="692">8.02559e-12</wgt>
  <wgt id="693">9.90693e-12</wgt>
  <wgt id="694">8.73324e-12</wgt>
  <wgt id="695">7.82563e-12</wgt>
  <wgt id="696">7.83194e-12</wgt>
  <wgt id="697">7.70178e-12</wgt>
  <wgt id="698">7.20378e-12</wgt>
  <wgt id="699">7.1868e-12</wgt>
  <wgt id="700">7.15941e-12</wgt>
  <wgt id="701">8.13784e-12</wgt>
  <wgt id="702">7.97208e-12</wgt>
  <wgt id="703">9.52651e-12</wgt>
  <wgt id="704">9.00878e-12</wgt>
  <wgt id="705">8.80313e-12</wgt>
  <wgt id="706">7.6845e-12</wgt>
  <wgt id="707">7.75382e-12</wgt>
  <wgt id="708">7.95571e-12</wgt>
  <wgt id="709">7.95e-12</wgt>
  <wgt id="710">7.34336e-12</wgt>
  <wgt id="711">8.185e-12</wgt>
  <wgt id="712">7.83761e-12</wgt>
  <wgt id="713">8.75487e-12</wgt>
  <wgt id="714">7.7483e-12</wgt>
  <wgt id="715">7.95905e-12</wgt>
  <wgt id="716">7.85204e-12</wgt>
  <wgt id="717">7.51342e-12</wgt>
  <wgt id="718">8.23305e-12</wgt>
  <wgt id="719">7.39202e-12</wgt>
  <wgt id="720">7.91078e-12</wgt>
  <wgt id="721">7.24354e-12</wgt>
  <wgt id="722">6.97372e-12</wgt>
  <wgt id="723">8.80651e-12</wgt>
  <wgt id="724">8.61614e-12</wgt>
  <wgt id="725">8.52374e-12</wgt>
  <wgt id="726">8.15034e-12</wgt>
  <wgt id="727">8.02746e-12</wgt>
  <wgt id="728">7.90199e-12</wgt>
  <wgt id="729">7.79551e-12</wgt>
  <wgt id="730">8.79461e-12</wgt>
  <wgt id="731">7.99458e-12</wgt>
  <wgt id="732">9.11062e-12</wgt>
  <wgt id="733">7.87811e-12</wgt>
  <wgt id="734">8.34049e-12</wgt>
  <wgt id="735">8.20639e-12</wgt>
  <wgt id="736">7.81806e-12</wgt>
  <wgt id="737">8.10885e-12</wgt>
  <wgt id="738">7.77452e-12</wgt>
  <wgt id="739">8.50822e-12</wgt>
  <wgt id="740">9.19082e-12</wgt>
  <wgt id="741">7.6192e-12</wgt>
  <wgt id="742">8.02921e-12</wgt>
  <wgt id="743">7.63016e-12</wgt>
  <wgt id="744">7.97066e-12</wgt>
  <wgt id="745">8.59361e-12</wgt>
  <wgt id="746">8.78235e-12</wgt>
  <wgt id="747">7.13887e-12</wgt>
  <wgt id="748">7.99268e-12</wgt>
  <wgt id="749">8.47466e-12</wgt>
  <wgt id="750">8.5824e-12</wgt>
  <wgt id="751">8.27092e-12</wgt>
  <wgt id="752">7.43042e-12</wgt>
  <wgt id="753">7.55847e-12</wgt>
  <wgt id="754">8.46182e-12</wgt>
  <wgt id="755">8.08651e-12</wgt>
  <wgt id="756">8.05656e-12</wgt>
  <wgt id="757">7.35517e-12</wgt>
  <wgt id="758">8.06566e-12</wgt>
  <wgt id="759">8.70394e-12</wgt>
  <wgt id="760">8.06803e-12</wgt>
  <wgt id="761">8.691e-12</wgt>
  <wgt id="762">8.72937e-12</wgt>
  <wgt id="763">8.13693e-12</wgt>
  <wgt id="764">8.51245e-12</wgt>
  <wgt id="765">8.22251e-12</wgt>
  <wgt id="766">8.15317e-12</wgt>
  <wgt id="767">8.29868e-12</wgt>
  <wgt id="768">7.5826e-12</wgt>
  <wgt id="769">8.61381e-12</wgt>
  <wgt id="770">7.92298e-12</wgt>
  <wgt id="771">9.68375e-12</wgt>
  <wgt id="772">7.79589e-12</wgt>
  <wgt id="773">8.07963e-12</wgt>
  <wgt id="774">6.89184e-12</wgt>
  <wgt id="775">8.51527e-12</wgt>
  <wgt id="776">8.91191e-12</wgt>
  <wgt id="777">7.56349e-12</wgt>
  <wgt id="778">5.79736e-12</wgt>
  <wgt id="779">4.37431e-12</wgt>
  <wgt id="780">3.26409e-12</wgt>
  <wgt id="781">6.54926e-12</wgt>
  <wgt id="782">6.47823e-12</wgt>
  <wgt id="783">4.32487e-12</wgt>
  <wgt id="784">4.75317e-12</wgt>
  <wgt id="785">7.66664e-12</wgt>
  <wgt id="786">4.15984e-12</wgt>
  <wgt id="787">6.87489e-12</wgt>
  <wgt id="788">2.85677e-12</wgt>
  <wgt id="789">4.63815e-12</wgt>
  <wgt id="790">4.07382e-12</wgt>
  <wgt id="791">5.93434e-12</wgt>
  <wgt id="792">7.73303e-12</wgt>
  <wgt id="793">5.69621e-12</wgt>
  <wgt id="794">3.95117e-12</wgt>
  <wgt id="795">7.1772e-12</wgt>
  <wgt id="796">7.74592e-12</wgt>
  <wgt id="797">7.11511e-12</wgt>
  <wgt id="798">4.99332e-12</wgt>
  <wgt id="799">6.78022e-12</wgt>
  <wgt id="800">4.73899e-12</wgt>
  <wgt id="801">5.35312e-12</wgt>
  <wgt id="802">3.9087e-12</wgt>
  <wgt id="803">8.50363e-12</wgt>
  <wgt id="804">7.14362e-12</wgt>
  <wgt id="805">7.1311e-12</wgt>
  <wgt id="806">6.33121e-12</wgt>
  <wgt id="807">5.54517e-12</wgt>
  <wgt id="808">5.54977e-12</wgt>
  <wgt id="809">5.3411e-12</wgt>
  <wgt id="810">6.43631e-12</wgt>
  <wgt id="811">6.21777e-12</wgt>
  <wgt id="812">4.06713e-12</wgt>
  <wgt id="813">4.26025e-12</wgt>
  <wgt id="814">4.58183e-12</wgt>
  <wgt id="815">4.32515e-12</wgt>
  <wgt id="816">4.10055e-12</wgt>
  <wgt id="817">5.9402e-12</wgt>
  <wgt id="818">6.41206e-12</wgt>
  <wgt id="819">4.37087e-12</wgt>
  <wgt id="820">5.67923e-12</wgt>
  <wgt id="821">6.76037e-12</wgt>
  <wgt id="822">4.67131e-12</wgt>
  <wgt id="823">6.93032e-12</wgt>
  <wgt id="824">8.25564e-12</wgt>
  <wgt id="825">3.80524e-12</wgt>
  <wgt id="826">6.50442e-12</wgt>
  <wgt id="827">3.19207e-12</wgt>
  <wgt id="828">7.41607e-12</wgt>
  <wgt id="829">5.99276e-12</wgt>
  <wgt id="830">3.59945e-12</wgt>
  <wgt id="831">6.43279e-12</wgt>
  <wgt id="832">9.78239e-12</wgt>
  <wgt id="833">5.09111e-12</wgt>
  <wgt id="834">9.35935e-12</wgt>
  <wgt id="835">4.54886e-12</wgt>
  <wgt id="836">5.34946e-12</wgt>
  <wgt id="837">6.64932e-12</wgt>
  <wgt id="838">5.18277e-12</wgt>
  <wgt id="839">6.38449e-12</wgt>
  <wgt id="840">5.21132e-12</wgt>
  <wgt id="841">7.53011e-12</wgt>
  <wgt id="842">5.39966e-12</wgt>
  <wgt id="843">5.96465e-12</wgt>
  <wgt id="844">6.17135e-12</wgt>
  <wgt id="845">8.99933e-12</wgt>
  <wgt id="846">5.97445e-12</wgt>
  <wgt id="847">5.9878e-12</wgt>
  <wgt id="848">4.48919e-12</wgt>
  <wgt id="849">6.05077e-12</wgt>
  <wgt id="850">8.01003e-12</wgt>
  <wgt id="851">6.52528e-12</wgt>
  <wgt id="852">4.23088e-12</wgt>
  <wgt id="853">6.65648e-12</wgt>
  <wgt id="854">7.41026e-12</wgt>
  <wgt id="855">6.85222e-12</wgt>
  <wgt id="856">3.63839e-12</wgt>
  <wgt id="857">5.52533e-12</wgt>
  <wgt id="858">5.45764e-12</wgt>
  <wgt id="859">5.48506e-12</wgt>
  <wgt id="860">6.72379e-12</wgt>
  <wgt id="861">5.00503e-12</wgt>
  <wgt id="862">5.87532e-12</wgt>
  <wgt id="863">6.3477e-12</wgt>
  <wgt id="864">6.09709e-12</wgt>
  <wgt id="865">8.65258e-12</wgt>
  <wgt id="866">9.55223e-12</wgt>
  <wgt id="867">5.91236e-12</wgt>
  <wgt id="868">5.79221e-12</wgt>
  <wgt id="869">4.09198e-12</wgt>
  <wgt id="870">4.43209e-12</wgt>
  <wgt id="871">4.30807e-12</wgt>
  <wgt id="872">7.40389e-12</wgt>
  <wgt id="873">4.79211e-12</wgt>
  <wgt id="874">6.22631e-12</wgt>
  <wgt id="875">4.86217e-12</wgt>
  <wgt id="876">7.273e-12</wgt>
  <wgt id="877">6.61435e-12</wgt>
  <wgt id="878">4.74437e-12</wgt>
  <wgt id="879">8.1348e-12</wgt>
  <wgt id="880">8.23372e-12</wgt>
  <wgt id="881">8.65024e-12</wgt>
  <wgt id="882">7.83158e-12</wgt>
  <wgt id="883">8.0625e-12</wgt>
  <wgt id="884">8.16576e-12</wgt>
  <wgt id="885">8.42428e-12</wgt>
  <wgt id="886">7.87355e-12</wgt>
  <wgt id="887">8.48886e-12</wgt>
  <wgt id="888">7.91081e-12</wgt>
  <wgt id="889">7.9369e-12</wgt>
  <wgt id="890">8.46016e-12</wgt>
  <wgt id="891">7.97569e-12</wgt>
  <wgt id="892">8.57631e-12</wgt>
  <wgt id="893">8.43319e-12</wgt>
  <wgt id="894">8.47446e-12</wgt>
  <wgt id="895">8.02559e-12</wgt>
  <wgt id="896">9.90693e-12</wgt>
  <wgt id="897">8.73324e-12</wgt>
  <wgt id="898">7.82563e-12</wgt>
  <wgt id="899">7.83194e-12</wgt>
  <wgt id="900">7.70178e-12</wgt>
  <wgt id="901">7.20378e-12</wgt>
  <wgt id="902">7.1868e-12</wgt>
  <wgt id="903">7.15941e-12</wgt>
  <wgt id="904">8.13784e-12</wgt>
  <wgt id="905">7.97208e-12</wgt>
  <wgt id="906">9.52651e-12</wgt>
  <wgt id="907">9.00878e-12</wgt>
  <wgt id="908">8.80313e-12</wgt>
  <wgt id="909">7.6845e-12</wgt>
  <wgt id="910">7.75382e-12</wgt>
  <wgt id="911">7.95571e-12</wgt>
  <wgt id="912">7.95e-12</wgt>
  <wgt id="913">7.34336e-12</wgt>
  <wgt id="914">8.185e-12</wgt>
  <wgt id="915">7.83761e-12</wgt>
  <wgt id="916">8.75487e-12</wgt>
  <wgt id="917">7.7483e-12</wgt>
  <wgt id="918">7.95905e-12</wgt>
  <wgt id="919">7.85204e-12</wgt>
  <wgt id="920">7.51342e-12</wgt>
  <wgt id="921">8.23305e-12</wgt>
  <wgt id="922">7.39202e-12</wgt>
  <wgt id="923">7.91078e-12</wgt>
  <wgt id="924">7.24354e-12</wgt>
  <wgt id="925">6.97372e-12</wgt>
  <wgt id="926">8.80651e-12</wgt>
  <wgt id="927">8.61614e-12</wgt>
  <wgt id="928">8.52374e-12</wgt>
  <wgt id="929">8.15034e-12</wgt>
  <wgt id="930">8.02746e-12</wgt>
  <wgt id="931">7.90199e-12</wgt>
  <wgt id="932">7.79551e-12</wgt>
  <wgt id="933">8.79461e-12</wgt>
  <wgt id="934">7.99458e-12</wgt>
  <wgt id="935">9.11062e-12</wgt>
  <wgt id="936">7.87811e-12</wgt>
  <wgt id="937">8.34049e-12</wgt>
  <wgt id="938">8.20639e-12</wgt>
  <wgt id="939">7.81806e-12</wgt>
  <wgt id="940">8.10885e-12</wgt>
  <wgt id="941">7.77452e-12</wgt>
  <wgt id="942">8.50822e-12</wgt>
  <wgt id="943">9.19082e-12</wgt>
  <wgt id="944">7.6192e-12</wgt>
  <wgt id="945">8.02921e-12</wgt>
  <wgt id="946">7.63016e-12</wgt>
  <wgt id="947">7.97066e-12</wgt>
  <wgt id="948">8.59361e-12</wgt>
  <wgt id="949">8.78235e-12</wgt>
  <wgt id="950">7.13887e-12</wgt>
  <wgt id="951">7.99268e-12</wgt>
  <wgt id="952">8.47466e-12</wgt>
  <wgt id="953">8.5824e-12</wgt>
  <wgt id="954">8.27092e-12</wgt>
  <wgt id="955">7.43042e-12</wgt>
  <wgt id="956">7.55847e-12</wgt>
  <wgt id="957">8.46182e-12</wgt>
  <wgt id="958">8.08651e-12</wgt>
  <wgt id="959">8.05656e-12</wgt>
  <wgt id="960">7.35517e-12</wgt>
  <wgt id="961">8.06566e-12</wgt>
  <wgt id="962">8.70394e-12</wgt>
  <wgt id="963">8.06803e-12</wgt>
  <wgt id="964">8.691e-12</wgt>
  <wgt id="965">8.72937e-12</wgt>
  <wgt id="966">8.13693e-12</wgt>
  <wgt id="967">8.51245e-12</wgt>
  <wgt id="968">8.22251e-12</wgt>
  <wgt id="969">8.15317e-12</wgt>
  <wgt id="970">8.29868e-12</wgt>
  <wgt id="971">7.5826e-12</wgt>
  <wgt id="972">8.61381e-12</wgt>
  <wgt id="973">7.92298e-12</wgt>
  <wgt id="974">9.68375e-12</wgt>
  <wgt id="975">7.79589e-12</wgt>
  <wgt id="976">8.07963e-12</wgt>
  <wgt id="977">6.89184e-12</wgt>
  <wgt id="978">8.51527e-12</wgt>
  <wgt id="979">8.91191e-12</wgt>
  <wgt id="980">8.1071e-12</wgt>
  <wgt id="981">8.21297e-12</wgt>
  <wgt id="982">7.88214e-12</wgt>
</rwgt>
</event>
<event>
 5   1  0.5790000E-11  0.2255642E+04  0.7818608E-02  0.7728230E-01
       21   -1    0    0  502  501  0.00000000000E+00  0.00000000000E+00  0.19375973369E+04  0.19375973369E+04  0.00000000000E+00 0. -1.
       21   -1    0    0  501  502 -0.00000000000E+00 -0.00000000000E+00 -0.65647316963E+03  0.65647316963E+03  0.00000000000E+00 0.  1.
       39    2    1    2    0    0  0.00000000000E+00  0.00000000000E+00  0.12811241673E+04  0.25940705066E+04  0.22556424054E+04 0.  0.
       25    1    3    3    0    0  0.10903446614E+04 -0.35178494140E+02  0.93660799021E+03  0.14432423685E+04  0.12500000000E+03 0.  0.
       25    1    3    3    0    0 -0.10903446614E+04  0.35178494140E+02  0.34451617710E+03  0.11508281380E+04  0.12500000000E+03 0.  0.
<mgrwt>
<rscale>  0 0.22556424E+04</rscale>
<asrwt>0</asrwt>
<pdfrwt beam="1">  1       21 0.29809190E+00 0.22556424E+04</pdfrwt>
<pdfrwt beam="2">  1       21 0.10099587E+00 0.22556424E+04</pdfrwt>
<totfact> 0.10047332E+01</totfact>
</mgrwt>
<rwgt>
  <wgt id="1">5.79e-12</wgt>
  <wgt id="2">5.01784e-12</wgt>
  <wgt id="3">6.75301e-12</wgt>
  <wgt id="4">5.79e-12</wgt>
  <wgt id="5">5.01784e-12</wgt>
  <wgt id="6">6.75301e-12</wgt>
  <wgt id="7">5.79e-12</wgt>
  <wgt id="8">5.01784e-12</wgt>
  <wgt id="9">6.75301e-12</wgt>
  <wgt id="10">6.05723e-12</wgt>
  <wgt id="11">6.0543e-12</wgt>
  <wgt id="12">6.04539e-12</wgt>
  <wgt id="13">6.04284e-12</wgt>
  <wgt id="14">6.0785e-12</wgt>
  <wgt id="15">6.06755e-12</wgt>
  <wgt id="16">6.04608e-12</wgt>
  <wgt id="17">6.08452e-12</wgt>
  <wgt id="18">6.0493e-12</wgt>
  <wgt id="19">6.07742e-12</wgt>
  <wgt id="20">6.05138e-12</wgt>
  <wgt id="21">6.00939e-12</wgt>
  <wgt id="22">6.01605e-12</wgt>
  <wgt id="23">5.97165e-12</wgt>
  <wgt id="24">6.01411e-12</wgt>
  <wgt id="25">6.03437e-12</wgt>
  <wgt id="26">6.07517e-12</wgt>
  <wgt id="27">6.04741e-12</wgt>
  <wgt id="28">6.01925e-12</wgt>
  <wgt id="29">6.05996e-12</wgt>
  <wgt id="30">6.01212e-12</wgt>
  <wgt id="31">6.08482e-12</wgt>
  <wgt id="32">6.0196e-12</wgt>
  <wgt id="33">6.06644e-12</wgt>
  <wgt id="34">6.02025e-12</wgt>
  <wgt id="35">6.02516e-12</wgt>
  <wgt id="36">6.08491e-12</wgt>
  <wgt id="37">6.03788e-12</wgt>
  <wgt id="38">6.03332e-12</wgt>
  <wgt id="39">6.15623e-12</wgt>
  <wgt id="40">6.06169e-12</wgt>
  <wgt id="41">6.05348e-12</wgt>
  <wgt id="42">6.06774e-12</wgt>
  <wgt id="43">6.05874e-12</wgt>
  <wgt id="44">6.07982e-12</wgt>
  <wgt id="45">6.06575e-12</wgt>
  <wgt id="46">6.04004e-12</wgt>
  <wgt id="47">6.09731e-12</wgt>
  <wgt id="48">6.07877e-12</wgt>
  <wgt id="49">6.02555e-12</wgt>
  <wgt id="50">6.02034e-12</wgt>
  <wgt id="51">6.03044e-12</wgt>
  <wgt id="52">6.07391e-12</wgt>
  <wgt id="53">6.08297e-12</wgt>
  <wgt id="54">6.07787e-12</wgt>
  <wgt id="55">6.05619e-12</wgt>
  <wgt id="56">6.05188e-12</wgt>
  <wgt id="57">6.03949e-12</wgt>
  <wgt id="58">6.04817e-12</wgt>
  <wgt id="59">6.05898e-12</wgt>
  <wgt id="60">6.03003e-12</wgt>
  <wgt id="61">6.01941e-12</wgt>
  <wgt id="62">6.03717e-12</wgt>
  <wgt id="63">6.04944e-12</wgt>
  <wgt id="64">6.05434e-12</wgt>
  <wgt id="65">6.04618e-12</wgt>
  <wgt id="66">6.0569e-12</wgt>
  <wgt id="67">6.036e-12</wgt>
  <wgt id="68">6.05639e-12</wgt>
  <wgt id="69">6.05075e-12</wgt>
  <wgt id="70">6.04914e-12</wgt>
  <wgt id="71">6.0514e-12</wgt>
  <wgt id="72">6.02532e-12</wgt>
  <wgt id="73">6.07915e-12</wgt>
  <wgt id="74">6.07148e-12</wgt>
  <wgt id="75">6.05798e-12</wgt>
  <wgt id="76">6.08936e-12</wgt>
  <wgt id="77">6.04884e-12</wgt>
  <wgt id="78">6.05194e-12</wgt>
  <wgt id="79">6.07358e-12</wgt>
  <wgt id="80">6.01522e-12</wgt>
  <wgt id="81">6.05672e-12</wgt>
  <wgt id="82">6.06127e-12</wgt>
  <wgt id="83">6.02573e-12</wgt>
  <wgt id="84">6.04388e-12</wgt>
  <wgt id="85">6.03754e-12</wgt>
  <wgt id="86">6.07671e-12</wgt>
  <wgt id="87">6.01063e-12</wgt>
  <wgt id="88">6.06949e-12</wgt>
  <wgt id="89">6.06422e-12</wgt>
  <wgt id="90">6.0766e-12</wgt>
  <wgt id="91">6.06413e-12</wgt>
  <wgt id="92">6.07133e-12</wgt>
  <wgt id="93">6.06512e-12</wgt>
  <wgt id="94">6.04534e-12</wgt>
  <wgt id="95">6.07688e-12</wgt>
  <wgt id="96">6.06886e-12</wgt>
  <wgt id="97">6.03768e-12</wgt>
  <wgt id="98">6.05723e-12</wgt>
  <wgt id="99">6.04498e-12</wgt>
  <wgt id="100">6.0718e-12</wgt>
  <wgt id="101">6.0546e-12</wgt>
  <wgt id="102">6.05061e-12</wgt>
  <wgt id="103">6.07542e-12</wgt>
  <wgt id="104">6.047e-12</wgt>
  <wgt id="105">6.0675e-12</wgt>
  <wgt id="106">6.04388e-12</wgt>
  <wgt id="107">6.08753e-12</wgt>
  <wgt id="108">6.04673e-12</wgt>
  <wgt id="109">6.06476e-12</wgt>
  <wgt id="110">6.0541e-12</wgt>
  <wgt id="111">6.08047e-12</wgt>
  <wgt id="112">6.11543e-12</wgt>
  <wgt id="113">8.5035e-12</wgt>
  <wgt id="114">8.16888e-12</wgt>
  <wgt id="115">8.02253e-12</wgt>
  <wgt id="116">1.10212e-11</wgt>
  <wgt id="117">6.67599e-12</wgt>
  <wgt id="118">6.69987e-12</wgt>
  <wgt id="119">6.66245e-12</wgt>
  <wgt id="120">6.67639e-12</wgt>
  <wgt id="121">6.67579e-12</wgt>
  <wgt id="122">6.66508e-12</wgt>
  <wgt id="123">6.69114e-12</wgt>
  <wgt id="124">6.66687e-12</wgt>
  <wgt id="125">6.68189e-12</wgt>
  <wgt id="126">6.68606e-12</wgt>
  <wgt id="127">6.66932e-12</wgt>
  <wgt id="128">6.69649e-12</wgt>
  <wgt id="129">6.65562e-12</wgt>
  <wgt id="130">6.71037e-12</wgt>
  <wgt id="131">6.64047e-12</wgt>
  <wgt id="132">6.49593e-12</wgt>
  <wgt id="133">6.88982e-12</wgt>
  <wgt id="134">6.60488e-12</wgt>
  <wgt id="135">6.73176e-12</wgt>
  <wgt id="136">6.77214e-12</wgt>
  <wgt id="137">6.56025e-12</wgt>
  <wgt id="138">6.96278e-12</wgt>
  <wgt id="139">6.40226e-12</wgt>
  <wgt id="140">6.64012e-12</wgt>
  <wgt id="141">6.7034e-12</wgt>
  <wgt id="142">6.67504e-12</wgt>
  <wgt id="143">6.69346e-12</wgt>
  <wgt id="144">6.43069e-12</wgt>
  <wgt id="145">6.91105e-12</wgt>
  <wgt id="146">6.75393e-12</wgt>
  <wgt id="147">6.6128e-12</wgt>
  <wgt id="148">6.69921e-12</wgt>
  <wgt id="149">6.67431e-12</wgt>
  <wgt id="150">6.73235e-12</wgt>
  <wgt id="151">6.6497e-12</wgt>
  <wgt id="152">6.67815e-12</wgt>
  <wgt id="153">6.67522e-12</wgt>
  <wgt id="154">6.70361e-12</wgt>
  <wgt id="155">6.63412e-12</wgt>
  <wgt id="156">6.86884e-12</wgt>
  <wgt id="157">6.49318e-12</wgt>
  <wgt id="158">8.01324e-12</wgt>
  <wgt id="159">8.04716e-12</wgt>
  <wgt id="160">7.98596e-12</wgt>
  <wgt id="161">7.99336e-12</wgt>
  <wgt id="162">8.03543e-12</wgt>
  <wgt id="163">8.00441e-12</wgt>
  <wgt id="164">8.02624e-12</wgt>
  <wgt id="165">8.01636e-12</wgt>
  <wgt id="166">8.01087e-12</wgt>
  <wgt id="167">8.00751e-12</wgt>
  <wgt id="168">8.0212e-12</wgt>
  <wgt id="169">7.97984e-12</wgt>
  <wgt id="170">8.03408e-12</wgt>
  <wgt id="171">8.00663e-12</wgt>
  <wgt id="172">8.02261e-12</wgt>
  <wgt id="173">8.00294e-12</wgt>
  <wgt id="174">8.01672e-12</wgt>
  <wgt id="175">7.78509e-12</wgt>
  <wgt id="176">8.31172e-12</wgt>
  <wgt id="177">8.05172e-12</wgt>
  <wgt id="178">7.97809e-12</wgt>
  <wgt id="179">8.39458e-12</wgt>
  <wgt id="180">7.42103e-12</wgt>
  <wgt id="181">7.75885e-12</wgt>
  <wgt id="182">8.18237e-12</wgt>
  <wgt id="183">7.85868e-12</wgt>
  <wgt id="184">8.08997e-12</wgt>
  <wgt id="185">7.93162e-12</wgt>
  <wgt id="186">8.11143e-12</wgt>
  <wgt id="187">7.92867e-12</wgt>
  <wgt id="188">8.16292e-12</wgt>
  <wgt id="189">7.95441e-12</wgt>
  <wgt id="190">8.03713e-12</wgt>
  <wgt id="191">8.03977e-12</wgt>
  <wgt id="192">7.99764e-12</wgt>
  <wgt id="193">8.13984e-12</wgt>
  <wgt id="194">7.94971e-12</wgt>
  <wgt id="195">7.75913e-12</wgt>
  <wgt id="196">8.43897e-12</wgt>
  <wgt id="197">8.05499e-12</wgt>
  <wgt id="198">8.0032e-12</wgt>
  <wgt id="199">8.01324e-12</wgt>
  <wgt id="200">8.08783e-12</wgt>
  <wgt id="201">8.06198e-12</wgt>
  <wgt id="202">8.03688e-12</wgt>
  <wgt id="203">8.00048e-12</wgt>
  <wgt id="204">7.98239e-12</wgt>
  <wgt id="205">7.9675e-12</wgt>
  <wgt id="206">7.82709e-12</wgt>
  <wgt id="207">7.87354e-12</wgt>
  <wgt id="208">7.78109e-12</wgt>
  <wgt id="209">7.84978e-12</wgt>
  <wgt id="210">7.81042e-12</wgt>
  <wgt id="211">7.82448e-12</wgt>
  <wgt id="212">7.82908e-12</wgt>
  <wgt id="213">7.82637e-12</wgt>
  <wgt id="214">7.82812e-12</wgt>
  <wgt id="215">7.83267e-12</wgt>
  <wgt id="216">7.82315e-12</wgt>
  <wgt id="217">7.846e-12</wgt>
  <wgt id="218">7.81246e-12</wgt>
  <wgt id="219">7.81705e-12</wgt>
  <wgt id="220">7.83317e-12</wgt>
  <wgt id="221">7.82817e-12</wgt>
  <wgt id="222">7.82293e-12</wgt>
  <wgt id="223">7.39601e-12</wgt>
  <wgt id="224">8.22145e-12</wgt>
  <wgt id="225">7.73198e-12</wgt>
  <wgt id="226">7.94754e-12</wgt>
  <wgt id="227">7.753e-12</wgt>
  <wgt id="228">7.85957e-12</wgt>
  <wgt id="229">7.71711e-12</wgt>
  <wgt id="230">7.88163e-12</wgt>
  <wgt id="231">8.07772e-12</wgt>
  <wgt id="232">7.62174e-12</wgt>
  <wgt id="233">7.78087e-12</wgt>
  <wgt id="234">7.90321e-12</wgt>
  <wgt id="235">7.55954e-12</wgt>
  <wgt id="236">8.05091e-12</wgt>
  <wgt id="237">7.66639e-12</wgt>
  <wgt id="238">7.88077e-12</wgt>
  <wgt id="239">7.76107e-12</wgt>
  <wgt id="240">7.94557e-12</wgt>
  <wgt id="241">7.73755e-12</wgt>
  <wgt id="242">7.93344e-12</wgt>
  <wgt id="243">7.94654e-12</wgt>
  <wgt id="244">7.84047e-12</wgt>
  <wgt id="245">7.82306e-12</wgt>
  <wgt id="246">7.87463e-12</wgt>
  <wgt id="247">7.82709e-12</wgt>
  <wgt id="248">7.90586e-12</wgt>
  <wgt id="249">7.8781e-12</wgt>
  <wgt id="250">7.84989e-12</wgt>
  <wgt id="251">7.81074e-12</wgt>
  <wgt id="252">7.79127e-12</wgt>
  <wgt id="253">7.77756e-12</wgt>
  <wgt id="254">7.5795e-12</wgt>
  <wgt id="255">7.58627e-12</wgt>
  <wgt id="256">7.57214e-12</wgt>
  <wgt id="257">7.58545e-12</wgt>
  <wgt id="258">7.57506e-12</wgt>
  <wgt id="259">7.63012e-12</wgt>
  <wgt id="260">7.53058e-12</wgt>
  <wgt id="261">7.59047e-12</wgt>
  <wgt id="262">7.56654e-12</wgt>
  <wgt id="263">7.57464e-12</wgt>
  <wgt id="264">7.58504e-12</wgt>
  <wgt id="265">7.57067e-12</wgt>
  <wgt id="266">7.59717e-12</wgt>
  <wgt id="267">7.5819e-12</wgt>
  <wgt id="268">7.57584e-12</wgt>
  <wgt id="269">7.60258e-12</wgt>
  <wgt id="270">7.56378e-12</wgt>
  <wgt id="271">7.56107e-12</wgt>
  <wgt id="272">7.59999e-12</wgt>
  <wgt id="273">7.55876e-12</wgt>
  <wgt id="274">7.59524e-12</wgt>
  <wgt id="275">7.53835e-12</wgt>
  <wgt id="276">7.62199e-12</wgt>
  <wgt id="277">7.53566e-12</wgt>
  <wgt id="278">7.61958e-12</wgt>
  <wgt id="279">7.43966e-12</wgt>
  <wgt id="280">7.75536e-12</wgt>
  <wgt id="281">7.54535e-12</wgt>
  <wgt id="282">7.58644e-12</wgt>
  <wgt id="283">7.3442e-12</wgt>
  <wgt id="284">7.87186e-12</wgt>
  <wgt id="285">7.18967e-12</wgt>
  <wgt id="286">7.90668e-12</wgt>
  <wgt id="287">7.60532e-12</wgt>
  <wgt id="288">7.54633e-12</wgt>
  <wgt id="289">7.6378e-12</wgt>
  <wgt id="290">7.44882e-12</wgt>
  <wgt id="291">7.55292e-12</wgt>
  <wgt id="292">7.5817e-12</wgt>
  <wgt id="293">7.51596e-12</wgt>
  <wgt id="294">7.64248e-12</wgt>
  <wgt id="295">7.42513e-12</wgt>
  <wgt id="296">7.76831e-12</wgt>
  <wgt id="297">7.56731e-12</wgt>
  <wgt id="298">7.61398e-12</wgt>
  <wgt id="299">7.55436e-12</wgt>
  <wgt id="300">7.64592e-12</wgt>
  <wgt id="301">7.44491e-12</wgt>
  <wgt id="302">7.89797e-12</wgt>
  <wgt id="303">7.50556e-12</wgt>
  <wgt id="304">7.62113e-12</wgt>
  <wgt id="305">7.54136e-12</wgt>
  <wgt id="306">7.54845e-12</wgt>
  <wgt id="307">7.53369e-12</wgt>
  <wgt id="308">7.54784e-12</wgt>
  <wgt id="309">7.53696e-12</wgt>
  <wgt id="310">7.59325e-12</wgt>
  <wgt id="311">7.49338e-12</wgt>
  <wgt id="312">7.55071e-12</wgt>
  <wgt id="313">7.53141e-12</wgt>
  <wgt id="314">7.53632e-12</wgt>
  <wgt id="315">7.54604e-12</wgt>
  <wgt id="316">7.53259e-12</wgt>
  <wgt id="317">7.56036e-12</wgt>
  <wgt id="318">7.54676e-12</wgt>
  <wgt id="319">7.53172e-12</wgt>
  <wgt id="320">7.56607e-12</wgt>
  <wgt id="321">7.52757e-12</wgt>
  <wgt id="322">7.52047e-12</wgt>
  <wgt id="323">7.56568e-12</wgt>
  <wgt id="324">7.52552e-12</wgt>
  <wgt id="325">7.55506e-12</wgt>
  <wgt id="326">7.50761e-12</wgt>
  <wgt id="327">7.58455e-12</wgt>
  <wgt id="328">7.50182e-12</wgt>
  <wgt id="329">7.56367e-12</wgt>
  <wgt id="330">7.75568e-12</wgt>
  <wgt id="331">7.33729e-12</wgt>
  <wgt id="332">7.51302e-12</wgt>
  <wgt id="333">7.54556e-12</wgt>
  <wgt id="334">7.36061e-12</wgt>
  <wgt id="335">7.76735e-12</wgt>
  <wgt id="336">7.26307e-12</wgt>
  <wgt id="337">7.88429e-12</wgt>
  <wgt id="338">7.63131e-12</wgt>
  <wgt id="339">7.45828e-12</wgt>
  <wgt id="340">7.59475e-12</wgt>
  <wgt id="341">7.40839e-12</wgt>
  <wgt id="342">7.52242e-12</wgt>
  <wgt id="343">7.52964e-12</wgt>
  <wgt id="344">7.48525e-12</wgt>
  <wgt id="345">7.60662e-12</wgt>
  <wgt id="346">7.38287e-12</wgt>
  <wgt id="347">7.72331e-12</wgt>
  <wgt id="348">7.53133e-12</wgt>
  <wgt id="349">7.5715e-12</wgt>
  <wgt id="350">7.51021e-12</wgt>
  <wgt id="351">7.62033e-12</wgt>
  <wgt id="352">7.40222e-12</wgt>
  <wgt id="353">7.85794e-12</wgt>
  <wgt id="354">7.43468e-12</wgt>
  <wgt id="355">7.60529e-12</wgt>
  <wgt id="356">7.5795e-12</wgt>
  <wgt id="357">7.55513e-12</wgt>
  <wgt id="358">7.54136e-12</wgt>
  <wgt id="359">7.58732e-12</wgt>
  <wgt id="360">7.6842e-12</wgt>
  <wgt id="361">7.61378e-12</wgt>
  <wgt id="362">7.75785e-12</wgt>
  <wgt id="363">7.73881e-12</wgt>
  <wgt id="364">7.70471e-12</wgt>
  <wgt id="365">7.6768e-12</wgt>
  <wgt id="366">7.64745e-12</wgt>
  <wgt id="367">7.59047e-12</wgt>
  <wgt id="368">7.55553e-12</wgt>
  <wgt id="369">7.51788e-12</wgt>
  <wgt id="370">7.61378e-12</wgt>
  <wgt id="371">7.64596e-12</wgt>
  <wgt id="372">7.62793e-12</wgt>
  <wgt id="373">7.60228e-12</wgt>
  <wgt id="374">7.60813e-12</wgt>
  <wgt id="375">8.50596e-12</wgt>
  <wgt id="376">8.50671e-12</wgt>
  <wgt id="377">8.50518e-12</wgt>
  <wgt id="378">8.53786e-12</wgt>
  <wgt id="379">8.47447e-12</wgt>
  <wgt id="380">8.53024e-12</wgt>
  <wgt id="381">8.49637e-12</wgt>
  <wgt id="382">8.5461e-12</wgt>
  <wgt id="383">8.46641e-12</wgt>
  <wgt id="384">8.51152e-12</wgt>
  <wgt id="385">8.50091e-12</wgt>
  <wgt id="386">8.53498e-12</wgt>
  <wgt id="387">8.49361e-12</wgt>
  <wgt id="388">8.49865e-12</wgt>
  <wgt id="389">8.51521e-12</wgt>
  <wgt id="390">8.52612e-12</wgt>
  <wgt id="391">8.48461e-12</wgt>
  <wgt id="392">8.43453e-12</wgt>
  <wgt id="393">8.54655e-12</wgt>
  <wgt id="394">8.51362e-12</wgt>
  <wgt id="395">8.49536e-12</wgt>
  <wgt id="396">8.51805e-12</wgt>
  <wgt id="397">8.4974e-12</wgt>
  <wgt id="398">8.4865e-12</wgt>
  <wgt id="399">8.52496e-12</wgt>
  <wgt id="400">8.4934e-12</wgt>
  <wgt id="401">8.53414e-12</wgt>
  <wgt id="402">8.4318e-12</wgt>
  <wgt id="403">8.54864e-12</wgt>
  <wgt id="404">8.73433e-12</wgt>
  <wgt id="405">7.96118e-12</wgt>
  <wgt id="406">8.34124e-12</wgt>
  <wgt id="407">8.86997e-12</wgt>
  <wgt id="408">8.59174e-12</wgt>
  <wgt id="409">8.34668e-12</wgt>
  <wgt id="410">8.23831e-12</wgt>
  <wgt id="411">8.63374e-12</wgt>
  <wgt id="412">8.48761e-12</wgt>
  <wgt id="413">8.53324e-12</wgt>
  <wgt id="414">8.39905e-12</wgt>
  <wgt id="415">8.58921e-12</wgt>
  <wgt id="416">8.77327e-12</wgt>
  <wgt id="417">8.13823e-12</wgt>
  <wgt id="418">8.52161e-12</wgt>
  <wgt id="419">8.42243e-12</wgt>
  <wgt id="420">8.68406e-12</wgt>
  <wgt id="421">8.3911e-12</wgt>
  <wgt id="422">8.46762e-12</wgt>
  <wgt id="423">8.52455e-12</wgt>
  <wgt id="424">8.73034e-12</wgt>
  <wgt id="425">8.356e-12</wgt>
  <wgt id="426">8.50596e-12</wgt>
  <wgt id="427">8.36748e-12</wgt>
  <wgt id="428">8.83774e-12</wgt>
  <wgt id="429">8.60848e-12</wgt>
  <wgt id="430">8.87551e-12</wgt>
  <wgt id="431">8.82168e-12</wgt>
  <wgt id="432">8.77213e-12</wgt>
  <wgt id="433">8.72362e-12</wgt>
  <wgt id="434">8.66249e-12</wgt>
  <wgt id="435">8.54088e-12</wgt>
  <wgt id="436">8.47909e-12</wgt>
  <wgt id="437">8.41942e-12</wgt>
  <wgt id="438">8.60848e-12</wgt>
  <wgt id="439">8.63524e-12</wgt>
  <wgt id="440">8.61882e-12</wgt>
  <wgt id="441">8.60102e-12</wgt>
  <wgt id="442">8.59504e-12</wgt>
  <wgt id="443">7.94776e-12</wgt>
  <wgt id="444">8.02092e-12</wgt>
  <wgt id="445">8.00194e-12</wgt>
  <wgt id="446">7.88934e-12</wgt>
  <wgt id="447">7.9462e-12</wgt>
  <wgt id="448">7.75082e-12</wgt>
  <wgt id="449">8.09951e-12</wgt>
  <wgt id="450">8.02016e-12</wgt>
  <wgt id="451">7.92718e-12</wgt>
  <wgt id="452">8.1231e-12</wgt>
  <wgt id="453">8.03647e-12</wgt>
  <wgt id="454">7.56233e-12</wgt>
  <wgt id="455">7.99954e-12</wgt>
  <wgt id="456">8.04551e-12</wgt>
  <wgt id="457">7.9743e-12</wgt>
  <wgt id="458">8.07947e-12</wgt>
  <wgt id="459">8.01796e-12</wgt>
  <wgt id="460">8.07925e-12</wgt>
  <wgt id="461">7.76735e-12</wgt>
  <wgt id="462">7.89177e-12</wgt>
  <wgt id="463">7.82879e-12</wgt>
  <wgt id="464">7.9086e-12</wgt>
  <wgt id="465">8.03348e-12</wgt>
  <wgt id="466">7.7871e-12</wgt>
  <wgt id="467">7.88093e-12</wgt>
  <wgt id="468">7.93621e-12</wgt>
  <wgt id="469">7.92965e-12</wgt>
  <wgt id="470">7.83686e-12</wgt>
  <wgt id="471">7.85705e-12</wgt>
  <wgt id="472">7.9964e-12</wgt>
  <wgt id="473">7.69432e-12</wgt>
  <wgt id="474">5.79e-12</wgt>
  <wgt id="475">5.81904e-12</wgt>
  <wgt id="476">5.73048e-12</wgt>
  <wgt id="477">5.80235e-12</wgt>
  <wgt id="478">5.85103e-12</wgt>
  <wgt id="479">5.56491e-12</wgt>
  <wgt id="480">6.07347e-12</wgt>
  <wgt id="481">5.81285e-12</wgt>
  <wgt id="482">5.76709e-12</wgt>
  <wgt id="483">5.7337e-12</wgt>
  <wgt id="484">6.01572e-12</wgt>
  <wgt id="485">5.42153e-12</wgt>
  <wgt id="486">6.08519e-12</wgt>
  <wgt id="487">5.69166e-12</wgt>
  <wgt id="488">5.87711e-12</wgt>
  <wgt id="489">5.31672e-12</wgt>
  <wgt id="490">5.63865e-12</wgt>
  <wgt id="491">5.73786e-12</wgt>
  <wgt id="492">5.69958e-12</wgt>
  <wgt id="493">5.42467e-12</wgt>
  <wgt id="494">5.46507e-12</wgt>
  <wgt id="495">5.7975e-12</wgt>
  <wgt id="496">5.5403e-12</wgt>
  <wgt id="497">5.45573e-12</wgt>
  <wgt id="498">5.9626e-12</wgt>
  <wgt id="499">5.79746e-12</wgt>
  <wgt id="500">5.66935e-12</wgt>
  <wgt id="501">6.0039e-12</wgt>
  <wgt id="502">5.92183e-12</wgt>
  <wgt id="503">5.73167e-12</wgt>
  <wgt id="504">5.96538e-12</wgt>
  <wgt id="505">5.91744e-12</wgt>
  <wgt id="506">5.52748e-12</wgt>
  <wgt id="507">5.75751e-12</wgt>
  <wgt id="508">6.06907e-12</wgt>
  <wgt id="509">5.49068e-12</wgt>
  <wgt id="510">5.86483e-12</wgt>
  <wgt id="511">5.5235e-12</wgt>
  <wgt id="512">6.10513e-12</wgt>
  <wgt id="513">6.00664e-12</wgt>
  <wgt id="514">6.01841e-12</wgt>
  <wgt id="515">5.87336e-12</wgt>
  <wgt id="516">6.29775e-12</wgt>
  <wgt id="517">5.92647e-12</wgt>
  <wgt id="518">5.97791e-12</wgt>
  <wgt id="519">5.57474e-12</wgt>
  <wgt id="520">5.90893e-12</wgt>
  <wgt id="521">5.75455e-12</wgt>
  <wgt id="522">6.03658e-12</wgt>
  <wgt id="523">5.56527e-12</wgt>
  <wgt id="524">5.81484e-12</wgt>
  <wgt id="525">5.78335e-12</wgt>
  <wgt id="526">6.00485e-12</wgt>
  <wgt id="527">5.74616e-12</wgt>
  <wgt id="528">5.80169e-12</wgt>
  <wgt id="529">5.61099e-12</wgt>
  <wgt id="530">6.03762e-12</wgt>
  <wgt id="531">5.59695e-12</wgt>
  <wgt id="532">6.23496e-12</wgt>
  <wgt id="533">5.6865e-12</wgt>
  <wgt id="534">5.64071e-12</wgt>
  <wgt id="535">5.80371e-12</wgt>
  <wgt id="536">5.9118e-12</wgt>
  <wgt id="537">5.59633e-12</wgt>
  <wgt id="538">5.7771e-12</wgt>
  <wgt id="539">5.6679e-12</wgt>
  <wgt id="540">6.0428e-12</wgt>
  <wgt id="541">5.7437e-12</wgt>
  <wgt id="542">5.70617e-12</wgt>
  <wgt id="543">5.66047e-12</wgt>
  <wgt id="544">5.9009e-12</wgt>
  <wgt id="545">5.54289e-12</wgt>
  <wgt id="546">5.41195e-12</wgt>
  <wgt id="547">5.6234e-12</wgt>
  <wgt id="548">5.5687e-12</wgt>
  <wgt id="549">5.68574e-12</wgt>
  <wgt id="550">5.66827e-12</wgt>
  <wgt id="551">5.84199e-12</wgt>
  <wgt id="552">5.38901e-12</wgt>
  <wgt id="553">5.53923e-12</wgt>
  <wgt id="554">6.11982e-12</wgt>
  <wgt id="555">5.93619e-12</wgt>
  <wgt id="556">5.63865e-12</wgt>
  <wgt id="557">5.94006e-12</wgt>
  <wgt id="558">5.70901e-12</wgt>
  <wgt id="559">5.76816e-12</wgt>
  <wgt id="560">6.39645e-12</wgt>
  <wgt id="561">5.8581e-12</wgt>
  <wgt id="562">6.0042e-12</wgt>
  <wgt id="563">6.2511e-12</wgt>
  <wgt id="564">6.08091e-12</wgt>
  <wgt id="565">5.86133e-12</wgt>
  <wgt id="566">5.71655e-12</wgt>
  <wgt id="567">5.77166e-12</wgt>
  <wgt id="568">5.65026e-12</wgt>
  <wgt id="569">5.86062e-12</wgt>
  <wgt id="570">5.63357e-12</wgt>
  <wgt id="571">6.39473e-12</wgt>
  <wgt id="572">5.6428e-12</wgt>
  <wgt id="573">5.62105e-12</wgt>
  <wgt id="574">5.64256e-12</wgt>
  <wgt id="575">6.3879e-12</wgt>
  <wgt id="576">6.81033e-12</wgt>
  <wgt id="577">6.66326e-12</wgt>
  <wgt id="578">6.54285e-12</wgt>
  <wgt id="579">6.63e-12</wgt>
  <wgt id="580">6.76518e-12</wgt>
  <wgt id="581">7.01213e-12</wgt>
  <wgt id="582">6.73386e-12</wgt>
  <wgt id="583">6.4805e-12</wgt>
  <wgt id="584">6.32504e-12</wgt>
  <wgt id="585">6.01737e-12</wgt>
  <wgt id="586">6.05999e-12</wgt>
  <wgt id="587">6.50885e-12</wgt>
  <wgt id="588">6.77955e-12</wgt>
  <wgt id="589">6.85475e-12</wgt>
  <wgt id="590">6.3366e-12</wgt>
  <wgt id="591">6.58255e-12</wgt>
  <wgt id="592">5.90689e-12</wgt>
  <wgt id="593">6.23393e-12</wgt>
  <wgt id="594">6.34076e-12</wgt>
  <wgt id="595">6.61117e-12</wgt>
  <wgt id="596">7.3028e-12</wgt>
  <wgt id="597">6.43123e-12</wgt>
  <wgt id="598">6.35528e-12</wgt>
  <wgt id="599">6.75626e-12</wgt>
  <wgt id="600">6.66602e-12</wgt>
  <wgt id="601">6.14855e-12</wgt>
  <wgt id="602">6.19925e-12</wgt>
  <wgt id="603">6.0529e-12</wgt>
  <wgt id="604">6.52729e-12</wgt>
  <wgt id="605">6.50601e-12</wgt>
  <wgt id="606">6.49511e-12</wgt>
  <wgt id="607">6.58588e-12</wgt>
  <wgt id="608">6.60964e-12</wgt>
  <wgt id="609">6.27298e-12</wgt>
  <wgt id="610">6.13047e-12</wgt>
  <wgt id="611">6.16452e-12</wgt>
  <wgt id="612">6.64404e-12</wgt>
  <wgt id="613">6.16337e-12</wgt>
  <wgt id="614">6.34267e-12</wgt>
  <wgt id="615">6.43762e-12</wgt>
  <wgt id="616">6.28886e-12</wgt>
  <wgt id="617">6.61033e-12</wgt>
  <wgt id="618">6.99454e-12</wgt>
  <wgt id="619">6.27097e-12</wgt>
  <wgt id="620">6.61199e-12</wgt>
  <wgt id="621">6.32922e-12</wgt>
  <wgt id="622">6.50885e-12</wgt>
  <wgt id="623">6.45929e-12</wgt>
  <wgt id="624">6.43056e-12</wgt>
  <wgt id="625">6.13882e-12</wgt>
  <wgt id="626">5.83563e-12</wgt>
  <wgt id="627">5.87673e-12</wgt>
  <wgt id="628">6.38188e-12</wgt>
  <wgt id="629">6.41759e-12</wgt>
  <wgt id="630">6.17084e-12</wgt>
  <wgt id="631">6.5111e-12</wgt>
  <wgt id="632">5.89678e-12</wgt>
  <wgt id="633">6.3597e-12</wgt>
  <wgt id="634">6.15161e-12</wgt>
  <wgt id="635">5.92438e-12</wgt>
  <wgt id="636">6.47932e-12</wgt>
  <wgt id="637">6.35012e-12</wgt>
  <wgt id="638">6.12389e-12</wgt>
  <wgt id="639">6.16989e-12</wgt>
  <wgt id="640">6.2852e-12</wgt>
  <wgt id="641">6.65276e-12</wgt>
  <wgt id="642">5.91773e-12</wgt>
  <wgt id="643">6.2566e-12</wgt>
  <wgt id="644">5.74404e-12</wgt>
  <wgt id="645">6.38644e-12</wgt>
  <wgt id="646">5.99174e-12</wgt>
  <wgt id="647">6.41693e-12</wgt>
  <wgt id="648">6.63083e-12</wgt>
  <wgt id="649">6.41621e-12</wgt>
  <wgt id="650">6.11533e-12</wgt>
  <wgt id="651">6.7934e-12</wgt>
  <wgt id="652">6.16545e-12</wgt>
  <wgt id="653">6.146e-12</wgt>
  <wgt id="654">6.37177e-12</wgt>
  <wgt id="655">6.20232e-12</wgt>
  <wgt id="656">6.40315e-12</wgt>
  <wgt id="657">6.9664e-12</wgt>
  <wgt id="658">6.4026e-12</wgt>
  <wgt id="659">6.11549e-12</wgt>
  <wgt id="660">6.27172e-12</wgt>
  <wgt id="661">6.251e-12</wgt>
  <wgt id="662">6.30222e-12</wgt>
  <wgt id="663">6.48348e-12</wgt>
  <wgt id="664">6.429e-12</wgt>
  <wgt id="665">6.34664e-12</wgt>
  <wgt id="666">6.25857e-12</wgt>
  <wgt id="667">6.70804e-12</wgt>
  <wgt id="668">6.33167e-12</wgt>
  <wgt id="669">6.42394e-12</wgt>
  <wgt id="670">6.6711e-12</wgt>
  <wgt id="671">6.43682e-12</wgt>
  <wgt id="672">6.17727e-12</wgt>
  <wgt id="673">6.70099e-12</wgt>
  <wgt id="674">6.20157e-12</wgt>
  <wgt id="675">6.22011e-12</wgt>
  <wgt id="676">8.22623e-12</wgt>
  <wgt id="677">8.32526e-12</wgt>
  <wgt id="678">8.90888e-12</wgt>
  <wgt id="679">8.21278e-12</wgt>
  <wgt id="680">8.25566e-12</wgt>
  <wgt id="681">8.11142e-12</wgt>
  <wgt id="682">8.60809e-12</wgt>
  <wgt id="683">7.73226e-12</wgt>
  <wgt id="684">8.62115e-12</wgt>
  <wgt id="685">8.14566e-12</wgt>
  <wgt id="686">8.1968e-12</wgt>
  <wgt id="687">8.49914e-12</wgt>
  <wgt id="688">8.00517e-12</wgt>
  <wgt id="689">8.59645e-12</wgt>
  <wgt id="690">8.4471e-12</wgt>
  <wgt id="691">8.4869e-12</wgt>
  <wgt id="692">8.06201e-12</wgt>
  <wgt id="693">1.05331e-11</wgt>
  <wgt id="694">8.97054e-12</wgt>
  <wgt id="695">7.80278e-12</wgt>
  <wgt id="696">7.92893e-12</wgt>
  <wgt id="697">7.58618e-12</wgt>
  <wgt id="698">6.96647e-12</wgt>
  <wgt id="699">7.05963e-12</wgt>
  <wgt id="700">7.26065e-12</wgt>
  <wgt id="701">8.21669e-12</wgt>
  <wgt id="702">8.00964e-12</wgt>
  <wgt id="703">9.95979e-12</wgt>
  <wgt id="704">9.21316e-12</wgt>
  <wgt id="705">9.14393e-12</wgt>
  <wgt id="706">7.75177e-12</wgt>
  <wgt id="707">7.75607e-12</wgt>
  <wgt id="708">7.93518e-12</wgt>
  <wgt id="709">7.98707e-12</wgt>
  <wgt id="710">7.16782e-12</wgt>
  <wgt id="711">8.53965e-12</wgt>
  <wgt id="712">7.77964e-12</wgt>
  <wgt id="713">8.87001e-12</wgt>
  <wgt id="714">7.55567e-12</wgt>
  <wgt id="715">7.93587e-12</wgt>
  <wgt id="716">7.92529e-12</wgt>
  <wgt id="717">7.33162e-12</wgt>
  <wgt id="718">8.40708e-12</wgt>
  <wgt id="719">7.48127e-12</wgt>
  <wgt id="720">8.25739e-12</wgt>
  <wgt id="721">7.10363e-12</wgt>
  <wgt id="722">6.71333e-12</wgt>
  <wgt id="723">9.1109e-12</wgt>
  <wgt id="724">8.84525e-12</wgt>
  <wgt id="725">8.59239e-12</wgt>
  <wgt id="726">8.19419e-12</wgt>
  <wgt id="727">8.20287e-12</wgt>
  <wgt id="728">7.99411e-12</wgt>
  <wgt id="729">7.74984e-12</wgt>
  <wgt id="730">9.02076e-12</wgt>
  <wgt id="731">8.0729e-12</wgt>
  <wgt id="732">9.4371e-12</wgt>
  <wgt id="733">7.75988e-12</wgt>
  <wgt id="734">8.47008e-12</wgt>
  <wgt id="735">8.29733e-12</wgt>
  <wgt id="736">7.72523e-12</wgt>
  <wgt id="737">7.90951e-12</wgt>
  <wgt id="738">7.84636e-12</wgt>
  <wgt id="739">8.76238e-12</wgt>
  <wgt id="740">9.54425e-12</wgt>
  <wgt id="741">8.22907e-12</wgt>
  <wgt id="742">8.01447e-12</wgt>
  <wgt id="743">7.57676e-12</wgt>
  <wgt id="744">8.06508e-12</wgt>
  <wgt id="745">8.85813e-12</wgt>
  <wgt id="746">9.09309e-12</wgt>
  <wgt id="747">6.96336e-12</wgt>
  <wgt id="748">8.00686e-12</wgt>
  <wgt id="749">8.5324e-12</wgt>
  <wgt id="750">8.84707e-12</wgt>
  <wgt id="751">8.29435e-12</wgt>
  <wgt id="752">7.44407e-12</wgt>
  <wgt id="753">7.4688e-12</wgt>
  <wgt id="754">8.60044e-12</wgt>
  <wgt id="755">8.08999e-12</wgt>
  <wgt id="756">8.03809e-12</wgt>
  <wgt id="757">7.23766e-12</wgt>
  <wgt id="758">8.04023e-12</wgt>
  <wgt id="759">9.01722e-12</wgt>
  <wgt id="760">7.98047e-12</wgt>
  <wgt id="761">8.97766e-12</wgt>
  <wgt id="762">9.01648e-12</wgt>
  <wgt id="763">8.32022e-12</wgt>
  <wgt id="764">8.71211e-12</wgt>
  <wgt id="765">8.34294e-12</wgt>
  <wgt id="766">8.29291e-12</wgt>
  <wgt id="767">8.38436e-12</wgt>
  <wgt id="768">7.54818e-12</wgt>
  <wgt id="769">8.68747e-12</wgt>
  <wgt id="770">7.86478e-12</wgt>
  <wgt id="771">9.96145e-12</wgt>
  <wgt id="772">7.97741e-12</wgt>
  <wgt id="773">8.21195e-12</wgt>
  <wgt id="774">6.6626e-12</wgt>
  <wgt id="775">8.6192e-12</wgt>
  <wgt id="776">9.24292e-12</wgt>
  <wgt id="777">7.44044e-12</wgt>
  <wgt id="778">5.58258e-12</wgt>
  <wgt id="779">3.73332e-12</wgt>
  <wgt id="780">2.4543e-12</wgt>
  <wgt id="781">6.41769e-12</wgt>
  <wgt id="782">6.63662e-12</wgt>
  <wgt id="783">3.5088e-12</wgt>
  <wgt id="784">4.18291e-12</wgt>
  <wgt id="785">8.0289e-12</wgt>
  <wgt id="786">3.48409e-12</wgt>
  <wgt id="787">6.99617e-12</wgt>
  <wgt id="788">1.74869e-12</wgt>
  <wgt id="789">4.17008e-12</wgt>
  <wgt id="790">3.45082e-12</wgt>
  <wgt id="791">6.2132e-12</wgt>
  <wgt id="792">7.54631e-12</wgt>
  <wgt id="793">5.37331e-12</wgt>
  <wgt id="794">3.21356e-12</wgt>
  <wgt id="795">7.41455e-12</wgt>
  <wgt id="796">7.74575e-12</wgt>
  <wgt id="797">7.15913e-12</wgt>
  <wgt id="798">4.44808e-12</wgt>
  <wgt id="799">6.85026e-12</wgt>
  <wgt id="800">4.41474e-12</wgt>
  <wgt id="801">5.26202e-12</wgt>
  <wgt id="802">3.12291e-12</wgt>
  <wgt id="803">8.74431e-12</wgt>
  <wgt id="804">7.42923e-12</wgt>
  <wgt id="805">7.26294e-12</wgt>
  <wgt id="806">6.10361e-12</wgt>
  <wgt id="807">5.41905e-12</wgt>
  <wgt id="808">5.32057e-12</wgt>
  <wgt id="809">5.0839e-12</wgt>
  <wgt id="810">6.36223e-12</wgt>
  <wgt id="811">5.89375e-12</wgt>
  <wgt id="812">3.49573e-12</wgt>
  <wgt id="813">3.72394e-12</wgt>
  <wgt id="814">4.06011e-12</wgt>
  <wgt id="815">3.56143e-12</wgt>
  <wgt id="816">3.72965e-12</wgt>
  <wgt id="817">5.65274e-12</wgt>
  <wgt id="818">6.99624e-12</wgt>
  <wgt id="819">3.698e-12</wgt>
  <wgt id="820">5.33327e-12</wgt>
  <wgt id="821">6.68862e-12</wgt>
  <wgt id="822">4.4893e-12</wgt>
  <wgt id="823">6.99579e-12</wgt>
  <wgt id="824">8.39238e-12</wgt>
  <wgt id="825">3.01348e-12</wgt>
  <wgt id="826">6.76212e-12</wgt>
  <wgt id="827">2.64457e-12</wgt>
  <wgt id="828">7.20353e-12</wgt>
  <wgt id="829">5.76188e-12</wgt>
  <wgt id="830">2.85558e-12</wgt>
  <wgt id="831">6.46925e-12</wgt>
  <wgt id="832">9.87362e-12</wgt>
  <wgt id="833">4.59256e-12</wgt>
  <wgt id="834">9.59609e-12</wgt>
  <wgt id="835">4.07727e-12</wgt>
  <wgt id="836">4.76035e-12</wgt>
  <wgt id="837">6.54144e-12</wgt>
  <wgt id="838">4.63797e-12</wgt>
  <wgt id="839">6.4353e-12</wgt>
  <wgt id="840">4.82747e-12</wgt>
  <wgt id="841">7.71508e-12</wgt>
  <wgt id="842">5.43792e-12</wgt>
  <wgt id="843">5.97725e-12</wgt>
  <wgt id="844">6.13537e-12</wgt>
  <wgt id="845">9.61609e-12</wgt>
  <wgt id="846">5.74778e-12</wgt>
  <wgt id="847">5.93233e-12</wgt>
  <wgt id="848">3.70923e-12</wgt>
  <wgt id="849">6.01258e-12</wgt>
  <wgt id="850">8.33228e-12</wgt>
  <wgt id="851">6.52728e-12</wgt>
  <wgt id="852">3.2679e-12</wgt>
  <wgt id="853">6.77925e-12</wgt>
  <wgt id="854">7.62595e-12</wgt>
  <wgt id="855">6.81898e-12</wgt>
  <wgt id="856">2.8416e-12</wgt>
  <wgt id="857">5.01659e-12</wgt>
  <wgt id="858">5.21109e-12</wgt>
  <wgt id="859">5.35463e-12</wgt>
  <wgt id="860">7.00361e-12</wgt>
  <wgt id="861">4.69503e-12</wgt>
  <wgt id="862">5.69293e-12</wgt>
  <wgt id="863">6.37927e-12</wgt>
  <wgt id="864">5.815e-12</wgt>
  <wgt id="865">8.84609e-12</wgt>
  <wgt id="866">9.82068e-12</wgt>
  <wgt id="867">5.69028e-12</wgt>
  <wgt id="868">5.71894e-12</wgt>
  <wgt id="869">3.42162e-12</wgt>
  <wgt id="870">3.94196e-12</wgt>
  <wgt id="871">3.9069e-12</wgt>
  <wgt id="872">7.77421e-12</wgt>
  <wgt id="873">4.48719e-12</wgt>
  <wgt id="874">6.15461e-12</wgt>
  <wgt id="875">4.43415e-12</wgt>
  <wgt id="876">7.48955e-12</wgt>
  <wgt id="877">6.3829e-12</wgt>
  <wgt id="878">4.47851e-12</wgt>
  <wgt id="879">8.22623e-12</wgt>
  <wgt id="880">8.32526e-12</wgt>
  <wgt id="881">8.90888e-12</wgt>
  <wgt id="882">8.21278e-12</wgt>
  <wgt id="883">8.25566e-12</wgt>
  <wgt id="884">8.11142e-12</wgt>
  <wgt id="885">8.60809e-12</wgt>
  <wgt id="886">7.73226e-12</wgt>
  <wgt id="887">8.62115e-12</wgt>
  <wgt id="888">8.14566e-12</wgt>
  <wgt id="889">8.1968e-12</wgt>
  <wgt id="890">8.49914e-12</wgt>
  <wgt id="891">8.00517e-12</wgt>
  <wgt id="892">8.59645e-12</wgt>
  <wgt id="893">8.4471e-12</wgt>
  <wgt id="894">8.4869e-12</wgt>
  <wgt id="895">8.06201e-12</wgt>
  <wgt id="896">1.05331e-11</wgt>
  <wgt id="897">8.97054e-12</wgt>
  <wgt id="898">7.80278e-12</wgt>
  <wgt id="899">7.92893e-12</wgt>
  <wgt id="900">7.58618e-12</wgt>
  <wgt id="901">6.96647e-12</wgt>
  <wgt id="902">7.05963e-12</wgt>
  <wgt id="903">7.26065e-12</wgt>
  <wgt id="904">8.21669e-12</wgt>
  <wgt id="905">8.00964e-12</wgt>
  <wgt id="906">9.95979e-12</wgt>
  <wgt id="907">9.21316e-12</wgt>
  <wgt id="908">9.14393e-12</wgt>
  <wgt id="909">7.75177e-12</wgt>
  <wgt id="910">7.75607e-12</wgt>
  <wgt id="911">7.93518e-12</wgt>
  <wgt id="912">7.98707e-12</wgt>
  <wgt id="913">7.16782e-12</wgt>
  <wgt id="914">8.53965e-12</wgt>
  <wgt id="915">7.77964e-12</wgt>
  <wgt id="916">8.87001e-12</wgt>
  <wgt id="917">7.55567e-12</wgt>
  <wgt id="918">7.93587e-12</wgt>
  <wgt id="919">7.92529e-12</wgt>
  <wgt id="920">7.33162e-12</wgt>
  <wgt id="921">8.40708e-12</wgt>
  <wgt id="922">7.48127e-12</wgt>
  <wgt id="923">8.25739e-12</wgt>
  <wgt id="924">7.10363e-12</wgt>
  <wgt id="925">6.71333e-12</wgt>
  <wgt id="926">9.1109e-12</wgt>
  <wgt id="927">8.84525e-12</wgt>
  <wgt id="928">8.59239e-12</wgt>
  <wgt id="929">8.19419e-12</wgt>
  <wgt id="930">8.20287e-12</wgt>
  <wgt id="931">7.99411e-12</wgt>
  <wgt id="932">7.74984e-12</wgt>
  <wgt id="933">9.02076e-12</wgt>
  <wgt id="934">8.0729e-12</wgt>
  <wgt id="935">9.4371e-12</wgt>
  <wgt id="936">7.75988e-12</wgt>
  <wgt id="937">8.47008e-12</wgt>
  <wgt id="938">8.29733e-12</wgt>
  <wgt id="939">7.72523e-12</wgt>
  <wgt id="940">7.90951e-12</wgt>
  <wgt id="941">7.84636e-12</wgt>
  <wgt id="942">8.76238e-12</wgt>
  <wgt id="943">9.54425e-12</wgt>
  <wgt id="944">8.22907e-12</wgt>
  <wgt id="945">8.01447e-12</wgt>
  <wgt id="946">7.57676e-12</wgt>
  <wgt id="947">8.06508e-12</wgt>
  <wgt id="948">8.85813e-12</wgt>
  <wgt id="949">9.09309e-12</wgt>
  <wgt id="950">6.96336e-12</wgt>
  <wgt id="951">8.00686e-12</wgt>
  <wgt id="952">8.5324e-12</wgt>
  <wgt id="953">8.84707e-12</wgt>
  <wgt id="954">8.29435e-12</wgt>
  <wgt id="955">7.44407e-12</wgt>
  <wgt id="956">7.4688e-12</wgt>
  <wgt id="957">8.60044e-12</wgt>
  <wgt id="958">8.08999e-12</wgt>
  <wgt id="959">8.03809e-12</wgt>
  <wgt id="960">7.23766e-12</wgt>
  <wgt id="961">8.04023e-12</wgt>
  <wgt id="962">9.01722e-12</wgt>
  <wgt id="963">7.98047e-12</wgt>
  <wgt id="964">8.97766e-12</wgt>
  <wgt id="965">9.01648e-12</wgt>
  <wgt id="966">8.32022e-12</wgt>
  <wgt id="967">8.71211e-12</wgt>
  <wgt id="968">8.34294e-12</wgt>
  <wgt id="969">8.29291e-12</wgt>
  <wgt id="970">8.38436e-12</wgt>
  <wgt id="971">7.54818e-12</wgt>
  <wgt id="972">8.68747e-12</wgt>
  <wgt id="973">7.86478e-12</wgt>
  <wgt id="974">9.96145e-12</wgt>
  <wgt id="975">7.97741e-12</wgt>
  <wgt id="976">8.21195e-12</wgt>
  <wgt id="977">6.6626e-12</wgt>
  <wgt id="978">8.6192e-12</wgt>
  <wgt id="979">9.24292e-12</wgt>
  <wgt id="980">8.17611e-12</wgt>
  <wgt id="981">8.36557e-12</wgt>
  <wgt id="982">7.96535e-12</wgt>
</rwgt>
</event>
<event>
 5   1  0.5790000E-11  0.2147862E+04  0.7818608E-02  0.7768798E-01
       21   -1    0    0  502  501  0.00000000000E+00  0.00000000000E+00  0.18037410900E+04  0.18037410900E+04  0.00000000000E+00 0.  1.
       21   -1    0    0  501  502 -0.00000000000E+00 -0.00000000000E+00 -0.63940864065E+03  0.63940864065E+03  0.00000000000E+00 0. -1.
       39    2    1    2    0    0  0.00000000000E+00  0.00000000000E+00  0.11643324493E+04  0.24431497306E+04  0.21478618563E+04 0.  0.
       25    1    3    3    0    0 -0.71433429834E+03  0.69218328933E+03  0.10202236720E+04  0.14303400074E+04  0.12500000000E+03 0.  0.
       25    1    3    3    0    0  0.71433429834E+03 -0.69218328933E+03  0.14410877734E+03  0.10128097233E+04  0.12500000000E+03 0.  0.
<mgrwt>
<rscale>  0 0.21478619E+04</rscale>
<asrwt>0</asrwt>
<pdfrwt beam="1">  1       21 0.27749863E+00 0.21478619E+04</pdfrwt>
<pdfrwt beam="2">  1       21 0.98370561E-01 0.21478619E+04</pdfrwt>
<totfact> 0.14953474E+01</totfact>
</mgrwt>
<rwgt>
  <wgt id="1">5.79e-12</wgt>
  <wgt id="2">5.0374e-12</wgt>
  <wgt id="3">6.72448e-12</wgt>
  <wgt id="4">5.79e-12</wgt>
  <wgt id="5">5.0374e-12</wgt>
  <wgt id="6">6.72448e-12</wgt>
  <wgt id="7">5.79e-12</wgt>
  <wgt id="8">5.0374e-12</wgt>
  <wgt id="9">6.72448e-12</wgt>
  <wgt id="10">6.0192e-12</wgt>
  <wgt id="11">6.01596e-12</wgt>
  <wgt id="12">6.00934e-12</wgt>
  <wgt id="13">6.00369e-12</wgt>
  <wgt id="14">6.04101e-12</wgt>
  <wgt id="15">6.02951e-12</wgt>
  <wgt id="16">6.01008e-12</wgt>
  <wgt id="17">6.04235e-12</wgt>
  <wgt id="18">6.00984e-12</wgt>
  <wgt id="19">6.03599e-12</wgt>
  <wgt id="20">6.01072e-12</wgt>
  <wgt id="21">5.97311e-12</wgt>
  <wgt id="22">5.98129e-12</wgt>
  <wgt id="23">5.94241e-12</wgt>
  <wgt id="24">5.98008e-12</wgt>
  <wgt id="25">5.99838e-12</wgt>
  <wgt id="26">6.03732e-12</wgt>
  <wgt id="27">6.01182e-12</wgt>
  <wgt id="28">5.98405e-12</wgt>
  <wgt id="29">6.02245e-12</wgt>
  <wgt id="30">5.98008e-12</wgt>
  <wgt id="31">6.04553e-12</wgt>
  <wgt id="32">5.9895e-12</wgt>
  <wgt id="33">6.02925e-12</wgt>
  <wgt id="34">5.98597e-12</wgt>
  <wgt id="35">5.99558e-12</wgt>
  <wgt id="36">6.04459e-12</wgt>
  <wgt id="37">6.00168e-12</wgt>
  <wgt id="38">5.99761e-12</wgt>
  <wgt id="39">6.10756e-12</wgt>
  <wgt id="40">6.02236e-12</wgt>
  <wgt id="41">6.01618e-12</wgt>
  <wgt id="42">6.02656e-12</wgt>
  <wgt id="43">6.01819e-12</wgt>
  <wgt id="44">6.03506e-12</wgt>
  <wgt id="45">6.02904e-12</wgt>
  <wgt id="46">6.00896e-12</wgt>
  <wgt id="47">6.04527e-12</wgt>
  <wgt id="48">6.0303e-12</wgt>
  <wgt id="49">5.98981e-12</wgt>
  <wgt id="50">5.99556e-12</wgt>
  <wgt id="51">6.00359e-12</wgt>
  <wgt id="52">6.03694e-12</wgt>
  <wgt id="53">6.02148e-12</wgt>
  <wgt id="54">6.03113e-12</wgt>
  <wgt id="55">6.01874e-12</wgt>
  <wgt id="56">6.02942e-12</wgt>
  <wgt id="57">6.01501e-12</wgt>
  <wgt id="58">6.00517e-12</wgt>
  <wgt id="59">6.01431e-12</wgt>
  <wgt id="60">6.00774e-12</wgt>
  <wgt id="61">5.98154e-12</wgt>
  <wgt id="62">5.99713e-12</wgt>
  <wgt id="63">6.0102e-12</wgt>
  <wgt id="64">6.01828e-12</wgt>
  <wgt id="65">6.01791e-12</wgt>
  <wgt id="66">6.01527e-12</wgt>
  <wgt id="67">5.99189e-12</wgt>
  <wgt id="68">6.01847e-12</wgt>
  <wgt id="69">6.01666e-12</wgt>
  <wgt id="70">6.01693e-12</wgt>
  <wgt id="71">6.01432e-12</wgt>
  <wgt id="72">5.99377e-12</wgt>
  <wgt id="73">6.03534e-12</wgt>
  <wgt id="74">6.02745e-12</wgt>
  <wgt id="75">6.01751e-12</wgt>
  <wgt id="76">6.04326e-12</wgt>
  <wgt id="77">6.01357e-12</wgt>
  <wgt id="78">6.0149e-12</wgt>
  <wgt id="79">6.0354e-12</wgt>
  <wgt id="80">5.98595e-12</wgt>
  <wgt id="81">6.01834e-12</wgt>
  <wgt id="82">6.02152e-12</wgt>
  <wgt id="83">5.99282e-12</wgt>
  <wgt id="84">6.00957e-12</wgt>
  <wgt id="85">6.00239e-12</wgt>
  <wgt id="86">6.03736e-12</wgt>
  <wgt id="87">5.97964e-12</wgt>
  <wgt id="88">6.02819e-12</wgt>
  <wgt id="89">6.0244e-12</wgt>
  <wgt id="90">6.03642e-12</wgt>
  <wgt id="91">6.02579e-12</wgt>
  <wgt id="92">6.03181e-12</wgt>
  <wgt id="93">6.0263e-12</wgt>
  <wgt id="94">6.01063e-12</wgt>
  <wgt id="95">6.03622e-12</wgt>
  <wgt id="96">6.02803e-12</wgt>
  <wgt id="97">6.00279e-12</wgt>
  <wgt id="98">6.02028e-12</wgt>
  <wgt id="99">6.00605e-12</wgt>
  <wgt id="100">6.03199e-12</wgt>
  <wgt id="101">6.01962e-12</wgt>
  <wgt id="102">6.01498e-12</wgt>
  <wgt id="103">6.03327e-12</wgt>
  <wgt id="104">6.01178e-12</wgt>
  <wgt id="105">6.02844e-12</wgt>
  <wgt id="106">6.00774e-12</wgt>
  <wgt id="107">6.04425e-12</wgt>
  <wgt id="108">6.00993e-12</wgt>
  <wgt id="109">6.02566e-12</wgt>
  <wgt id="110">6.01687e-12</wgt>
  <wgt id="111">6.04976e-12</wgt>
  <wgt id="112">6.06173e-12</wgt>
  <wgt id="113">8.27014e-12</wgt>
  <wgt id="114">8.12443e-12</wgt>
  <wgt id="115">7.98286e-12</wgt>
  <wgt id="116">1.08054e-11</wgt>
  <wgt id="117">6.60149e-12</wgt>
  <wgt id="118">6.62352e-12</wgt>
  <wgt id="119">6.58893e-12</wgt>
  <wgt id="120">6.60198e-12</wgt>
  <wgt id="121">6.60116e-12</wgt>
  <wgt id="122">6.59025e-12</wgt>
  <wgt id="123">6.61692e-12</wgt>
  <wgt id="124">6.59217e-12</wgt>
  <wgt id="125">6.60739e-12</wgt>
  <wgt id="126">6.61104e-12</wgt>
  <wgt id="127">6.59513e-12</wgt>
  <wgt id="128">6.62176e-12</wgt>
  <wgt id="129">6.58129e-12</wgt>
  <wgt id="130">6.63579e-12</wgt>
  <wgt id="131">6.56601e-12</wgt>
  <wgt id="132">6.42874e-12</wgt>
  <wgt id="133">6.80576e-12</wgt>
  <wgt id="134">6.53296e-12</wgt>
  <wgt id="135">6.6551e-12</wgt>
  <wgt id="136">6.69083e-12</wgt>
  <wgt id="137">6.49375e-12</wgt>
  <wgt id="138">6.86916e-12</wgt>
  <wgt id="139">6.34451e-12</wgt>
  <wgt id="140">6.56341e-12</wgt>
  <wgt id="141">6.63077e-12</wgt>
  <wgt id="142">6.60094e-12</wgt>
  <wgt id="143">6.61621e-12</wgt>
  <wgt id="144">6.38629e-12</wgt>
  <wgt id="145">6.80482e-12</wgt>
  <wgt id="146">6.66906e-12</wgt>
  <wgt id="147">6.547e-12</wgt>
  <wgt id="148">6.62303e-12</wgt>
  <wgt id="149">6.59993e-12</wgt>
  <wgt id="150">6.65641e-12</wgt>
  <wgt id="151">6.57574e-12</wgt>
  <wgt id="152">6.60358e-12</wgt>
  <wgt id="153">6.60069e-12</wgt>
  <wgt id="154">6.63727e-12</wgt>
  <wgt id="155">6.55235e-12</wgt>
  <wgt id="156">6.76454e-12</wgt>
  <wgt id="157">6.44045e-12</wgt>
  <wgt id="158">7.93389e-12</wgt>
  <wgt id="159">7.96722e-12</wgt>
  <wgt id="160">7.90689e-12</wgt>
  <wgt id="161">7.91524e-12</wgt>
  <wgt id="162">7.95474e-12</wgt>
  <wgt id="163">7.9257e-12</wgt>
  <wgt id="164">7.94604e-12</wgt>
  <wgt id="165">7.93706e-12</wgt>
  <wgt id="166">7.93157e-12</wgt>
  <wgt id="167">7.92811e-12</wgt>
  <wgt id="168">7.94194e-12</wgt>
  <wgt id="169">7.90016e-12</wgt>
  <wgt id="170">7.95485e-12</wgt>
  <wgt id="171">7.9274e-12</wgt>
  <wgt id="172">7.94306e-12</wgt>
  <wgt id="173">7.92652e-12</wgt>
  <wgt id="174">7.93639e-12</wgt>
  <wgt id="175">7.71584e-12</wgt>
  <wgt id="176">8.21835e-12</wgt>
  <wgt id="177">7.97134e-12</wgt>
  <wgt id="178">7.89948e-12</wgt>
  <wgt id="179">8.28697e-12</wgt>
  <wgt id="180">7.38179e-12</wgt>
  <wgt id="181">7.69546e-12</wgt>
  <wgt id="182">8.09193e-12</wgt>
  <wgt id="183">7.78875e-12</wgt>
  <wgt id="184">8.00586e-12</wgt>
  <wgt id="185">7.85896e-12</wgt>
  <wgt id="186">8.02324e-12</wgt>
  <wgt id="187">7.85449e-12</wgt>
  <wgt id="188">8.07455e-12</wgt>
  <wgt id="189">7.87946e-12</wgt>
  <wgt id="190">7.95604e-12</wgt>
  <wgt id="191">7.95837e-12</wgt>
  <wgt id="192">7.91949e-12</wgt>
  <wgt id="193">8.05117e-12</wgt>
  <wgt id="194">7.87517e-12</wgt>
  <wgt id="195">7.71509e-12</wgt>
  <wgt id="196">8.31013e-12</wgt>
  <wgt id="197">7.97337e-12</wgt>
  <wgt id="198">7.92428e-12</wgt>
  <wgt id="199">7.93389e-12</wgt>
  <wgt id="200">8.00444e-12</wgt>
  <wgt id="201">7.97962e-12</wgt>
  <wgt id="202">7.95558e-12</wgt>
  <wgt id="203">7.92038e-12</wgt>
  <wgt id="204">7.90315e-12</wgt>
  <wgt id="205">7.88873e-12</wgt>
  <wgt id="206">7.75436e-12</wgt>
  <wgt id="207">7.79976e-12</wgt>
  <wgt id="208">7.70933e-12</wgt>
  <wgt id="209">7.77517e-12</wgt>
  <wgt id="210">7.73923e-12</wgt>
  <wgt id="211">7.75212e-12</wgt>
  <wgt id="212">7.75608e-12</wgt>
  <wgt id="213">7.75369e-12</wgt>
  <wgt id="214">7.75536e-12</wgt>
  <wgt id="215">7.75944e-12</wgt>
  <wgt id="216">7.75085e-12</wgt>
  <wgt id="217">7.77304e-12</wgt>
  <wgt id="218">7.7399e-12</wgt>
  <wgt id="219">7.74332e-12</wgt>
  <wgt id="220">7.76106e-12</wgt>
  <wgt id="221">7.75459e-12</wgt>
  <wgt id="222">7.7527e-12</wgt>
  <wgt id="223">7.34466e-12</wgt>
  <wgt id="224">8.12827e-12</wgt>
  <wgt id="225">7.66387e-12</wgt>
  <wgt id="226">7.86875e-12</wgt>
  <wgt id="227">7.68321e-12</wgt>
  <wgt id="228">7.78554e-12</wgt>
  <wgt id="229">7.64903e-12</wgt>
  <wgt id="230">7.80656e-12</wgt>
  <wgt id="231">7.98877e-12</wgt>
  <wgt id="232">7.5618e-12</wgt>
  <wgt id="233">7.71143e-12</wgt>
  <wgt id="234">7.82408e-12</wgt>
  <wgt id="235">7.53099e-12</wgt>
  <wgt id="236">7.94632e-12</wgt>
  <wgt id="237">7.6163e-12</wgt>
  <wgt id="238">7.80069e-12</wgt>
  <wgt id="239">7.69674e-12</wgt>
  <wgt id="240">7.85812e-12</wgt>
  <wgt id="241">7.67132e-12</wgt>
  <wgt id="242">7.85301e-12</wgt>
  <wgt id="243">7.85561e-12</wgt>
  <wgt id="244">7.77688e-12</wgt>
  <wgt id="245">7.74977e-12</wgt>
  <wgt id="246">7.80371e-12</wgt>
  <wgt id="247">7.75436e-12</wgt>
  <wgt id="248">7.8279e-12</wgt>
  <wgt id="249">7.80154e-12</wgt>
  <wgt id="250">7.77536e-12</wgt>
  <wgt id="251">7.73819e-12</wgt>
  <wgt id="252">7.72e-12</wgt>
  <wgt id="253">7.70709e-12</wgt>
  <wgt id="254">7.52805e-12</wgt>
  <wgt id="255">7.53473e-12</wgt>
  <wgt id="256">7.52065e-12</wgt>
  <wgt id="257">7.53403e-12</wgt>
  <wgt id="258">7.5236e-12</wgt>
  <wgt id="259">7.57796e-12</wgt>
  <wgt id="260">7.47973e-12</wgt>
  <wgt id="261">7.53721e-12</wgt>
  <wgt id="262">7.51721e-12</wgt>
  <wgt id="263">7.52399e-12</wgt>
  <wgt id="264">7.53266e-12</wgt>
  <wgt id="265">7.51982e-12</wgt>
  <wgt id="266">7.54429e-12</wgt>
  <wgt id="267">7.5304e-12</wgt>
  <wgt id="268">7.52463e-12</wgt>
  <wgt id="269">7.54983e-12</wgt>
  <wgt id="270">7.51318e-12</wgt>
  <wgt id="271">7.51109e-12</wgt>
  <wgt id="272">7.5469e-12</wgt>
  <wgt id="273">7.50767e-12</wgt>
  <wgt id="274">7.54343e-12</wgt>
  <wgt id="275">7.49101e-12</wgt>
  <wgt id="276">7.56632e-12</wgt>
  <wgt id="277">7.4853e-12</wgt>
  <wgt id="278">7.56731e-12</wgt>
  <wgt id="279">7.39392e-12</wgt>
  <wgt id="280">7.69636e-12</wgt>
  <wgt id="281">7.49625e-12</wgt>
  <wgt id="282">7.53263e-12</wgt>
  <wgt id="283">7.30755e-12</wgt>
  <wgt id="284">7.80091e-12</wgt>
  <wgt id="285">7.16055e-12</wgt>
  <wgt id="286">7.83449e-12</wgt>
  <wgt id="287">7.55259e-12</wgt>
  <wgt id="288">7.49651e-12</wgt>
  <wgt id="289">7.58272e-12</wgt>
  <wgt id="290">7.40405e-12</wgt>
  <wgt id="291">7.50414e-12</wgt>
  <wgt id="292">7.53102e-12</wgt>
  <wgt id="293">7.46837e-12</wgt>
  <wgt id="294">7.5872e-12</wgt>
  <wgt id="295">7.38189e-12</wgt>
  <wgt id="296">7.70641e-12</wgt>
  <wgt id="297">7.52124e-12</wgt>
  <wgt id="298">7.55807e-12</wgt>
  <wgt id="299">7.50433e-12</wgt>
  <wgt id="300">7.59078e-12</wgt>
  <wgt id="301">7.41392e-12</wgt>
  <wgt id="302">7.8073e-12</wgt>
  <wgt id="303">7.46408e-12</wgt>
  <wgt id="304">7.56435e-12</wgt>
  <wgt id="305">7.51184e-12</wgt>
  <wgt id="306">7.51889e-12</wgt>
  <wgt id="307">7.50417e-12</wgt>
  <wgt id="308">7.51846e-12</wgt>
  <wgt id="309">7.5074e-12</wgt>
  <wgt id="310">7.56334e-12</wgt>
  <wgt id="311">7.4642e-12</wgt>
  <wgt id="312">7.51911e-12</wgt>
  <wgt id="313">7.50409e-12</wgt>
  <wgt id="314">7.50764e-12</wgt>
  <wgt id="315">7.51573e-12</wgt>
  <wgt id="316">7.50385e-12</wgt>
  <wgt id="317">7.5292e-12</wgt>
  <wgt id="318">7.51697e-12</wgt>
  <wgt id="319">7.50273e-12</wgt>
  <wgt id="320">7.53496e-12</wgt>
  <wgt id="321">7.49891e-12</wgt>
  <wgt id="322">7.49201e-12</wgt>
  <wgt id="323">7.53483e-12</wgt>
  <wgt id="324">7.4961e-12</wgt>
  <wgt id="325">7.5254e-12</wgt>
  <wgt id="326">7.48155e-12</wgt>
  <wgt id="327">7.55058e-12</wgt>
  <wgt id="328">7.4725e-12</wgt>
  <wgt id="329">7.53409e-12</wgt>
  <wgt id="330">7.71953e-12</wgt>
  <wgt id="331">7.31376e-12</wgt>
  <wgt id="332">7.48549e-12</wgt>
  <wgt id="333">7.51437e-12</wgt>
  <wgt id="334">7.34126e-12</wgt>
  <wgt id="335">7.72436e-12</wgt>
  <wgt id="336">7.24793e-12</wgt>
  <wgt id="337">7.83513e-12</wgt>
  <wgt id="338">7.59732e-12</wgt>
  <wgt id="339">7.43263e-12</wgt>
  <wgt id="340">7.56244e-12</wgt>
  <wgt id="341">7.38447e-12</wgt>
  <wgt id="342">7.49495e-12</wgt>
  <wgt id="343">7.50203e-12</wgt>
  <wgt id="344">7.45854e-12</wgt>
  <wgt id="345">7.5737e-12</wgt>
  <wgt id="346">7.36133e-12</wgt>
  <wgt id="347">7.6846e-12</wgt>
  <wgt id="348">7.50785e-12</wgt>
  <wgt id="349">7.53718e-12</wgt>
  <wgt id="350">7.48208e-12</wgt>
  <wgt id="351">7.58704e-12</wgt>
  <wgt id="352">7.3926e-12</wgt>
  <wgt id="353">7.79321e-12</wgt>
  <wgt id="354">7.41849e-12</wgt>
  <wgt id="355">7.56824e-12</wgt>
  <wgt id="356">7.52805e-12</wgt>
  <wgt id="357">7.53143e-12</wgt>
  <wgt id="358">7.51184e-12</wgt>
  <wgt id="359">7.5424e-12</wgt>
  <wgt id="360">7.61119e-12</wgt>
  <wgt id="361">7.55782e-12</wgt>
  <wgt id="362">7.69187e-12</wgt>
  <wgt id="363">7.67403e-12</wgt>
  <wgt id="364">7.64376e-12</wgt>
  <wgt id="365">7.61768e-12</wgt>
  <wgt id="366">7.58976e-12</wgt>
  <wgt id="367">7.53433e-12</wgt>
  <wgt id="368">7.50132e-12</wgt>
  <wgt id="369">7.46571e-12</wgt>
  <wgt id="370">7.55782e-12</wgt>
  <wgt id="371">7.58969e-12</wgt>
  <wgt id="372">7.57195e-12</wgt>
  <wgt id="373">7.54629e-12</wgt>
  <wgt id="374">7.54941e-12</wgt>
  <wgt id="375">8.30319e-12</wgt>
  <wgt id="376">8.30376e-12</wgt>
  <wgt id="377">8.3025e-12</wgt>
  <wgt id="378">8.3337e-12</wgt>
  <wgt id="379">8.27281e-12</wgt>
  <wgt id="380">8.32661e-12</wgt>
  <wgt id="381">8.29378e-12</wgt>
  <wgt id="382">8.34125e-12</wgt>
  <wgt id="383">8.26548e-12</wgt>
  <wgt id="384">8.30846e-12</wgt>
  <wgt id="385">8.29816e-12</wgt>
  <wgt id="386">8.33096e-12</wgt>
  <wgt id="387">8.29119e-12</wgt>
  <wgt id="388">8.29616e-12</wgt>
  <wgt id="389">8.31183e-12</wgt>
  <wgt id="390">8.32259e-12</wgt>
  <wgt id="391">8.2824e-12</wgt>
  <wgt id="392">8.23897e-12</wgt>
  <wgt id="393">8.33949e-12</wgt>
  <wgt id="394">8.31137e-12</wgt>
  <wgt id="395">8.29165e-12</wgt>
  <wgt id="396">8.3121e-12</wgt>
  <wgt id="397">8.29669e-12</wgt>
  <wgt id="398">8.28332e-12</wgt>
  <wgt id="399">8.32225e-12</wgt>
  <wgt id="400">8.29179e-12</wgt>
  <wgt id="401">8.32811e-12</wgt>
  <wgt id="402">8.23573e-12</wgt>
  <wgt id="403">8.33867e-12</wgt>
  <wgt id="404">8.50859e-12</wgt>
  <wgt id="405">7.81062e-12</wgt>
  <wgt id="406">8.15411e-12</wgt>
  <wgt id="407">8.63012e-12</wgt>
  <wgt id="408">8.3802e-12</wgt>
  <wgt id="409">8.15881e-12</wgt>
  <wgt id="410">8.06054e-12</wgt>
  <wgt id="411">8.41769e-12</wgt>
  <wgt id="412">8.28648e-12</wgt>
  <wgt id="413">8.32717e-12</wgt>
  <wgt id="414">8.20601e-12</wgt>
  <wgt id="415">8.37861e-12</wgt>
  <wgt id="416">8.54038e-12</wgt>
  <wgt id="417">7.97541e-12</wgt>
  <wgt id="418">8.31699e-12</wgt>
  <wgt id="419">8.22893e-12</wgt>
  <wgt id="420">8.44814e-12</wgt>
  <wgt id="421">8.21228e-12</wgt>
  <wgt id="422">8.27719e-12</wgt>
  <wgt id="423">8.31627e-12</wgt>
  <wgt id="424">8.49348e-12</wgt>
  <wgt id="425">8.17743e-12</wgt>
  <wgt id="426">8.30319e-12</wgt>
  <wgt id="427">8.19245e-12</wgt>
  <wgt id="428">8.57873e-12</wgt>
  <wgt id="429">8.39063e-12</wgt>
  <wgt id="430">8.63346e-12</wgt>
  <wgt id="431">8.58496e-12</wgt>
  <wgt id="432">8.5397e-12</wgt>
  <wgt id="433">8.49536e-12</wgt>
  <wgt id="434">8.44018e-12</wgt>
  <wgt id="435">8.32844e-12</wgt>
  <wgt id="436">8.27115e-12</wgt>
  <wgt id="437">8.21625e-12</wgt>
  <wgt id="438">8.39063e-12</wgt>
  <wgt id="439">8.41686e-12</wgt>
  <wgt id="440">8.40092e-12</wgt>
  <wgt id="441">8.38288e-12</wgt>
  <wgt id="442">8.37667e-12</wgt>
  <wgt id="443">7.88127e-12</wgt>
  <wgt id="444">7.9445e-12</wgt>
  <wgt id="445">7.91804e-12</wgt>
  <wgt id="446">7.82437e-12</wgt>
  <wgt id="447">7.8782e-12</wgt>
  <wgt id="448">7.68977e-12</wgt>
  <wgt id="449">8.01783e-12</wgt>
  <wgt id="450">7.93229e-12</wgt>
  <wgt id="451">7.86315e-12</wgt>
  <wgt id="452">8.04826e-12</wgt>
  <wgt id="453">7.95765e-12</wgt>
  <wgt id="454">7.52759e-12</wgt>
  <wgt id="455">7.92227e-12</wgt>
  <wgt id="456">7.93906e-12</wgt>
  <wgt id="457">7.90575e-12</wgt>
  <wgt id="458">8.00215e-12</wgt>
  <wgt id="459">7.94721e-12</wgt>
  <wgt id="460">7.99029e-12</wgt>
  <wgt id="461">7.71791e-12</wgt>
  <wgt id="462">7.83062e-12</wgt>
  <wgt id="463">7.77341e-12</wgt>
  <wgt id="464">7.84472e-12</wgt>
  <wgt id="465">7.96159e-12</wgt>
  <wgt id="466">7.74841e-12</wgt>
  <wgt id="467">7.81576e-12</wgt>
  <wgt id="468">7.86751e-12</wgt>
  <wgt id="469">7.86691e-12</wgt>
  <wgt id="470">7.78444e-12</wgt>
  <wgt id="471">7.80192e-12</wgt>
  <wgt id="472">7.92237e-12</wgt>
  <wgt id="473">7.65057e-12</wgt>
  <wgt id="474">5.79e-12</wgt>
  <wgt id="475">5.86132e-12</wgt>
  <wgt id="476">5.71062e-12</wgt>
  <wgt id="477">5.71627e-12</wgt>
  <wgt id="478">5.84427e-12</wgt>
  <wgt id="479">5.61517e-12</wgt>
  <wgt id="480">6.05566e-12</wgt>
  <wgt id="481">5.79787e-12</wgt>
  <wgt id="482">5.7439e-12</wgt>
  <wgt id="483">5.68874e-12</wgt>
  <wgt id="484">5.98755e-12</wgt>
  <wgt id="485">5.52043e-12</wgt>
  <wgt id="486">6.07707e-12</wgt>
  <wgt id="487">5.74055e-12</wgt>
  <wgt id="488">5.89594e-12</wgt>
  <wgt id="489">5.40668e-12</wgt>
  <wgt id="490">5.59188e-12</wgt>
  <wgt id="491">5.75916e-12</wgt>
  <wgt id="492">5.70404e-12</wgt>
  <wgt id="493">5.48421e-12</wgt>
  <wgt id="494">5.53279e-12</wgt>
  <wgt id="495">5.79644e-12</wgt>
  <wgt id="496">5.57451e-12</wgt>
  <wgt id="497">5.50005e-12</wgt>
  <wgt id="498">5.9588e-12</wgt>
  <wgt id="499">5.76779e-12</wgt>
  <wgt id="500">5.65926e-12</wgt>
  <wgt id="501">5.98869e-12</wgt>
  <wgt id="502">5.85018e-12</wgt>
  <wgt id="503">5.7688e-12</wgt>
  <wgt id="504">5.94334e-12</wgt>
  <wgt id="505">5.8247e-12</wgt>
  <wgt id="506">5.63802e-12</wgt>
  <wgt id="507">5.78973e-12</wgt>
  <wgt id="508">6.03769e-12</wgt>
  <wgt id="509">5.42462e-12</wgt>
  <wgt id="510">5.87969e-12</wgt>
  <wgt id="511">5.5578e-12</wgt>
  <wgt id="512">6.03688e-12</wgt>
  <wgt id="513">5.98382e-12</wgt>
  <wgt id="514">5.94787e-12</wgt>
  <wgt id="515">5.82491e-12</wgt>
  <wgt id="516">6.20996e-12</wgt>
  <wgt id="517">5.92341e-12</wgt>
  <wgt id="518">5.9612e-12</wgt>
  <wgt id="519">5.60118e-12</wgt>
  <wgt id="520">5.92021e-12</wgt>
  <wgt id="521">5.82718e-12</wgt>
  <wgt id="522">6.03857e-12</wgt>
  <wgt id="523">5.62623e-12</wgt>
  <wgt id="524">5.7563e-12</wgt>
  <wgt id="525">5.86038e-12</wgt>
  <wgt id="526">5.93983e-12</wgt>
  <wgt id="527">5.7743e-12</wgt>
  <wgt id="528">5.81649e-12</wgt>
  <wgt id="529">5.6701e-12</wgt>
  <wgt id="530">5.99525e-12</wgt>
  <wgt id="531">5.64031e-12</wgt>
  <wgt id="532">6.18955e-12</wgt>
  <wgt id="533">5.6346e-12</wgt>
  <wgt id="534">5.69967e-12</wgt>
  <wgt id="535">5.78404e-12</wgt>
  <wgt id="536">5.84038e-12</wgt>
  <wgt id="537">5.67378e-12</wgt>
  <wgt id="538">5.80587e-12</wgt>
  <wgt id="539">5.68509e-12</wgt>
  <wgt id="540">5.93249e-12</wgt>
  <wgt id="541">5.69524e-12</wgt>
  <wgt id="542">5.72935e-12</wgt>
  <wgt id="543">5.71862e-12</wgt>
  <wgt id="544">5.95091e-12</wgt>
  <wgt id="545">5.59774e-12</wgt>
  <wgt id="546">5.48016e-12</wgt>
  <wgt id="547">5.65145e-12</wgt>
  <wgt id="548">5.56183e-12</wgt>
  <wgt id="549">5.69753e-12</wgt>
  <wgt id="550">5.67284e-12</wgt>
  <wgt id="551">5.85949e-12</wgt>
  <wgt id="552">5.46292e-12</wgt>
  <wgt id="553">5.62207e-12</wgt>
  <wgt id="554">6.14135e-12</wgt>
  <wgt id="555">5.93995e-12</wgt>
  <wgt id="556">5.59188e-12</wgt>
  <wgt id="557">5.94818e-12</wgt>
  <wgt id="558">5.69499e-12</wgt>
  <wgt id="559">5.696e-12</wgt>
  <wgt id="560">6.37035e-12</wgt>
  <wgt id="561">5.80372e-12</wgt>
  <wgt id="562">5.99635e-12</wgt>
  <wgt id="563">6.08617e-12</wgt>
  <wgt id="564">6.0359e-12</wgt>
  <wgt id="565">5.77324e-12</wgt>
  <wgt id="566">5.79304e-12</wgt>
  <wgt id="567">5.76353e-12</wgt>
  <wgt id="568">5.70493e-12</wgt>
  <wgt id="569">5.88677e-12</wgt>
  <wgt id="570">5.56107e-12</wgt>
  <wgt id="571">6.37645e-12</wgt>
  <wgt id="572">5.68128e-12</wgt>
  <wgt id="573">5.62001e-12</wgt>
  <wgt id="574">5.6387e-12</wgt>
  <wgt id="575">6.36746e-12</wgt>
  <wgt id="576">6.65868e-12</wgt>
  <wgt id="577">6.61301e-12</wgt>
  <wgt id="578">6.5611e-12</wgt>
  <wgt id="579">6.59065e-12</wgt>
  <wgt id="580">6.69094e-12</wgt>
  <wgt id="581">6.94186e-12</wgt>
  <wgt id="582">6.62396e-12</wgt>
  <wgt id="583">6.43807e-12</wgt>
  <wgt id="584">6.31538e-12</wgt>
  <wgt id="585">6.09106e-12</wgt>
  <wgt id="586">6.09317e-12</wgt>
  <wgt id="587">6.48458e-12</wgt>
  <wgt id="588">6.59538e-12</wgt>
  <wgt id="589">6.72252e-12</wgt>
  <wgt id="590">6.32803e-12</wgt>
  <wgt id="591">6.57548e-12</wgt>
  <wgt id="592">5.90254e-12</wgt>
  <wgt id="593">6.25128e-12</wgt>
  <wgt id="594">6.40518e-12</wgt>
  <wgt id="595">6.51251e-12</wgt>
  <wgt id="596">7.0003e-12</wgt>
  <wgt id="597">6.36276e-12</wgt>
  <wgt id="598">6.2022e-12</wgt>
  <wgt id="599">6.68764e-12</wgt>
  <wgt id="600">6.52849e-12</wgt>
  <wgt id="601">6.15551e-12</wgt>
  <wgt id="602">6.17702e-12</wgt>
  <wgt id="603">6.09943e-12</wgt>
  <wgt id="604">6.48814e-12</wgt>
  <wgt id="605">6.53134e-12</wgt>
  <wgt id="606">6.44955e-12</wgt>
  <wgt id="607">6.4858e-12</wgt>
  <wgt id="608">6.55623e-12</wgt>
  <wgt id="609">6.21541e-12</wgt>
  <wgt id="610">6.1323e-12</wgt>
  <wgt id="611">6.21063e-12</wgt>
  <wgt id="612">6.66819e-12</wgt>
  <wgt id="613">6.2174e-12</wgt>
  <wgt id="614">6.34132e-12</wgt>
  <wgt id="615">6.37164e-12</wgt>
  <wgt id="616">6.40746e-12</wgt>
  <wgt id="617">6.55995e-12</wgt>
  <wgt id="618">6.92514e-12</wgt>
  <wgt id="619">6.26906e-12</wgt>
  <wgt id="620">6.59769e-12</wgt>
  <wgt id="621">6.32782e-12</wgt>
  <wgt id="622">6.48458e-12</wgt>
  <wgt id="623">6.4802e-12</wgt>
  <wgt id="624">6.40508e-12</wgt>
  <wgt id="625">6.17306e-12</wgt>
  <wgt id="626">5.94529e-12</wgt>
  <wgt id="627">5.95347e-12</wgt>
  <wgt id="628">6.39488e-12</wgt>
  <wgt id="629">6.34984e-12</wgt>
  <wgt id="630">6.12317e-12</wgt>
  <wgt id="631">6.45598e-12</wgt>
  <wgt id="632">5.94976e-12</wgt>
  <wgt id="633">6.34599e-12</wgt>
  <wgt id="634">6.17822e-12</wgt>
  <wgt id="635">5.96625e-12</wgt>
  <wgt id="636">6.46588e-12</wgt>
  <wgt id="637">6.33379e-12</wgt>
  <wgt id="638">6.13834e-12</wgt>
  <wgt id="639">6.20674e-12</wgt>
  <wgt id="640">6.31248e-12</wgt>
  <wgt id="641">6.58366e-12</wgt>
  <wgt id="642">5.97507e-12</wgt>
  <wgt id="643">6.27309e-12</wgt>
  <wgt id="644">5.77848e-12</wgt>
  <wgt id="645">6.37792e-12</wgt>
  <wgt id="646">6.09163e-12</wgt>
  <wgt id="647">6.36013e-12</wgt>
  <wgt id="648">6.55515e-12</wgt>
  <wgt id="649">6.39777e-12</wgt>
  <wgt id="650">6.1313e-12</wgt>
  <wgt id="651">6.69738e-12</wgt>
  <wgt id="652">6.19595e-12</wgt>
  <wgt id="653">6.14252e-12</wgt>
  <wgt id="654">6.28263e-12</wgt>
  <wgt id="655">6.24696e-12</wgt>
  <wgt id="656">6.38227e-12</wgt>
  <wgt id="657">6.8941e-12</wgt>
  <wgt id="658">6.35908e-12</wgt>
  <wgt id="659">6.10331e-12</wgt>
  <wgt id="660">6.33283e-12</wgt>
  <wgt id="661">6.25997e-12</wgt>
  <wgt id="662">6.30868e-12</wgt>
  <wgt id="663">6.44343e-12</wgt>
  <wgt id="664">6.37752e-12</wgt>
  <wgt id="665">6.35308e-12</wgt>
  <wgt id="666">6.26363e-12</wgt>
  <wgt id="667">6.65386e-12</wgt>
  <wgt id="668">6.33657e-12</wgt>
  <wgt id="669">6.44697e-12</wgt>
  <wgt id="670">6.61213e-12</wgt>
  <wgt id="671">6.39521e-12</wgt>
  <wgt id="672">6.13567e-12</wgt>
  <wgt id="673">6.59335e-12</wgt>
  <wgt id="674">6.19853e-12</wgt>
  <wgt id="675">6.26006e-12</wgt>
  <wgt id="676">8.11914e-12</wgt>
  <wgt id="677">8.22694e-12</wgt>
  <wgt id="678">8.68264e-12</wgt>
  <wgt id="679">7.9407e-12</wgt>
  <wgt id="680">8.1056e-12</wgt>
  <wgt id="681">8.08743e-12</wgt>
  <wgt id="682">8.46064e-12</wgt>
  <wgt id="683">7.77135e-12</wgt>
  <wgt id="684">8.46265e-12</wgt>
  <wgt id="685">7.99133e-12</wgt>
  <wgt id="686">7.94174e-12</wgt>
  <wgt id="687">8.37506e-12</wgt>
  <wgt id="688">7.94883e-12</wgt>
  <wgt id="689">8.47097e-12</wgt>
  <wgt id="690">8.34585e-12</wgt>
  <wgt id="691">8.43044e-12</wgt>
  <wgt id="692">7.99578e-12</wgt>
  <wgt id="693">1.00352e-11</wgt>
  <wgt id="694">8.76025e-12</wgt>
  <wgt id="695">7.7927e-12</wgt>
  <wgt id="696">7.87915e-12</wgt>
  <wgt id="697">7.64019e-12</wgt>
  <wgt id="698">7.06675e-12</wgt>
  <wgt id="699">7.1033e-12</wgt>
  <wgt id="700">7.18668e-12</wgt>
  <wgt id="701">8.10772e-12</wgt>
  <wgt id="702">7.98729e-12</wgt>
  <wgt id="703">9.57784e-12</wgt>
  <wgt id="704">9.01079e-12</wgt>
  <wgt id="705">8.9045e-12</wgt>
  <wgt id="706">7.7227e-12</wgt>
  <wgt id="707">7.71524e-12</wgt>
  <wgt id="708">7.88869e-12</wgt>
  <wgt id="709">7.9058e-12</wgt>
  <wgt id="710">7.29755e-12</wgt>
  <wgt id="711">8.24292e-12</wgt>
  <wgt id="712">7.75206e-12</wgt>
  <wgt id="713">8.74323e-12</wgt>
  <wgt id="714">7.60923e-12</wgt>
  <wgt id="715">7.91274e-12</wgt>
  <wgt id="716">7.83351e-12</wgt>
  <wgt id="717">7.41054e-12</wgt>
  <wgt id="718">8.27649e-12</wgt>
  <wgt id="719">7.39513e-12</wgt>
  <wgt id="720">8.01868e-12</wgt>
  <wgt id="721">7.12727e-12</wgt>
  <wgt id="722">6.8612e-12</wgt>
  <wgt id="723">8.84539e-12</wgt>
  <wgt id="724">8.64234e-12</wgt>
  <wgt id="725">8.46453e-12</wgt>
  <wgt id="726">8.09882e-12</wgt>
  <wgt id="727">8.04869e-12</wgt>
  <wgt id="728">7.86489e-12</wgt>
  <wgt id="729">7.8122e-12</wgt>
  <wgt id="730">8.78703e-12</wgt>
  <wgt id="731">7.95679e-12</wgt>
  <wgt id="732">9.15403e-12</wgt>
  <wgt id="733">7.77156e-12</wgt>
  <wgt id="734">8.31709e-12</wgt>
  <wgt id="735">8.23294e-12</wgt>
  <wgt id="736">7.72888e-12</wgt>
  <wgt id="737">7.98513e-12</wgt>
  <wgt id="738">7.77587e-12</wgt>
  <wgt id="739">8.56883e-12</wgt>
  <wgt id="740">9.22461e-12</wgt>
  <wgt id="741">7.82093e-12</wgt>
  <wgt id="742">7.98942e-12</wgt>
  <wgt id="743">7.58316e-12</wgt>
  <wgt id="744">7.9556e-12</wgt>
  <wgt id="745">8.60448e-12</wgt>
  <wgt id="746">8.81141e-12</wgt>
  <wgt id="747">7.02414e-12</wgt>
  <wgt id="748">7.97216e-12</wgt>
  <wgt id="749">8.40312e-12</wgt>
  <wgt id="750">8.67749e-12</wgt>
  <wgt id="751">8.19761e-12</wgt>
  <wgt id="752">7.4054e-12</wgt>
  <wgt id="753">7.48496e-12</wgt>
  <wgt id="754">8.47483e-12</wgt>
  <wgt id="755">8.0297e-12</wgt>
  <wgt id="756">7.98803e-12</wgt>
  <wgt id="757">7.27764e-12</wgt>
  <wgt id="758">7.97539e-12</wgt>
  <wgt id="759">8.85145e-12</wgt>
  <wgt id="760">7.96424e-12</wgt>
  <wgt id="761">8.72349e-12</wgt>
  <wgt id="762">8.75641e-12</wgt>
  <wgt id="763">8.14124e-12</wgt>
  <wgt id="764">8.51633e-12</wgt>
  <wgt id="765">8.25142e-12</wgt>
  <wgt id="766">8.14989e-12</wgt>
  <wgt id="767">8.26456e-12</wgt>
  <wgt id="768">7.525e-12</wgt>
  <wgt id="769">8.57679e-12</wgt>
  <wgt id="770">7.88724e-12</wgt>
  <wgt id="771">9.65631e-12</wgt>
  <wgt id="772">7.84191e-12</wgt>
  <wgt id="773">8.07468e-12</wgt>
  <wgt id="774">6.75977e-12</wgt>
  <wgt id="775">8.49394e-12</wgt>
  <wgt id="776">8.91702e-12</wgt>
  <wgt id="777">7.47773e-12</wgt>
  <wgt id="778">5.70201e-12</wgt>
  <wgt id="779">4.11984e-12</wgt>
  <wgt id="780">2.9494e-12</wgt>
  <wgt id="781">6.56352e-12</wgt>
  <wgt id="782">6.5314e-12</wgt>
  <wgt id="783">4.00135e-12</wgt>
  <wgt id="784">4.53322e-12</wgt>
  <wgt id="785">7.78054e-12</wgt>
  <wgt id="786">3.94609e-12</wgt>
  <wgt id="787">6.87593e-12</wgt>
  <wgt id="788">2.4471e-12</wgt>
  <wgt id="789">4.5437e-12</wgt>
  <wgt id="790">3.85923e-12</wgt>
  <wgt id="791">6.07667e-12</wgt>
  <wgt id="792">7.6513e-12</wgt>
  <wgt id="793">5.58386e-12</wgt>
  <wgt id="794">3.66765e-12</wgt>
  <wgt id="795">7.20725e-12</wgt>
  <wgt id="796">7.70387e-12</wgt>
  <wgt id="797">7.13324e-12</wgt>
  <wgt id="798">4.74919e-12</wgt>
  <wgt id="799">6.74138e-12</wgt>
  <wgt id="800">4.66275e-12</wgt>
  <wgt id="801">5.27787e-12</wgt>
  <wgt id="802">3.61033e-12</wgt>
  <wgt id="803">8.5816e-12</wgt>
  <wgt id="804">7.23523e-12</wgt>
  <wgt id="805">7.10038e-12</wgt>
  <wgt id="806">6.2095e-12</wgt>
  <wgt id="807">5.48625e-12</wgt>
  <wgt id="808">5.42119e-12</wgt>
  <wgt id="809">5.26994e-12</wgt>
  <wgt id="810">6.29506e-12</wgt>
  <wgt id="811">6.04164e-12</wgt>
  <wgt id="812">3.86653e-12</wgt>
  <wgt id="813">4.06925e-12</wgt>
  <wgt id="814">4.38291e-12</wgt>
  <wgt id="815">4.02677e-12</wgt>
  <wgt id="816">3.99304e-12</wgt>
  <wgt id="817">5.77806e-12</wgt>
  <wgt id="818">6.6377e-12</wgt>
  <wgt id="819">4.10735e-12</wgt>
  <wgt id="820">5.5258e-12</wgt>
  <wgt id="821">6.65835e-12</wgt>
  <wgt id="822">4.59549e-12</wgt>
  <wgt id="823">6.90404e-12</wgt>
  <wgt id="824">8.26919e-12</wgt>
  <wgt id="825">3.52051e-12</wgt>
  <wgt id="826">6.57373e-12</wgt>
  <wgt id="827">3.02176e-12</wgt>
  <wgt id="828">7.28887e-12</wgt>
  <wgt id="829">5.86732e-12</wgt>
  <wgt id="830">3.34163e-12</wgt>
  <wgt id="831">6.41094e-12</wgt>
  <wgt id="832">9.71912e-12</wgt>
  <wgt id="833">4.88032e-12</wgt>
  <wgt id="834">9.37931e-12</wgt>
  <wgt id="835">4.40557e-12</wgt>
  <wgt id="836">5.09783e-12</wgt>
  <wgt id="837">6.54619e-12</wgt>
  <wgt id="838">4.94529e-12</wgt>
  <wgt id="839">6.36593e-12</wgt>
  <wgt id="840">5.04964e-12</wgt>
  <wgt id="841">7.5463e-12</wgt>
  <wgt id="842">5.41681e-12</wgt>
  <wgt id="843">5.98339e-12</wgt>
  <wgt id="844">6.12207e-12</wgt>
  <wgt id="845">9.27001e-12</wgt>
  <wgt id="846">5.96933e-12</wgt>
  <wgt id="847">5.97603e-12</wgt>
  <wgt id="848">4.18424e-12</wgt>
  <wgt id="849">6.00576e-12</wgt>
  <wgt id="850">8.03947e-12</wgt>
  <wgt id="851">6.49001e-12</wgt>
  <wgt id="852">3.84366e-12</wgt>
  <wgt id="853">6.67145e-12</wgt>
  <wgt id="854">7.43707e-12</wgt>
  <wgt id="855">6.74498e-12</wgt>
  <wgt id="856">3.35018e-12</wgt>
  <wgt id="857">5.30015e-12</wgt>
  <wgt id="858">5.31134e-12</wgt>
  <wgt id="859">5.4435e-12</wgt>
  <wgt id="860">6.81426e-12</wgt>
  <wgt id="861">4.90217e-12</wgt>
  <wgt id="862">5.76218e-12</wgt>
  <wgt id="863">6.33025e-12</wgt>
  <wgt id="864">5.97304e-12</wgt>
  <wgt id="865">8.57882e-12</wgt>
  <wgt id="866">9.55396e-12</wgt>
  <wgt id="867">5.79682e-12</wgt>
  <wgt id="868">5.70184e-12</wgt>
  <wgt id="869">3.84965e-12</wgt>
  <wgt id="870">4.24367e-12</wgt>
  <wgt id="871">4.15105e-12</wgt>
  <wgt id="872">7.47893e-12</wgt>
  <wgt id="873">4.70244e-12</wgt>
  <wgt id="874">6.16499e-12</wgt>
  <wgt id="875">4.70604e-12</wgt>
  <wgt id="876">7.27661e-12</wgt>
  <wgt id="877">6.44735e-12</wgt>
  <wgt id="878">4.62335e-12</wgt>
  <wgt id="879">8.11914e-12</wgt>
  <wgt id="880">8.22694e-12</wgt>
  <wgt id="881">8.68264e-12</wgt>
  <wgt id="882">7.9407e-12</wgt>
  <wgt id="883">8.1056e-12</wgt>
  <wgt id="884">8.08743e-12</wgt>
  <wgt id="885">8.46064e-12</wgt>
  <wgt id="886">7.77135e-12</wgt>
  <wgt id="887">8.46265e-12</wgt>
  <wgt id="888">7.99133e-12</wgt>
  <wgt id="889">7.94174e-12</wgt>
  <wgt id="890">8.37506e-12</wgt>
  <wgt id="891">7.94883e-12</wgt>
  <wgt id="892">8.47097e-12</wgt>
  <wgt id="893">8.34585e-12</wgt>
  <wgt id="894">8.43044e-12</wgt>
  <wgt id="895">7.99578e-12</wgt>
  <wgt id="896">1.00352e-11</wgt>
  <wgt id="897">8.76025e-12</wgt>
  <wgt id="898">7.7927e-12</wgt>
  <wgt id="899">7.87915e-12</wgt>
  <wgt id="900">7.64019e-12</wgt>
  <wgt id="901">7.06675e-12</wgt>
  <wgt id="902">7.1033e-12</wgt>
  <wgt id="903">7.18668e-12</wgt>
  <wgt id="904">8.10772e-12</wgt>
  <wgt id="905">7.98729e-12</wgt>
  <wgt id="906">9.57784e-12</wgt>
  <wgt id="907">9.01079e-12</wgt>
  <wgt id="908">8.9045e-12</wgt>
  <wgt id="909">7.7227e-12</wgt>
  <wgt id="910">7.71524e-12</wgt>
  <wgt id="911">7.88869e-12</wgt>
  <wgt id="912">7.9058e-12</wgt>
  <wgt id="913">7.29755e-12</wgt>
  <wgt id="914">8.24292e-12</wgt>
  <wgt id="915">7.75206e-12</wgt>
  <wgt id="916">8.74323e-12</wgt>
  <wgt id="917">7.60923e-12</wgt>
  <wgt id="918">7.91274e-12</wgt>
  <wgt id="919">7.83351e-12</wgt>
  <wgt id="920">7.41054e-12</wgt>
  <wgt id="921">8.27649e-12</wgt>
  <wgt id="922">7.39513e-12</wgt>
  <wgt id="923">8.01868e-12</wgt>
  <wgt id="924">7.12727e-12</wgt>
  <wgt id="925">6.8612e-12</wgt>
  <wgt id="926">8.84539e-12</wgt>
  <wgt id="927">8.64234e-12</wgt>
  <wgt id="928">8.46453e-12</wgt>
  <wgt id="929">8.09882e-12</wgt>
  <wgt id="930">8.04869e-12</wgt>
  <wgt id="931">7.86489e-12</wgt>
  <wgt id="932">7.8122e-12</wgt>
  <wgt id="933">8.78703e-12</wgt>
  <wgt id="934">7.95679e-12</wgt>
  <wgt id="935">9.15403e-12</wgt>
  <wgt id="936">7.77156e-12</wgt>
  <wgt id="937">8.31709e-12</wgt>
  <wgt id="938">8.23294e-12</wgt>
  <wgt id="939">7.72888e-12</wgt>
  <wgt id="940">7.98513e-12</wgt>
  <wgt id="941">7.77587e-12</wgt>
  <wgt id="942">8.56883e-12</wgt>
  <wgt id="943">9.22461e-12</wgt>
  <wgt id="944">7.82093e-12</wgt>
  <wgt id="945">7.98942e-12</wgt>
  <wgt id="946">7.58316e-12</wgt>
  <wgt id="947">7.9556e-12</wgt>
  <wgt id="948">8.60448e-12</wgt>
  <wgt id="949">8.81141e-12</wgt>
  <wgt id="950">7.02414e-12</wgt>
  <wgt id="951">7.97216e-12</wgt>
  <wgt id="952">8.40312e-12</wgt>
  <wgt id="953">8.67749e-12</wgt>
  <wgt id="954">8.19761e-12</wgt>
  <wgt id="955">7.4054e-12</wgt>
  <wgt id="956">7.48496e-12</wgt>
  <wgt id="957">8.47483e-12</wgt>
  <wgt id="958">8.0297e-12</wgt>
  <wgt id="959">7.98803e-12</wgt>
  <wgt id="960">7.27764e-12</wgt>
  <wgt id="961">7.97539e-12</wgt>
  <wgt id="962">8.85145e-12</wgt>
  <wgt id="963">7.96424e-12</wgt>
  <wgt id="964">8.72349e-12</wgt>
  <wgt id="965">8.75641e-12</wgt>
  <wgt id="966">8.14124e-12</wgt>
  <wgt id="967">8.51633e-12</wgt>
  <wgt id="968">8.25142e-12</wgt>
  <wgt id="969">8.14989e-12</wgt>
  <wgt id="970">8.26456e-12</wgt>
  <wgt id="971">7.525e-12</wgt>
  <wgt id="972">8.57679e-12</wgt>
  <wgt id="973">7.88724e-12</wgt>
  <wgt id="974">9.65631e-12</wgt>
  <wgt id="975">7.84191e-12</wgt>
  <wgt id="976">8.07468e-12</wgt>
  <wgt id="977">6.75977e-12</wgt>
  <wgt id="978">8.49394e-12</wgt>
  <wgt id="979">8.91702e-12</wgt>
  <wgt id="980">8.08036e-12</wgt>
  <wgt id="981">8.21492e-12</wgt>
  <wgt id="982">7.86077e-12</wgt>
</rwgt>
</event>
<event>
 5   1  0.5790000E-11  0.2144308E+04  0.7818608E-02  0.7770178E-01
       21   -1    0    0  502  501  0.00000000000E+00  0.00000000000E+00  0.51801391486E+03  0.51801391486E+03  0.00000000000E+00 0.  1.
       21   -1    0    0  501  502 -0.00000000000E+00 -0.00000000000E+00 -0.22190796553E+04  0.22190796553E+04  0.00000000000E+00 0. -1.
       39    2    1    2    0    0  0.00000000000E+00  0.00000000000E+00 -0.17010657405E+04  0.27370935702E+04  0.21443079440E+04 0.  0.
       25    1    3    3    0    0 -0.84326765785E+03 -0.54834848176E+03 -0.40450171652E+03  0.10913446013E+04  0.12500000000E+03 0.  0.
       25    1    3    3    0    0  0.84326765785E+03  0.54834848176E+03 -0.12965640239E+04  0.16457489688E+04  0.12500000000E+03 0.  0.
<mgrwt>
<rscale>  0 0.21443079E+04</rscale>
<asrwt>0</asrwt>
<pdfrwt beam="1">  1       21 0.79694448E-01 0.21443079E+04</pdfrwt>
<pdfrwt beam="2">  1       21 0.34139687E+00 0.21443079E+04</pdfrwt>
<totfact> 0.98929526E+00</totfact>
</mgrwt>
<rwgt>
  <wgt id="1">5.79e-12</wgt>
  <wgt id="2">5.00092e-12</wgt>
  <wgt id="3">6.77847e-12</wgt>
  <wgt id="4">5.79e-12</wgt>
  <wgt id="5">5.00092e-12</wgt>
  <wgt id="6">6.77847e-12</wgt>
  <wgt id="7">5.79e-12</wgt>
  <wgt id="8">5.00092e-12</wgt>
  <wgt id="9">6.77847e-12</wgt>
  <wgt id="10">6.0899e-12</wgt>
  <wgt id="11">6.08918e-12</wgt>
  <wgt id="12">6.07332e-12</wgt>
  <wgt id="13">6.08019e-12</wgt>
  <wgt id="14">6.10792e-12</wgt>
  <wgt id="15">6.09882e-12</wgt>
  <wgt id="16">6.07202e-12</wgt>
  <wgt id="17">6.12627e-12</wgt>
  <wgt id="18">6.08482e-12</wgt>
  <wgt id="19">6.11785e-12</wgt>
  <wgt id="20">6.09166e-12</wgt>
  <wgt id="21">6.03856e-12</wgt>
  <wgt id="22">6.04159e-12</wgt>
  <wgt id="23">5.98758e-12</wgt>
  <wgt id="24">6.03955e-12</wgt>
  <wgt id="25">6.0668e-12</wgt>
  <wgt id="26">6.10553e-12</wgt>
  <wgt id="27">6.07583e-12</wgt>
  <wgt id="28">6.04905e-12</wgt>
  <wgt id="29">6.09117e-12</wgt>
  <wgt id="30">6.0346e-12</wgt>
  <wgt id="31">6.11644e-12</wgt>
  <wgt id="32">6.0363e-12</wgt>
  <wgt id="33">6.09675e-12</wgt>
  <wgt id="34">6.04449e-12</wgt>
  <wgt id="35">6.04084e-12</wgt>
  <wgt id="36">6.12406e-12</wgt>
  <wgt id="37">6.06842e-12</wgt>
  <wgt id="38">6.05947e-12</wgt>
  <wgt id="39">6.20804e-12</wgt>
  <wgt id="40">6.09745e-12</wgt>
  <wgt id="41">6.08707e-12</wgt>
  <wgt id="42">6.10035e-12</wgt>
  <wgt id="43">6.09625e-12</wgt>
  <wgt id="44">6.13599e-12</wgt>
  <wgt id="45">6.09743e-12</wgt>
  <wgt id="46">6.05956e-12</wgt>
  <wgt id="47">6.1695e-12</wgt>
  <wgt id="48">6.13552e-12</wgt>
  <wgt id="49">6.04707e-12</wgt>
  <wgt id="50">6.02238e-12</wgt>
  <wgt id="51">6.04163e-12</wgt>
  <wgt id="52">6.10919e-12</wgt>
  <wgt id="53">6.1708e-12</wgt>
  <wgt id="54">6.13024e-12</wgt>
  <wgt id="55">6.08252e-12</wgt>
  <wgt id="56">6.04003e-12</wgt>
  <wgt id="57">6.03721e-12</wgt>
  <wgt id="58">6.08941e-12</wgt>
  <wgt id="59">6.10704e-12</wgt>
  <wgt id="60">6.023e-12</wgt>
  <wgt id="61">6.06208e-12</wgt>
  <wgt id="62">6.08682e-12</wgt>
  <wgt id="63">6.08611e-12</wgt>
  <wgt id="64">6.08293e-12</wgt>
  <wgt id="65">6.0532e-12</wgt>
  <wgt id="66">6.10321e-12</wgt>
  <wgt id="67">6.09801e-12</wgt>
  <wgt id="68">6.08726e-12</wgt>
  <wgt id="69">6.07509e-12</wgt>
  <wgt id="70">6.06124e-12</wgt>
  <wgt id="71">6.09394e-12</wgt>
  <wgt id="72">6.06234e-12</wgt>
  <wgt id="73">6.10973e-12</wgt>
  <wgt id="74">6.12129e-12</wgt>
  <wgt id="75">6.0799e-12</wgt>
  <wgt id="76">6.13587e-12</wgt>
  <wgt id="77">6.07667e-12</wgt>
  <wgt id="78">6.08434e-12</wgt>
  <wgt id="79">6.1046e-12</wgt>
  <wgt id="80">6.03333e-12</wgt>
  <wgt id="81">6.0858e-12</wgt>
  <wgt id="82">6.09681e-12</wgt>
  <wgt id="83">6.04523e-12</wgt>
  <wgt id="84">6.06198e-12</wgt>
  <wgt id="85">6.0606e-12</wgt>
  <wgt id="86">6.12117e-12</wgt>
  <wgt id="87">6.02284e-12</wgt>
  <wgt id="88">6.1122e-12</wgt>
  <wgt id="89">6.10523e-12</wgt>
  <wgt id="90">6.11425e-12</wgt>
  <wgt id="91">6.09802e-12</wgt>
  <wgt id="92">6.11065e-12</wgt>
  <wgt id="93">6.0968e-12</wgt>
  <wgt id="94">6.06883e-12</wgt>
  <wgt id="95">6.1109e-12</wgt>
  <wgt id="96">6.10946e-12</wgt>
  <wgt id="97">6.06097e-12</wgt>
  <wgt id="98">6.09024e-12</wgt>
  <wgt id="99">6.08445e-12</wgt>
  <wgt id="100">6.10343e-12</wgt>
  <wgt id="101">6.07745e-12</wgt>
  <wgt id="102">6.07562e-12</wgt>
  <wgt id="103">6.11477e-12</wgt>
  <wgt id="104">6.07816e-12</wgt>
  <wgt id="105">6.10789e-12</wgt>
  <wgt id="106">6.07091e-12</wgt>
  <wgt id="107">6.13126e-12</wgt>
  <wgt id="108">6.07648e-12</wgt>
  <wgt id="109">6.09226e-12</wgt>
  <wgt id="110">6.08896e-12</wgt>
  <wgt id="111">6.06986e-12</wgt>
  <wgt id="112">6.18155e-12</wgt>
  <wgt id="113">8.77367e-12</wgt>
  <wgt id="114">7.9648e-12</wgt>
  <wgt id="115">7.80583e-12</wgt>
  <wgt id="116">1.05235e-11</wgt>
  <wgt id="117">6.62145e-12</wgt>
  <wgt id="118">6.64469e-12</wgt>
  <wgt id="119">6.60813e-12</wgt>
  <wgt id="120">6.62163e-12</wgt>
  <wgt id="121">6.62127e-12</wgt>
  <wgt id="122">6.61105e-12</wgt>
  <wgt id="123">6.63583e-12</wgt>
  <wgt id="124">6.61265e-12</wgt>
  <wgt id="125">6.62709e-12</wgt>
  <wgt id="126">6.62933e-12</wgt>
  <wgt id="127">6.61625e-12</wgt>
  <wgt id="128">6.64148e-12</wgt>
  <wgt id="129">6.60162e-12</wgt>
  <wgt id="130">6.65157e-12</wgt>
  <wgt id="131">6.59007e-12</wgt>
  <wgt id="132">6.43904e-12</wgt>
  <wgt id="133">6.83838e-12</wgt>
  <wgt id="134">6.55254e-12</wgt>
  <wgt id="135">6.67556e-12</wgt>
  <wgt id="136">6.72411e-12</wgt>
  <wgt id="137">6.498e-12</wgt>
  <wgt id="138">6.92554e-12</wgt>
  <wgt id="139">6.33355e-12</wgt>
  <wgt id="140">6.59232e-12</wgt>
  <wgt id="141">6.64291e-12</wgt>
  <wgt id="142">6.61916e-12</wgt>
  <wgt id="143">6.6437e-12</wgt>
  <wgt id="144">6.33745e-12</wgt>
  <wgt id="145">6.89897e-12</wgt>
  <wgt id="146">6.71273e-12</wgt>
  <wgt id="147">6.54618e-12</wgt>
  <wgt id="148">6.64565e-12</wgt>
  <wgt id="149">6.61965e-12</wgt>
  <wgt id="150">6.67571e-12</wgt>
  <wgt id="151">6.59602e-12</wgt>
  <wgt id="152">6.62265e-12</wgt>
  <wgt id="153">6.62093e-12</wgt>
  <wgt id="154">6.62869e-12</wgt>
  <wgt id="155">6.59699e-12</wgt>
  <wgt id="156">6.85763e-12</wgt>
  <wgt id="157">6.40856e-12</wgt>
  <wgt id="158">7.92736e-12</wgt>
  <wgt id="159">7.9616e-12</wgt>
  <wgt id="160">7.90014e-12</wgt>
  <wgt id="161">7.9085e-12</wgt>
  <wgt id="162">7.94882e-12</wgt>
  <wgt id="163">7.91917e-12</wgt>
  <wgt id="164">7.94e-12</wgt>
  <wgt id="165">7.93039e-12</wgt>
  <wgt id="166">7.92556e-12</wgt>
  <wgt id="167">7.92216e-12</wgt>
  <wgt id="168">7.93524e-12</wgt>
  <wgt id="169">7.89463e-12</wgt>
  <wgt id="170">7.94786e-12</wgt>
  <wgt id="171">7.92326e-12</wgt>
  <wgt id="172">7.93356e-12</wgt>
  <wgt id="173">7.91014e-12</wgt>
  <wgt id="174">7.93384e-12</wgt>
  <wgt id="175">7.70217e-12</wgt>
  <wgt id="176">8.22246e-12</wgt>
  <wgt id="177">7.96081e-12</wgt>
  <wgt id="178">7.89747e-12</wgt>
  <wgt id="179">8.33693e-12</wgt>
  <wgt id="180">7.29842e-12</wgt>
  <wgt id="181">7.66221e-12</wgt>
  <wgt id="182">8.10501e-12</wgt>
  <wgt id="183">7.7666e-12</wgt>
  <wgt id="184">8.00752e-12</wgt>
  <wgt id="185">7.83587e-12</wgt>
  <wgt id="186">8.03754e-12</wgt>
  <wgt id="187">7.83421e-12</wgt>
  <wgt id="188">8.09155e-12</wgt>
  <wgt id="189">7.86468e-12</wgt>
  <wgt id="190">7.95338e-12</wgt>
  <wgt id="191">7.95731e-12</wgt>
  <wgt id="192">7.90986e-12</wgt>
  <wgt id="193">8.06117e-12</wgt>
  <wgt id="194">7.85982e-12</wgt>
  <wgt id="195">7.63414e-12</wgt>
  <wgt id="196">8.40176e-12</wgt>
  <wgt id="197">7.96903e-12</wgt>
  <wgt id="198">7.9173e-12</wgt>
  <wgt id="199">7.92736e-12</wgt>
  <wgt id="200">8.00509e-12</wgt>
  <wgt id="201">7.97932e-12</wgt>
  <wgt id="202">7.95392e-12</wgt>
  <wgt id="203">7.91882e-12</wgt>
  <wgt id="204">7.90058e-12</wgt>
  <wgt id="205">7.88518e-12</wgt>
  <wgt id="206">7.78449e-12</wgt>
  <wgt id="207">7.83045e-12</wgt>
  <wgt id="208">7.73817e-12</wgt>
  <wgt id="209">7.8051e-12</wgt>
  <wgt id="210">7.76914e-12</wgt>
  <wgt id="211">7.78224e-12</wgt>
  <wgt id="212">7.7861e-12</wgt>
  <wgt id="213">7.78347e-12</wgt>
  <wgt id="214">7.78521e-12</wgt>
  <wgt id="215">7.78971e-12</wgt>
  <wgt id="216">7.78074e-12</wgt>
  <wgt id="217">7.79993e-12</wgt>
  <wgt id="218">7.77187e-12</wgt>
  <wgt id="219">7.7721e-12</wgt>
  <wgt id="220">7.79184e-12</wgt>
  <wgt id="221">7.78889e-12</wgt>
  <wgt id="222">7.77106e-12</wgt>
  <wgt id="223">7.34344e-12</wgt>
  <wgt id="224">8.1885e-12</wgt>
  <wgt id="225">7.68994e-12</wgt>
  <wgt id="226">7.9046e-12</wgt>
  <wgt id="227">7.71112e-12</wgt>
  <wgt id="228">7.81661e-12</wgt>
  <wgt id="229">7.67423e-12</wgt>
  <wgt id="230">7.83885e-12</wgt>
  <wgt id="231">8.05383e-12</wgt>
  <wgt id="232">7.56394e-12</wgt>
  <wgt id="233">7.73331e-12</wgt>
  <wgt id="234">7.87054e-12</wgt>
  <wgt id="235">7.4349e-12</wgt>
  <wgt id="236">8.0669e-12</wgt>
  <wgt id="237">7.58409e-12</wgt>
  <wgt id="238">7.85067e-12</wgt>
  <wgt id="239">7.70416e-12</wgt>
  <wgt id="240">7.9283e-12</wgt>
  <wgt id="241">7.68748e-12</wgt>
  <wgt id="242">7.89762e-12</wgt>
  <wgt id="243">7.92264e-12</wgt>
  <wgt id="244">7.77578e-12</wgt>
  <wgt id="245">7.78215e-12</wgt>
  <wgt id="246">7.82232e-12</wgt>
  <wgt id="247">7.78449e-12</wgt>
  <wgt id="248">7.86991e-12</wgt>
  <wgt id="249">7.84131e-12</wgt>
  <wgt id="250">7.81016e-12</wgt>
  <wgt id="251">7.76939e-12</wgt>
  <wgt id="252">7.74807e-12</wgt>
  <wgt id="253">7.73381e-12</wgt>
  <wgt id="254">7.47923e-12</wgt>
  <wgt id="255">7.48544e-12</wgt>
  <wgt id="256">7.47229e-12</wgt>
  <wgt id="257">7.48527e-12</wgt>
  <wgt id="258">7.4748e-12</wgt>
  <wgt id="259">7.52934e-12</wgt>
  <wgt id="260">7.43112e-12</wgt>
  <wgt id="261">7.48975e-12</wgt>
  <wgt id="262">7.46712e-12</wgt>
  <wgt id="263">7.47358e-12</wgt>
  <wgt id="264">7.48541e-12</wgt>
  <wgt id="265">7.47073e-12</wgt>
  <wgt id="266">7.49616e-12</wgt>
  <wgt id="267">7.48197e-12</wgt>
  <wgt id="268">7.47596e-12</wgt>
  <wgt id="269">7.50078e-12</wgt>
  <wgt id="270">7.46461e-12</wgt>
  <wgt id="271">7.45697e-12</wgt>
  <wgt id="272">7.50441e-12</wgt>
  <wgt id="273">7.46103e-12</wgt>
  <wgt id="274">7.49301e-12</wgt>
  <wgt id="275">7.4316e-12</wgt>
  <wgt id="276">7.52899e-12</wgt>
  <wgt id="277">7.43644e-12</wgt>
  <wgt id="278">7.51863e-12</wgt>
  <wgt id="279">7.3467e-12</wgt>
  <wgt id="280">7.64626e-12</wgt>
  <wgt id="281">7.44429e-12</wgt>
  <wgt id="282">7.49213e-12</wgt>
  <wgt id="283">7.23292e-12</wgt>
  <wgt id="284">7.78754e-12</wgt>
  <wgt id="285">7.07113e-12</wgt>
  <wgt id="286">7.82623e-12</wgt>
  <wgt id="287">7.50639e-12</wgt>
  <wgt id="288">7.44455e-12</wgt>
  <wgt id="289">7.54087e-12</wgt>
  <wgt id="290">7.34525e-12</wgt>
  <wgt id="291">7.44972e-12</wgt>
  <wgt id="292">7.47809e-12</wgt>
  <wgt id="293">7.41267e-12</wgt>
  <wgt id="294">7.54568e-12</wgt>
  <wgt id="295">7.31717e-12</wgt>
  <wgt id="296">7.67778e-12</wgt>
  <wgt id="297">7.45794e-12</wgt>
  <wgt id="298">7.51761e-12</wgt>
  <wgt id="299">7.45385e-12</wgt>
  <wgt id="300">7.5464e-12</wgt>
  <wgt id="301">7.32166e-12</wgt>
  <wgt id="302">7.83789e-12</wgt>
  <wgt id="303">7.39272e-12</wgt>
  <wgt id="304">7.52758e-12</wgt>
  <wgt id="305">7.39289e-12</wgt>
  <wgt id="306">7.3996e-12</wgt>
  <wgt id="307">7.38601e-12</wgt>
  <wgt id="308">7.39953e-12</wgt>
  <wgt id="309">7.38898e-12</wgt>
  <wgt id="310">7.44383e-12</wgt>
  <wgt id="311">7.34664e-12</wgt>
  <wgt id="312">7.40247e-12</wgt>
  <wgt id="313">7.383e-12</wgt>
  <wgt id="314">7.38741e-12</wgt>
  <wgt id="315">7.39873e-12</wgt>
  <wgt id="316">7.38453e-12</wgt>
  <wgt id="317">7.41167e-12</wgt>
  <wgt id="318">7.39871e-12</wgt>
  <wgt id="319">7.38356e-12</wgt>
  <wgt id="320">7.4164e-12</wgt>
  <wgt id="321">7.38037e-12</wgt>
  <wgt id="322">7.36945e-12</wgt>
  <wgt id="323">7.42118e-12</wgt>
  <wgt id="324">7.38068e-12</wgt>
  <wgt id="325">7.40384e-12</wgt>
  <wgt id="326">7.35345e-12</wgt>
  <wgt id="327">7.44413e-12</wgt>
  <wgt id="328">7.35474e-12</wgt>
  <wgt id="329">7.41434e-12</wgt>
  <wgt id="330">7.59598e-12</wgt>
  <wgt id="331">7.20052e-12</wgt>
  <wgt id="332">7.36414e-12</wgt>
  <wgt id="333">7.40175e-12</wgt>
  <wgt id="334">7.20711e-12</wgt>
  <wgt id="335">7.62702e-12</wgt>
  <wgt id="336">7.10571e-12</wgt>
  <wgt id="337">7.7506e-12</wgt>
  <wgt id="338">7.48615e-12</wgt>
  <wgt id="339">7.30782e-12</wgt>
  <wgt id="340">7.44782e-12</wgt>
  <wgt id="341">7.25994e-12</wgt>
  <wgt id="342">7.3726e-12</wgt>
  <wgt id="343">7.37638e-12</wgt>
  <wgt id="344">7.33533e-12</wgt>
  <wgt id="345">7.46066e-12</wgt>
  <wgt id="346">7.22913e-12</wgt>
  <wgt id="347">7.58103e-12</wgt>
  <wgt id="348">7.37353e-12</wgt>
  <wgt id="349">7.42783e-12</wgt>
  <wgt id="350">7.36197e-12</wgt>
  <wgt id="351">7.47217e-12</wgt>
  <wgt id="352">7.23635e-12</wgt>
  <wgt id="353">7.73675e-12</wgt>
  <wgt id="354">7.27256e-12</wgt>
  <wgt id="355">7.46394e-12</wgt>
  <wgt id="356">7.47923e-12</wgt>
  <wgt id="357">7.39347e-12</wgt>
  <wgt id="358">7.39289e-12</wgt>
  <wgt id="359">7.47195e-12</wgt>
  <wgt id="360">7.62555e-12</wgt>
  <wgt id="361">7.5214e-12</wgt>
  <wgt id="362">7.6729e-12</wgt>
  <wgt id="363">7.6535e-12</wgt>
  <wgt id="364">7.6139e-12</wgt>
  <wgt id="365">7.58471e-12</wgt>
  <wgt id="366">7.55589e-12</wgt>
  <wgt id="367">7.50118e-12</wgt>
  <wgt id="368">7.46509e-12</wgt>
  <wgt id="369">7.42624e-12</wgt>
  <wgt id="370">7.5214e-12</wgt>
  <wgt id="371">7.55091e-12</wgt>
  <wgt id="372">7.5339e-12</wgt>
  <wgt id="373">7.51053e-12</wgt>
  <wgt id="374">7.52295e-12</wgt>
  <wgt id="375">8.73229e-12</wgt>
  <wgt id="376">8.73233e-12</wgt>
  <wgt id="377">8.73216e-12</wgt>
  <wgt id="378">8.76596e-12</wgt>
  <wgt id="379">8.69895e-12</wgt>
  <wgt id="380">8.75781e-12</wgt>
  <wgt id="381">8.722e-12</wgt>
  <wgt id="382">8.7693e-12</wgt>
  <wgt id="383">8.69574e-12</wgt>
  <wgt id="384">8.73787e-12</wgt>
  <wgt id="385">8.72701e-12</wgt>
  <wgt id="386">8.75612e-12</wgt>
  <wgt id="387">8.72207e-12</wgt>
  <wgt id="388">8.72537e-12</wgt>
  <wgt id="389">8.7406e-12</wgt>
  <wgt id="390">8.75014e-12</wgt>
  <wgt id="391">8.71366e-12</wgt>
  <wgt id="392">8.65508e-12</wgt>
  <wgt id="393">8.77579e-12</wgt>
  <wgt id="394">8.73656e-12</wgt>
  <wgt id="395">8.72612e-12</wgt>
  <wgt id="396">8.74891e-12</wgt>
  <wgt id="397">8.72057e-12</wgt>
  <wgt id="398">8.72549e-12</wgt>
  <wgt id="399">8.73853e-12</wgt>
  <wgt id="400">8.72021e-12</wgt>
  <wgt id="401">8.75799e-12</wgt>
  <wgt id="402">8.65061e-12</wgt>
  <wgt id="403">8.78794e-12</wgt>
  <wgt id="404">8.99405e-12</wgt>
  <wgt id="405">8.11116e-12</wgt>
  <wgt id="406">8.54186e-12</wgt>
  <wgt id="407">9.15673e-12</wgt>
  <wgt id="408">8.8308e-12</wgt>
  <wgt id="409">8.55037e-12</wgt>
  <wgt id="410">8.42567e-12</wgt>
  <wgt id="411">8.88076e-12</wgt>
  <wgt id="412">8.71084e-12</wgt>
  <wgt id="413">8.76246e-12</wgt>
  <wgt id="414">8.61014e-12</wgt>
  <wgt id="415">8.82697e-12</wgt>
  <wgt id="416">9.04425e-12</wgt>
  <wgt id="417">8.30421e-12</wgt>
  <wgt id="418">8.75196e-12</wgt>
  <wgt id="419">8.627e-12</wgt>
  <wgt id="420">8.96025e-12</wgt>
  <wgt id="421">8.57645e-12</wgt>
  <wgt id="422">8.66953e-12</wgt>
  <wgt id="423">8.7608e-12</wgt>
  <wgt id="424">9.01017e-12</wgt>
  <wgt id="425">8.54019e-12</wgt>
  <wgt id="426">8.73229e-12</wgt>
  <wgt id="427">8.53497e-12</wgt>
  <wgt id="428">9.16922e-12</wgt>
  <wgt id="429">8.86006e-12</wgt>
  <wgt id="430">9.16042e-12</wgt>
  <wgt id="431">9.09923e-12</wgt>
  <wgt id="432">9.04429e-12</wgt>
  <wgt id="433">8.98988e-12</wgt>
  <wgt id="434">8.91967e-12</wgt>
  <wgt id="435">8.78539e-12</wgt>
  <wgt id="436">8.71823e-12</wgt>
  <wgt id="437">8.65182e-12</wgt>
  <wgt id="438">8.86006e-12</wgt>
  <wgt id="439">8.88621e-12</wgt>
  <wgt id="440">8.86931e-12</wgt>
  <wgt id="441">8.8537e-12</wgt>
  <wgt id="442">8.84905e-12</wgt>
  <wgt id="443">7.85e-12</wgt>
  <wgt id="444">7.94342e-12</wgt>
  <wgt id="445">7.96484e-12</wgt>
  <wgt id="446">7.79e-12</wgt>
  <wgt id="447">7.85713e-12</wgt>
  <wgt id="448">7.66858e-12</wgt>
  <wgt id="449">8.0279e-12</wgt>
  <wgt id="450">7.98563e-12</wgt>
  <wgt id="451">7.82586e-12</wgt>
  <wgt id="452">8.01738e-12</wgt>
  <wgt id="453">7.96249e-12</wgt>
  <wgt id="454">7.42375e-12</wgt>
  <wgt id="455">7.93114e-12</wgt>
  <wgt id="456">8.03931e-12</wgt>
  <wgt id="457">7.87314e-12</wgt>
  <wgt id="458">8.00692e-12</wgt>
  <wgt id="459">7.92495e-12</wgt>
  <wgt id="460">8.04355e-12</wgt>
  <wgt id="461">7.65031e-12</wgt>
  <wgt id="462">7.79781e-12</wgt>
  <wgt id="463">7.71442e-12</wgt>
  <wgt id="464">7.81314e-12</wgt>
  <wgt id="465">7.93317e-12</wgt>
  <wgt id="466">7.63021e-12</wgt>
  <wgt id="467">7.79413e-12</wgt>
  <wgt id="468">7.84984e-12</wgt>
  <wgt id="469">7.8302e-12</wgt>
  <wgt id="470">7.71325e-12</wgt>
  <wgt id="471">7.7422e-12</wgt>
  <wgt id="472">7.91048e-12</wgt>
  <wgt id="473">7.59148e-12</wgt>
  <wgt id="474">5.79e-12</wgt>
  <wgt id="475">5.77393e-12</wgt>
  <wgt id="476">5.77368e-12</wgt>
  <wgt id="477">5.90066e-12</wgt>
  <wgt id="478">5.90115e-12</wgt>
  <wgt id="479">5.42945e-12</wgt>
  <wgt id="480">6.15887e-12</wgt>
  <wgt id="481">5.86573e-12</wgt>
  <wgt id="482">5.85993e-12</wgt>
  <wgt id="483">5.9277e-12</wgt>
  <wgt id="484">6.03741e-12</wgt>
  <wgt id="485">5.21099e-12</wgt>
  <wgt id="486">6.11517e-12</wgt>
  <wgt id="487">5.58425e-12</wgt>
  <wgt id="488">5.81641e-12</wgt>
  <wgt id="489">5.10283e-12</wgt>
  <wgt id="490">5.74165e-12</wgt>
  <wgt id="491">5.70365e-12</wgt>
  <wgt id="492">5.70979e-12</wgt>
  <wgt id="493">5.26169e-12</wgt>
  <wgt id="494">5.27684e-12</wgt>
  <wgt id="495">5.84235e-12</wgt>
  <wgt id="496">5.42956e-12</wgt>
  <wgt id="497">5.36224e-12</wgt>
  <wgt id="498">5.9517e-12</wgt>
  <wgt id="499">5.88543e-12</wgt>
  <wgt id="500">5.79898e-12</wgt>
  <wgt id="501">6.00515e-12</wgt>
  <wgt id="502">6.1551e-12</wgt>
  <wgt id="503">5.66112e-12</wgt>
  <wgt id="504">6.01944e-12</wgt>
  <wgt id="505">6.09137e-12</wgt>
  <wgt id="506">5.29917e-12</wgt>
  <wgt id="507">5.6019e-12</wgt>
  <wgt id="508">6.13744e-12</wgt>
  <wgt id="509">5.61065e-12</wgt>
  <wgt id="510">5.81479e-12</wgt>
  <wgt id="511">5.45837e-12</wgt>
  <wgt id="512">6.26759e-12</wgt>
  <wgt id="513">6.09693e-12</wgt>
  <wgt id="514">6.2227e-12</wgt>
  <wgt id="515">6.04288e-12</wgt>
  <wgt id="516">6.50783e-12</wgt>
  <wgt id="517">5.92674e-12</wgt>
  <wgt id="518">6.04399e-12</wgt>
  <wgt id="519">5.54655e-12</wgt>
  <wgt id="520">5.84605e-12</wgt>
  <wgt id="521">5.55538e-12</wgt>
  <wgt id="522">5.99148e-12</wgt>
  <wgt id="523">5.45818e-12</wgt>
  <wgt id="524">5.99391e-12</wgt>
  <wgt id="525">5.58434e-12</wgt>
  <wgt id="526">6.17979e-12</wgt>
  <wgt id="527">5.6761e-12</wgt>
  <wgt id="528">5.74171e-12</wgt>
  <wgt id="529">5.42585e-12</wgt>
  <wgt id="530">6.14375e-12</wgt>
  <wgt id="531">5.51029e-12</wgt>
  <wgt id="532">6.29615e-12</wgt>
  <wgt id="533">5.86557e-12</wgt>
  <wgt id="534">5.49151e-12</wgt>
  <wgt id="535">5.93478e-12</wgt>
  <wgt id="536">6.04485e-12</wgt>
  <wgt id="537">5.40024e-12</wgt>
  <wgt id="538">5.71121e-12</wgt>
  <wgt id="539">5.65547e-12</wgt>
  <wgt id="540">6.12466e-12</wgt>
  <wgt id="541">5.75609e-12</wgt>
  <wgt id="542">5.6294e-12</wgt>
  <wgt id="543">5.52843e-12</wgt>
  <wgt id="544">5.79367e-12</wgt>
  <wgt id="545">5.40803e-12</wgt>
  <wgt id="546">5.22719e-12</wgt>
  <wgt id="547">5.55651e-12</wgt>
  <wgt id="548">5.63429e-12</wgt>
  <wgt id="549">5.68666e-12</wgt>
  <wgt id="550">5.52788e-12</wgt>
  <wgt id="551">5.76509e-12</wgt>
  <wgt id="552">5.30907e-12</wgt>
  <wgt id="553">5.32047e-12</wgt>
  <wgt id="554">6.03211e-12</wgt>
  <wgt id="555">5.90584e-12</wgt>
  <wgt id="556">5.74165e-12</wgt>
  <wgt id="557">5.87983e-12</wgt>
  <wgt id="558">5.7634e-12</wgt>
  <wgt id="559">5.87373e-12</wgt>
  <wgt id="560">6.39219e-12</wgt>
  <wgt id="561">6.04538e-12</wgt>
  <wgt id="562">6.04165e-12</wgt>
  <wgt id="563">6.45544e-12</wgt>
  <wgt id="564">6.21236e-12</wgt>
  <wgt id="565">6.14366e-12</wgt>
  <wgt id="566">5.50068e-12</wgt>
  <wgt id="567">5.8226e-12</wgt>
  <wgt id="568">5.49994e-12</wgt>
  <wgt id="569">5.90191e-12</wgt>
  <wgt id="570">5.92541e-12</wgt>
  <wgt id="571">6.39323e-12</wgt>
  <wgt id="572">5.55408e-12</wgt>
  <wgt id="573">5.63862e-12</wgt>
  <wgt id="574">5.68738e-12</wgt>
  <wgt id="575">6.37015e-12</wgt>
  <wgt id="576">7.11107e-12</wgt>
  <wgt id="577">6.60833e-12</wgt>
  <wgt id="578">6.39112e-12</wgt>
  <wgt id="579">6.64894e-12</wgt>
  <wgt id="580">6.8211e-12</wgt>
  <wgt id="581">7.06689e-12</wgt>
  <wgt id="582">6.95125e-12</wgt>
  <wgt id="583">6.57251e-12</wgt>
  <wgt id="584">6.29625e-12</wgt>
  <wgt id="585">5.80424e-12</wgt>
  <wgt id="586">5.94409e-12</wgt>
  <wgt id="587">6.51995e-12</wgt>
  <wgt id="588">7.21273e-12</wgt>
  <wgt id="589">7.11771e-12</wgt>
  <wgt id="590">6.34332e-12</wgt>
  <wgt id="591">6.53841e-12</wgt>
  <wgt id="592">5.95066e-12</wgt>
  <wgt id="593">6.11863e-12</wgt>
  <wgt id="594">6.10792e-12</wgt>
  <wgt id="595">6.83724e-12</wgt>
  <wgt id="596">7.65226e-12</wgt>
  <wgt id="597">6.53066e-12</wgt>
  <wgt id="598">6.54449e-12</wgt>
  <wgt id="599">6.89435e-12</wgt>
  <wgt id="600">7.02644e-12</wgt>
  <wgt id="601">6.08285e-12</wgt>
  <wgt id="602">6.10959e-12</wgt>
  <wgt id="603">5.85013e-12</wgt>
  <wgt id="604">6.58203e-12</wgt>
  <wgt id="605">6.34433e-12</wgt>
  <wgt id="606">6.50253e-12</wgt>
  <wgt id="607">6.77964e-12</wgt>
  <wgt id="608">6.64659e-12</wgt>
  <wgt id="609">6.35134e-12</wgt>
  <wgt id="610">6.02397e-12</wgt>
  <wgt id="611">5.94644e-12</wgt>
  <wgt id="612">6.43513e-12</wgt>
  <wgt id="613">6.00289e-12</wgt>
  <wgt id="614">6.32876e-12</wgt>
  <wgt id="615">6.58284e-12</wgt>
  <wgt id="616">5.89116e-12</wgt>
  <wgt id="617">6.67353e-12</wgt>
  <wgt id="618">7.0812e-12</wgt>
  <wgt id="619">6.22727e-12</wgt>
  <wgt id="620">6.57011e-12</wgt>
  <wgt id="621">6.26473e-12</wgt>
  <wgt id="622">6.51995e-12</wgt>
  <wgt id="623">6.34529e-12</wgt>
  <wgt id="624">6.40469e-12</wgt>
  <wgt id="625">6.01805e-12</wgt>
  <wgt id="626">5.43857e-12</wgt>
  <wgt id="627">5.63844e-12</wgt>
  <wgt id="628">6.31269e-12</wgt>
  <wgt id="629">6.75397e-12</wgt>
  <wgt id="630">6.1413e-12</wgt>
  <wgt id="631">6.6123e-12</wgt>
  <wgt id="632">5.74555e-12</wgt>
  <wgt id="633">6.33009e-12</wgt>
  <wgt id="634">5.9965e-12</wgt>
  <wgt id="635">5.81931e-12</wgt>
  <wgt id="636">6.41216e-12</wgt>
  <wgt id="637">6.30083e-12</wgt>
  <wgt id="638">6.02451e-12</wgt>
  <wgt id="639">6.0088e-12</wgt>
  <wgt id="640">6.13614e-12</wgt>
  <wgt id="641">6.75127e-12</wgt>
  <wgt id="642">5.57053e-12</wgt>
  <wgt id="643">6.13982e-12</wgt>
  <wgt id="644">5.69389e-12</wgt>
  <wgt id="645">6.35274e-12</wgt>
  <wgt id="646">5.6274e-12</wgt>
  <wgt id="647">6.55294e-12</wgt>
  <wgt id="648">6.7713e-12</wgt>
  <wgt id="649">6.39709e-12</wgt>
  <wgt id="650">6.09575e-12</wgt>
  <wgt id="651">6.85658e-12</wgt>
  <wgt id="652">6.01135e-12</wgt>
  <wgt id="653">6.05333e-12</wgt>
  <wgt id="654">6.51223e-12</wgt>
  <wgt id="655">6.03752e-12</wgt>
  <wgt id="656">6.43628e-12</wgt>
  <wgt id="657">7.08935e-12</wgt>
  <wgt id="658">6.26382e-12</wgt>
  <wgt id="659">6.11053e-12</wgt>
  <wgt id="660">6.0476e-12</wgt>
  <wgt id="661">6.16343e-12</wgt>
  <wgt id="662">6.27732e-12</wgt>
  <wgt id="663">6.54593e-12</wgt>
  <wgt id="664">6.54588e-12</wgt>
  <wgt id="665">6.2512e-12</wgt>
  <wgt id="666">6.17578e-12</wgt>
  <wgt id="667">6.75044e-12</wgt>
  <wgt id="668">6.24422e-12</wgt>
  <wgt id="669">6.2771e-12</wgt>
  <wgt id="670">6.74536e-12</wgt>
  <wgt id="671">6.50925e-12</wgt>
  <wgt id="672">6.31386e-12</wgt>
  <wgt id="673">6.91857e-12</wgt>
  <wgt id="674">6.14486e-12</wgt>
  <wgt id="675">6.07826e-12</wgt>
  <wgt id="676">8.27452e-12</wgt>
  <wgt id="677">8.35872e-12</wgt>
  <wgt id="678">9.20797e-12</wgt>
  <wgt id="679">8.80304e-12</wgt>
  <wgt id="680">8.41056e-12</wgt>
  <wgt id="681">7.98292e-12</wgt>
  <wgt id="682">8.8035e-12</wgt>
  <wgt id="683">7.3858e-12</wgt>
  <wgt id="684">8.79105e-12</wgt>
  <wgt id="685">8.37837e-12</wgt>
  <wgt id="686">8.57488e-12</wgt>
  <wgt id="687">8.41633e-12</wgt>
  <wgt id="688">8.02255e-12</wgt>
  <wgt id="689">8.70571e-12</wgt>
  <wgt id="690">8.44397e-12</wgt>
  <wgt id="691">8.46886e-12</wgt>
  <wgt id="692">8.01484e-12</wgt>
  <wgt id="693">1.14048e-11</wgt>
  <wgt id="694">9.23568e-12</wgt>
  <wgt id="695">7.63725e-12</wgt>
  <wgt id="696">7.88451e-12</wgt>
  <wgt id="697">7.3002e-12</wgt>
  <wgt id="698">6.56322e-12</wgt>
  <wgt id="699">6.92654e-12</wgt>
  <wgt id="700">7.32476e-12</wgt>
  <wgt id="701">8.25731e-12</wgt>
  <wgt id="702">7.86891e-12</wgt>
  <wgt id="703">1.05688e-11</wgt>
  <wgt id="704">9.37097e-12</wgt>
  <wgt id="705">9.41872e-12</wgt>
  <wgt id="706">7.66032e-12</wgt>
  <wgt id="707">7.66668e-12</wgt>
  <wgt id="708">7.72761e-12</wgt>
  <wgt id="709">7.92725e-12</wgt>
  <wgt id="710">6.60128e-12</wgt>
  <wgt id="711">9.05256e-12</wgt>
  <wgt id="712">7.66071e-12</wgt>
  <wgt id="713">8.93748e-12</wgt>
  <wgt id="714">7.21148e-12</wgt>
  <wgt id="715">7.79649e-12</wgt>
  <wgt id="716">7.91189e-12</wgt>
  <wgt id="717">6.9801e-12</wgt>
  <wgt id="718">8.51573e-12</wgt>
  <wgt id="719">7.58475e-12</wgt>
  <wgt id="720">8.67532e-12</wgt>
  <wgt id="721">6.93363e-12</wgt>
  <wgt id="722">6.21597e-12</wgt>
  <wgt id="723">9.51258e-12</wgt>
  <wgt id="724">9.09664e-12</wgt>
  <wgt id="725">8.64249e-12</wgt>
  <wgt id="726">8.18381e-12</wgt>
  <wgt id="727">8.37826e-12</wgt>
  <wgt id="728">8.19656e-12</wgt>
  <wgt id="729">7.31944e-12</wgt>
  <wgt id="730">9.32569e-12</wgt>
  <wgt id="731">8.14226e-12</wgt>
  <wgt id="732">9.78846e-12</wgt>
  <wgt id="733">7.56301e-12</wgt>
  <wgt id="734">8.5821e-12</wgt>
  <wgt id="735">8.21567e-12</wgt>
  <wgt id="736">7.52381e-12</wgt>
  <wgt id="737">7.30632e-12</wgt>
  <wgt id="738">7.83483e-12</wgt>
  <wgt id="739">8.73495e-12</wgt>
  <wgt id="740">1.00223e-11</wgt>
  <wgt id="741">9.0365e-12</wgt>
  <wgt id="742">7.70742e-12</wgt>
  <wgt id="743">7.5048e-12</wgt>
  <wgt id="744">8.07812e-12</wgt>
  <wgt id="745">9.20134e-12</wgt>
  <wgt id="746">9.48415e-12</wgt>
  <wgt id="747">6.68958e-12</wgt>
  <wgt id="748">7.91607e-12</wgt>
  <wgt id="749">8.60064e-12</wgt>
  <wgt id="750">9.06065e-12</wgt>
  <wgt id="751">8.31842e-12</wgt>
  <wgt id="752">7.36719e-12</wgt>
  <wgt id="753">7.28282e-12</wgt>
  <wgt id="754">8.70385e-12</wgt>
  <wgt id="755">7.99318e-12</wgt>
  <wgt id="756">7.94094e-12</wgt>
  <wgt id="757">6.96012e-12</wgt>
  <wgt id="758">7.9643e-12</wgt>
  <wgt id="759">9.17719e-12</wgt>
  <wgt id="760">7.75852e-12</wgt>
  <wgt id="761">9.35346e-12</wgt>
  <wgt id="762">9.40788e-12</wgt>
  <wgt id="763">8.63304e-12</wgt>
  <wgt id="764">8.96964e-12</wgt>
  <wgt id="765">8.48482e-12</wgt>
  <wgt id="766">8.4528e-12</wgt>
  <wgt id="767">8.47212e-12</wgt>
  <wgt id="768">7.40528e-12</wgt>
  <wgt id="769">8.67041e-12</wgt>
  <wgt id="770">7.55894e-12</wgt>
  <wgt id="771">1.03217e-11</wgt>
  <wgt id="772">8.08286e-12</wgt>
  <wgt id="773">8.38204e-12</wgt>
  <wgt id="774">6.3883e-12</wgt>
  <wgt id="775">8.71104e-12</wgt>
  <wgt id="776">9.89946e-12</wgt>
  <wgt id="777">7.05998e-12</wgt>
  <wgt id="778">5.14189e-12</wgt>
  <wgt id="779">2.73291e-12</wgt>
  <wgt id="780">1.22361e-12</wgt>
  <wgt id="781">5.80761e-12</wgt>
  <wgt id="782">6.42852e-12</wgt>
  <wgt id="783">2.14692e-12</wgt>
  <wgt id="784">3.15847e-12</wgt>
  <wgt id="785">8.06626e-12</wgt>
  <wgt id="786">2.10233e-12</wgt>
  <wgt id="787">7.08464e-12</wgt>
  <wgt id="788">1.89927e-20</wgt>
  <wgt id="789">3.14978e-12</wgt>
  <wgt id="790">2.29593e-12</wgt>
  <wgt id="791">6.31647e-12</wgt>
  <wgt id="792">7.12059e-12</wgt>
  <wgt id="793">4.59914e-12</wgt>
  <wgt id="794">1.93347e-12</wgt>
  <wgt id="795">7.63439e-12</wgt>
  <wgt id="796">7.79714e-12</wgt>
  <wgt id="797">6.89061e-12</wgt>
  <wgt id="798">3.54636e-12</wgt>
  <wgt id="799">6.97743e-12</wgt>
  <wgt id="800">3.70002e-12</wgt>
  <wgt id="801">5.33756e-12</wgt>
  <wgt id="802">1.85426e-12</wgt>
  <wgt id="803">8.61524e-12</wgt>
  <wgt id="804">7.82047e-12</wgt>
  <wgt id="805">7.37036e-12</wgt>
  <wgt id="806">5.87347e-12</wgt>
  <wgt id="807">5.16546e-12</wgt>
  <wgt id="808">5.00796e-12</wgt>
  <wgt id="809">4.53714e-12</wgt>
  <wgt id="810">7.02292e-12</wgt>
  <wgt id="811">5.41904e-12</wgt>
  <wgt id="812">2.3522e-12</wgt>
  <wgt id="813">2.62012e-12</wgt>
  <wgt id="814">3.23134e-12</wgt>
  <wgt id="815">2.29016e-12</wgt>
  <wgt id="816">2.93245e-12</wgt>
  <wgt id="817">5.27302e-12</wgt>
  <wgt id="818">7.64332e-12</wgt>
  <wgt id="819">2.63798e-12</wgt>
  <wgt id="820">4.68987e-12</wgt>
  <wgt id="821">6.50715e-12</wgt>
  <wgt id="822">4.02979e-12</wgt>
  <wgt id="823">7.05083e-12</wgt>
  <wgt id="824">7.96238e-12</wgt>
  <wgt id="825">1.54907e-12</wgt>
  <wgt id="826">7.12091e-12</wgt>
  <wgt id="827">1.59163e-12</wgt>
  <wgt id="828">6.80614e-12</wgt>
  <wgt id="829">5.34926e-12</wgt>
  <wgt id="830">1.52275e-12</wgt>
  <wgt id="831">6.47841e-12</wgt>
  <wgt id="832">9.9538e-12</wgt>
  <wgt id="833">3.81023e-12</wgt>
  <wgt id="834">9.86966e-12</wgt>
  <wgt id="835">3.14839e-12</wgt>
  <wgt id="836">3.84046e-12</wgt>
  <wgt id="837">6.33476e-12</wgt>
  <wgt id="838">3.7183e-12</wgt>
  <wgt id="839">6.53469e-12</wgt>
  <wgt id="840">4.23482e-12</wgt>
  <wgt id="841">7.77222e-12</wgt>
  <wgt id="842">5.43642e-12</wgt>
  <wgt id="843">5.69228e-12</wgt>
  <wgt id="844">6.05171e-12</wgt>
  <wgt id="845">1.0358e-11</wgt>
  <wgt id="846">4.86815e-12</wgt>
  <wgt id="847">5.79025e-12</wgt>
  <wgt id="848">2.383e-12</wgt>
  <wgt id="849">5.95361e-12</wgt>
  <wgt id="850">8.7464e-12</wgt>
  <wgt id="851">6.46919e-12</wgt>
  <wgt id="852">1.69514e-12</wgt>
  <wgt id="853">6.84352e-12</wgt>
  <wgt id="854">7.91938e-12</wgt>
  <wgt id="855">6.62494e-12</wgt>
  <wgt id="856">1.4735e-12</wgt>
  <wgt id="857">4.12647e-12</wgt>
  <wgt id="858">5.00961e-12</wgt>
  <wgt id="859">5.02376e-12</wgt>
  <wgt id="860">7.09201e-12</wgt>
  <wgt id="861">3.97903e-12</wgt>
  <wgt id="862">5.40833e-12</wgt>
  <wgt id="863">6.32146e-12</wgt>
  <wgt id="864">5.3064e-12</wgt>
  <wgt id="865">9.02796e-12</wgt>
  <wgt id="866">1.00191e-11</wgt>
  <wgt id="867">5.22667e-12</wgt>
  <wgt id="868">5.60623e-12</wgt>
  <wgt id="869">2.23232e-12</wgt>
  <wgt id="870">3.14058e-12</wgt>
  <wgt id="871">3.40855e-12</wgt>
  <wgt id="872">8.30051e-12</wgt>
  <wgt id="873">3.86956e-12</wgt>
  <wgt id="874">5.99486e-12</wgt>
  <wgt id="875">3.59651e-12</wgt>
  <wgt id="876">7.7769e-12</wgt>
  <wgt id="877">6.0698e-12</wgt>
  <wgt id="878">4.0645e-12</wgt>
  <wgt id="879">8.27452e-12</wgt>
  <wgt id="880">8.35872e-12</wgt>
  <wgt id="881">9.20797e-12</wgt>
  <wgt id="882">8.80304e-12</wgt>
  <wgt id="883">8.41056e-12</wgt>
  <wgt id="884">7.98292e-12</wgt>
  <wgt id="885">8.8035e-12</wgt>
  <wgt id="886">7.3858e-12</wgt>
  <wgt id="887">8.79105e-12</wgt>
  <wgt id="888">8.37837e-12</wgt>
  <wgt id="889">8.57488e-12</wgt>
  <wgt id="890">8.41633e-12</wgt>
  <wgt id="891">8.02255e-12</wgt>
  <wgt id="892">8.70571e-12</wgt>
  <wgt id="893">8.44397e-12</wgt>
  <wgt id="894">8.46886e-12</wgt>
  <wgt id="895">8.01484e-12</wgt>
  <wgt id="896">1.14048e-11</wgt>
  <wgt id="897">9.23568e-12</wgt>
  <wgt id="898">7.63725e-12</wgt>
  <wgt id="899">7.88451e-12</wgt>
  <wgt id="900">7.3002e-12</wgt>
  <wgt id="901">6.56322e-12</wgt>
  <wgt id="902">6.92654e-12</wgt>
  <wgt id="903">7.32476e-12</wgt>
  <wgt id="904">8.25731e-12</wgt>
  <wgt id="905">7.86891e-12</wgt>
  <wgt id="906">1.05688e-11</wgt>
  <wgt id="907">9.37097e-12</wgt>
  <wgt id="908">9.41872e-12</wgt>
  <wgt id="909">7.66032e-12</wgt>
  <wgt id="910">7.66668e-12</wgt>
  <wgt id="911">7.72761e-12</wgt>
  <wgt id="912">7.92725e-12</wgt>
  <wgt id="913">6.60128e-12</wgt>
  <wgt id="914">9.05256e-12</wgt>
  <wgt id="915">7.66071e-12</wgt>
  <wgt id="916">8.93748e-12</wgt>
  <wgt id="917">7.21148e-12</wgt>
  <wgt id="918">7.79649e-12</wgt>
  <wgt id="919">7.91189e-12</wgt>
  <wgt id="920">6.9801e-12</wgt>
  <wgt id="921">8.51573e-12</wgt>
  <wgt id="922">7.58475e-12</wgt>
  <wgt id="923">8.67532e-12</wgt>
  <wgt id="924">6.93363e-12</wgt>
  <wgt id="925">6.21597e-12</wgt>
  <wgt id="926">9.51258e-12</wgt>
  <wgt id="927">9.09664e-12</wgt>
  <wgt id="928">8.64249e-12</wgt>
  <wgt id="929">8.18381e-12</wgt>
  <wgt id="930">8.37826e-12</wgt>
  <wgt id="931">8.19656e-12</wgt>
  <wgt id="932">7.31944e-12</wgt>
  <wgt id="933">9.32569e-12</wgt>
  <wgt id="934">8.14226e-12</wgt>
  <wgt id="935">9.78846e-12</wgt>
  <wgt id="936">7.56301e-12</wgt>
  <wgt id="937">8.5821e-12</wgt>
  <wgt id="938">8.21567e-12</wgt>
  <wgt id="939">7.52381e-12</wgt>
  <wgt id="940">7.30632e-12</wgt>
  <wgt id="941">7.83483e-12</wgt>
  <wgt id="942">8.73495e-12</wgt>
  <wgt id="943">1.00223e-11</wgt>
  <wgt id="944">9.0365e-12</wgt>
  <wgt id="945">7.70742e-12</wgt>
  <wgt id="946">7.5048e-12</wgt>
  <wgt id="947">8.07812e-12</wgt>
  <wgt id="948">9.20134e-12</wgt>
  <wgt id="949">9.48415e-12</wgt>
  <wgt id="950">6.68958e-12</wgt>
  <wgt id="951">7.91607e-12</wgt>
  <wgt id="952">8.60064e-12</wgt>
  <wgt id="953">9.06065e-12</wgt>
  <wgt id="954">8.31842e-12</wgt>
  <wgt id="955">7.36719e-12</wgt>
  <wgt id="956">7.28282e-12</wgt>
  <wgt id="957">8.70385e-12</wgt>
  <wgt id="958">7.99318e-12</wgt>
  <wgt id="959">7.94094e-12</wgt>
  <wgt id="960">6.96012e-12</wgt>
  <wgt id="961">7.9643e-12</wgt>
  <wgt id="962">9.17719e-12</wgt>
  <wgt id="963">7.75852e-12</wgt>
  <wgt id="964">9.35346e-12</wgt>
  <wgt id="965">9.40788e-12</wgt>
  <wgt id="966">8.63304e-12</wgt>
  <wgt id="967">8.96964e-12</wgt>
  <wgt id="968">8.48482e-12</wgt>
  <wgt id="969">8.4528e-12</wgt>
  <wgt id="970">8.47212e-12</wgt>
  <wgt id="971">7.40528e-12</wgt>
  <wgt id="972">8.67041e-12</wgt>
  <wgt id="973">7.55894e-12</wgt>
  <wgt id="974">1.03217e-11</wgt>
  <wgt id="975">8.08286e-12</wgt>
  <wgt id="976">8.38204e-12</wgt>
  <wgt id="977">6.3883e-12</wgt>
  <wgt id="978">8.71104e-12</wgt>
  <wgt id="979">9.89946e-12</wgt>
  <wgt id="980">8.20585e-12</wgt>
  <wgt id="981">8.52199e-12</wgt>
  <wgt id="982">8.03607e-12</wgt>
</rwgt>
</event>
<event>
 5   1  0.5790000E-11  0.2213564E+04  0.7818608E-02  0.7743779E-01
       21   -1    0    0  502  501  0.00000000000E+00  0.00000000000E+00  0.71646544966E+03  0.71646544966E+03  0.00000000000E+00 0. -1.
       21   -1    0    0  501  502 -0.00000000000E+00 -0.00000000000E+00 -0.17097347148E+04  0.17097347148E+04  0.00000000000E+00 0.  1.
       39    2    1    2    0    0  0.00000000000E+00  0.00000000000E+00 -0.99326926510E+03  0.24262001644E+04  0.22135635082E+04 0.  0.
       25    1    3    3    0    0  0.44758563114E+03  0.58411995332E+02  0.60248865175E+03  0.76312674825E+03  0.12500000000E+03 0.  0.
       25    1    3    3    0    0 -0.44758563114E+03 -0.58411995332E+02 -0.15957579168E+04  0.16630734162E+04  0.12500000000E+03 0.  0.
<mgrwt>
<rscale>  0 0.22135635E+04</rscale>
<asrwt>0</asrwt>
<pdfrwt beam="1">  1       21 0.11022546E+00 0.22135635E+04</pdfrwt>
<pdfrwt beam="2">  1       21 0.26303611E+00 0.22135635E+04</pdfrwt>
<totfact> 0.13649351E+01</totfact>
</mgrwt>
<rwgt>
  <wgt id="1">5.79e-12</wgt>
  <wgt id="2">5.03781e-12</wgt>
  <wgt id="3">6.7239e-12</wgt>
  <wgt id="4">5.79e-12</wgt>
  <wgt id="5">5.03781e-12</wgt>
  <wgt id="6">6.7239e-12</wgt>
  <wgt id="7">5.79e-12</wgt>
  <wgt id="8">5.03781e-12</wgt>
  <wgt id="9">6.7239e-12</wgt>
  <wgt id="10">6.01609e-12</wgt>
  <wgt id="11">6.01259e-12</wgt>
  <wgt id="12">6.00648e-12</wgt>
  <wgt id="13">5.99906e-12</wgt>
  <wgt id="14">6.03795e-12</wgt>
  <wgt id="15">6.02644e-12</wgt>
  <wgt id="16">6.00706e-12</wgt>
  <wgt id="17">6.03679e-12</wgt>
  <wgt id="18">6.00627e-12</wgt>
  <wgt id="19">6.03141e-12</wgt>
  <wgt id="20">6.00517e-12</wgt>
  <wgt id="21">5.97172e-12</wgt>
  <wgt id="22">5.98145e-12</wgt>
  <wgt id="23">5.9455e-12</wgt>
  <wgt id="24">5.9796e-12</wgt>
  <wgt id="25">5.99691e-12</wgt>
  <wgt id="26">6.03479e-12</wgt>
  <wgt id="27">6.01058e-12</wgt>
  <wgt id="28">5.98312e-12</wgt>
  <wgt id="29">6.01968e-12</wgt>
  <wgt id="30">5.98211e-12</wgt>
  <wgt id="31">6.04096e-12</wgt>
  <wgt id="32">5.99132e-12</wgt>
  <wgt id="33">6.0271e-12</wgt>
  <wgt id="34">5.98641e-12</wgt>
  <wgt id="35">5.99699e-12</wgt>
  <wgt id="36">6.03879e-12</wgt>
  <wgt id="37">5.99921e-12</wgt>
  <wgt id="38">5.99653e-12</wgt>
  <wgt id="39">6.09821e-12</wgt>
  <wgt id="40">6.02109e-12</wgt>
  <wgt id="41">6.01291e-12</wgt>
  <wgt id="42">6.02506e-12</wgt>
  <wgt id="43">6.01516e-12</wgt>
  <wgt id="44">6.02149e-12</wgt>
  <wgt id="45">6.02674e-12</wgt>
  <wgt id="46">6.01028e-12</wgt>
  <wgt id="47">6.02901e-12</wgt>
  <wgt id="48">6.02291e-12</wgt>
  <wgt id="49">5.99604e-12</wgt>
  <wgt id="50">6.00577e-12</wgt>
  <wgt id="51">6.00986e-12</wgt>
  <wgt id="52">6.0283e-12</wgt>
  <wgt id="53">6.00619e-12</wgt>
  <wgt id="54">6.02109e-12</wgt>
  <wgt id="55">6.01575e-12</wgt>
  <wgt id="56">6.03292e-12</wgt>
  <wgt id="57">6.01964e-12</wgt>
  <wgt id="58">5.99661e-12</wgt>
  <wgt id="59">6.00687e-12</wgt>
  <wgt id="60">6.01204e-12</wgt>
  <wgt id="61">5.9807e-12</wgt>
  <wgt id="62">5.99536e-12</wgt>
  <wgt id="63">6.00758e-12</wgt>
  <wgt id="64">6.01644e-12</wgt>
  <wgt id="65">6.01985e-12</wgt>
  <wgt id="66">6.01058e-12</wgt>
  <wgt id="67">5.98746e-12</wgt>
  <wgt id="68">6.0146e-12</wgt>
  <wgt id="69">6.01558e-12</wgt>
  <wgt id="70">6.01612e-12</wgt>
  <wgt id="71">6.01199e-12</wgt>
  <wgt id="72">5.99485e-12</wgt>
  <wgt id="73">6.02828e-12</wgt>
  <wgt id="74">6.02116e-12</wgt>
  <wgt id="75">6.01166e-12</wgt>
  <wgt id="76">6.03569e-12</wgt>
  <wgt id="77">6.01181e-12</wgt>
  <wgt id="78">6.01277e-12</wgt>
  <wgt id="79">6.03241e-12</wgt>
  <wgt id="80">5.98736e-12</wgt>
  <wgt id="81">6.01458e-12</wgt>
  <wgt id="82">6.01737e-12</wgt>
  <wgt id="83">5.99164e-12</wgt>
  <wgt id="84">6.00832e-12</wgt>
  <wgt id="85">6.00009e-12</wgt>
  <wgt id="86">6.03498e-12</wgt>
  <wgt id="87">5.97945e-12</wgt>
  <wgt id="88">6.02348e-12</wgt>
  <wgt id="89">6.02078e-12</wgt>
  <wgt id="90">6.03257e-12</wgt>
  <wgt id="91">6.0229e-12</wgt>
  <wgt id="92">6.02868e-12</wgt>
  <wgt id="93">6.02236e-12</wgt>
  <wgt id="94">6.00916e-12</wgt>
  <wgt id="95">6.03116e-12</wgt>
  <wgt id="96">6.02305e-12</wgt>
  <wgt id="97">6.00098e-12</wgt>
  <wgt id="98">6.01798e-12</wgt>
  <wgt id="99">6.00261e-12</wgt>
  <wgt id="100">6.02669e-12</wgt>
  <wgt id="101">6.01794e-12</wgt>
  <wgt id="102">6.0124e-12</wgt>
  <wgt id="103">6.02766e-12</wgt>
  <wgt id="104">6.0112e-12</wgt>
  <wgt id="105">6.02579e-12</wgt>
  <wgt id="106">6.00537e-12</wgt>
  <wgt id="107">6.03824e-12</wgt>
  <wgt id="108">6.00776e-12</wgt>
  <wgt id="109">6.02013e-12</wgt>
  <wgt id="110">6.01505e-12</wgt>
  <wgt id="111">6.0563e-12</wgt>
  <wgt id="112">6.04733e-12</wgt>
  <wgt id="113">8.22723e-12</wgt>
  <wgt id="114">8.20522e-12</wgt>
  <wgt id="115">8.07021e-12</wgt>
  <wgt id="116">1.10457e-11</wgt>
  <wgt id="117">6.63736e-12</wgt>
  <wgt id="118">6.65989e-12</wgt>
  <wgt id="119">6.62449e-12</wgt>
  <wgt id="120">6.6379e-12</wgt>
  <wgt id="121">6.63699e-12</wgt>
  <wgt id="122">6.62596e-12</wgt>
  <wgt id="123">6.65302e-12</wgt>
  <wgt id="124">6.62798e-12</wgt>
  <wgt id="125">6.64332e-12</wgt>
  <wgt id="126">6.64773e-12</wgt>
  <wgt id="127">6.6304e-12</wgt>
  <wgt id="128">6.65785e-12</wgt>
  <wgt id="129">6.61692e-12</wgt>
  <wgt id="130">6.67309e-12</wgt>
  <wgt id="131">6.60041e-12</wgt>
  <wgt id="132">6.46368e-12</wgt>
  <wgt id="133">6.84279e-12</wgt>
  <wgt id="134">6.56757e-12</wgt>
  <wgt id="135">6.6919e-12</wgt>
  <wgt id="136">6.72602e-12</wgt>
  <wgt id="137">6.53039e-12</wgt>
  <wgt id="138">6.90353e-12</wgt>
  <wgt id="139">6.38139e-12</wgt>
  <wgt id="140">6.59745e-12</wgt>
  <wgt id="141">6.6683e-12</wgt>
  <wgt id="142">6.63721e-12</wgt>
  <wgt id="143">6.65072e-12</wgt>
  <wgt id="144">6.42904e-12</wgt>
  <wgt id="145">6.83329e-12</wgt>
  <wgt id="146">6.70298e-12</wgt>
  <wgt id="147">6.58475e-12</wgt>
  <wgt id="148">6.65881e-12</wgt>
  <wgt id="149">6.63584e-12</wgt>
  <wgt id="150">6.69327e-12</wgt>
  <wgt id="151">6.61113e-12</wgt>
  <wgt id="152">6.63972e-12</wgt>
  <wgt id="153">6.63651e-12</wgt>
  <wgt id="154">6.67841e-12</wgt>
  <wgt id="155">6.58381e-12</wgt>
  <wgt id="156">6.79237e-12</wgt>
  <wgt id="157">6.48185e-12</wgt>
  <wgt id="158">7.97955e-12</wgt>
  <wgt id="159">8.01286e-12</wgt>
  <wgt id="160">7.95245e-12</wgt>
  <wgt id="161">7.96013e-12</wgt>
  <wgt id="162">8.00068e-12</wgt>
  <wgt id="163">7.97081e-12</wgt>
  <wgt id="164">7.99163e-12</wgt>
  <wgt id="165">7.98241e-12</wgt>
  <wgt id="166">7.97693e-12</wgt>
  <wgt id="167">7.97365e-12</wgt>
  <wgt id="168">7.9874e-12</wgt>
  <wgt id="169">7.94548e-12</wgt>
  <wgt id="170">8.00052e-12</wgt>
  <wgt id="171">7.97187e-12</wgt>
  <wgt id="172">7.98951e-12</wgt>
  <wgt id="173">7.97387e-12</wgt>
  <wgt id="174">7.98114e-12</wgt>
  <wgt id="175">7.7577e-12</wgt>
  <wgt id="176">8.26806e-12</wgt>
  <wgt id="177">8.01872e-12</wgt>
  <wgt id="178">7.94332e-12</wgt>
  <wgt id="179">8.32898e-12</wgt>
  <wgt id="180">7.4311e-12</wgt>
  <wgt id="181">7.7414e-12</wgt>
  <wgt id="182">8.13705e-12</wgt>
  <wgt id="183">7.83439e-12</wgt>
  <wgt id="184">8.05113e-12</wgt>
  <wgt id="185">7.90674e-12</wgt>
  <wgt id="186">8.06623e-12</wgt>
  <wgt id="187">7.90183e-12</wgt>
  <wgt id="188">8.11742e-12</wgt>
  <wgt id="189">7.9253e-12</wgt>
  <wgt id="190">8.0013e-12</wgt>
  <wgt id="191">8.00308e-12</wgt>
  <wgt id="192">7.9651e-12</wgt>
  <wgt id="193">8.09613e-12</wgt>
  <wgt id="194">7.92113e-12</wgt>
  <wgt id="195">7.76573e-12</wgt>
  <wgt id="196">8.35064e-12</wgt>
  <wgt id="197">8.01944e-12</wgt>
  <wgt id="198">7.96975e-12</wgt>
  <wgt id="199">7.97955e-12</wgt>
  <wgt id="200">8.04972e-12</wgt>
  <wgt id="201">8.02458e-12</wgt>
  <wgt id="202">8.00069e-12</wgt>
  <wgt id="203">7.96461e-12</wgt>
  <wgt id="204">7.94734e-12</wgt>
  <wgt id="205">7.93283e-12</wgt>
  <wgt id="206">7.78237e-12</wgt>
  <wgt id="207">7.82817e-12</wgt>
  <wgt id="208">7.73729e-12</wgt>
  <wgt id="209">7.80443e-12</wgt>
  <wgt id="210">7.76638e-12</wgt>
  <wgt id="211">7.77994e-12</wgt>
  <wgt id="212">7.78424e-12</wgt>
  <wgt id="213">7.78166e-12</wgt>
  <wgt id="214">7.78345e-12</wgt>
  <wgt id="215">7.78767e-12</wgt>
  <wgt id="216">7.77857e-12</wgt>
  <wgt id="217">7.80231e-12</wgt>
  <wgt id="218">7.76714e-12</wgt>
  <wgt id="219">7.77237e-12</wgt>
  <wgt id="220">7.7884e-12</wgt>
  <wgt id="221">7.78151e-12</wgt>
  <wgt id="222">7.78355e-12</wgt>
  <wgt id="223">7.37069e-12</wgt>
  <wgt id="224">8.15813e-12</wgt>
  <wgt id="225">7.69078e-12</wgt>
  <wgt id="226">7.89813e-12</wgt>
  <wgt id="227">7.71024e-12</wgt>
  <wgt id="228">7.8141e-12</wgt>
  <wgt id="229">7.67588e-12</wgt>
  <wgt id="230">7.83525e-12</wgt>
  <wgt id="231">8.01402e-12</wgt>
  <wgt id="232">7.59203e-12</wgt>
  <wgt id="233">7.74018e-12</wgt>
  <wgt id="234">7.85051e-12</wgt>
  <wgt id="235">7.57752e-12</wgt>
  <wgt id="236">7.96176e-12</wgt>
  <wgt id="237">7.65286e-12</wgt>
  <wgt id="238">7.82607e-12</wgt>
  <wgt id="239">7.72777e-12</wgt>
  <wgt id="240">7.88073e-12</wgt>
  <wgt id="241">7.70034e-12</wgt>
  <wgt id="242">7.88042e-12</wgt>
  <wgt id="243">7.88216e-12</wgt>
  <wgt id="244">7.81087e-12</wgt>
  <wgt id="245">7.77738e-12</wgt>
  <wgt id="246">7.83475e-12</wgt>
  <wgt id="247">7.78237e-12</wgt>
  <wgt id="248">7.85436e-12</wgt>
  <wgt id="249">7.82831e-12</wgt>
  <wgt id="250">7.80259e-12</wgt>
  <wgt id="251">7.76557e-12</wgt>
  <wgt id="252">7.7477e-12</wgt>
  <wgt id="253">7.73479e-12</wgt>
  <wgt id="254">7.5735e-12</wgt>
  <wgt id="255">7.58048e-12</wgt>
  <wgt id="256">7.56588e-12</wgt>
  <wgt id="257">7.57944e-12</wgt>
  <wgt id="258">7.56914e-12</wgt>
  <wgt id="259">7.62385e-12</wgt>
  <wgt id="260">7.52479e-12</wgt>
  <wgt id="261">7.58327e-12</wgt>
  <wgt id="262">7.5619e-12</wgt>
  <wgt id="263">7.56957e-12</wgt>
  <wgt id="264">7.57801e-12</wgt>
  <wgt id="265">7.56503e-12</wgt>
  <wgt id="266">7.5903e-12</wgt>
  <wgt id="267">7.57588e-12</wgt>
  <wgt id="268">7.57006e-12</wgt>
  <wgt id="269">7.59617e-12</wgt>
  <wgt id="270">7.55811e-12</wgt>
  <wgt id="271">7.55765e-12</wgt>
  <wgt id="272">7.59101e-12</wgt>
  <wgt id="273">7.55213e-12</wgt>
  <wgt id="274">7.58967e-12</wgt>
  <wgt id="275">7.53792e-12</wgt>
  <wgt id="276">7.61022e-12</wgt>
  <wgt id="277">7.53048e-12</wgt>
  <wgt id="278">7.61302e-12</wgt>
  <wgt id="279">7.43525e-12</wgt>
  <wgt id="280">7.74708e-12</wgt>
  <wgt id="281">7.5411e-12</wgt>
  <wgt id="282">7.57714e-12</wgt>
  <wgt id="283">7.35336e-12</wgt>
  <wgt id="284">7.8453e-12</wgt>
  <wgt id="285">7.20724e-12</wgt>
  <wgt id="286">7.878e-12</wgt>
  <wgt id="287">7.59785e-12</wgt>
  <wgt id="288">7.54228e-12</wgt>
  <wgt id="289">7.62782e-12</wgt>
  <wgt id="290">7.44924e-12</wgt>
  <wgt id="291">7.55049e-12</wgt>
  <wgt id="292">7.57705e-12</wgt>
  <wgt id="293">7.51408e-12</wgt>
  <wgt id="294">7.63239e-12</wgt>
  <wgt id="295">7.42811e-12</wgt>
  <wgt id="296">7.75103e-12</wgt>
  <wgt id="297">7.56854e-12</wgt>
  <wgt id="298">7.60314e-12</wgt>
  <wgt id="299">7.54959e-12</wgt>
  <wgt id="300">7.63677e-12</wgt>
  <wgt id="301">7.46248e-12</wgt>
  <wgt id="302">7.8488e-12</wgt>
  <wgt id="303">7.51153e-12</wgt>
  <wgt id="304">7.60878e-12</wgt>
  <wgt id="305">7.56947e-12</wgt>
  <wgt id="306">7.57666e-12</wgt>
  <wgt id="307">7.56146e-12</wgt>
  <wgt id="308">7.57595e-12</wgt>
  <wgt id="309">7.56489e-12</wgt>
  <wgt id="310">7.62134e-12</wgt>
  <wgt id="311">7.52113e-12</wgt>
  <wgt id="312">7.57715e-12</wgt>
  <wgt id="313">7.5611e-12</wgt>
  <wgt id="314">7.56535e-12</wgt>
  <wgt id="315">7.57306e-12</wgt>
  <wgt id="316">7.56119e-12</wgt>
  <wgt id="317">7.58722e-12</wgt>
  <wgt id="318">7.57452e-12</wgt>
  <wgt id="319">7.56015e-12</wgt>
  <wgt id="320">7.59329e-12</wgt>
  <wgt id="321">7.55596e-12</wgt>
  <wgt id="322">7.55027e-12</wgt>
  <wgt id="323">7.59145e-12</wgt>
  <wgt id="324">7.55226e-12</wgt>
  <wgt id="325">7.58414e-12</wgt>
  <wgt id="326">7.54049e-12</wgt>
  <wgt id="327">7.60627e-12</wgt>
  <wgt id="328">7.53006e-12</wgt>
  <wgt id="329">7.59168e-12</wgt>
  <wgt id="330">7.78302e-12</wgt>
  <wgt id="331">7.36555e-12</wgt>
  <wgt id="332">7.54247e-12</wgt>
  <wgt id="333">7.57104e-12</wgt>
  <wgt id="334">7.39828e-12</wgt>
  <wgt id="335">7.78232e-12</wgt>
  <wgt id="336">7.30537e-12</wgt>
  <wgt id="337">7.89197e-12</wgt>
  <wgt id="338">7.65457e-12</wgt>
  <wgt id="339">7.49038e-12</wgt>
  <wgt id="340">7.61998e-12</wgt>
  <wgt id="341">7.44094e-12</wgt>
  <wgt id="342">7.553e-12</wgt>
  <wgt id="343">7.56046e-12</wgt>
  <wgt id="344">7.51603e-12</wgt>
  <wgt id="345">7.63115e-12</wgt>
  <wgt id="346">7.41898e-12</wgt>
  <wgt id="347">7.74206e-12</wgt>
  <wgt id="348">7.56729e-12</wgt>
  <wgt id="349">7.59416e-12</wgt>
  <wgt id="350">7.53933e-12</wgt>
  <wgt id="351">7.64542e-12</wgt>
  <wgt id="352">7.45137e-12</wgt>
  <wgt id="353">7.84987e-12</wgt>
  <wgt id="354">7.47758e-12</wgt>
  <wgt id="355">7.62511e-12</wgt>
  <wgt id="356">7.5735e-12</wgt>
  <wgt id="357">7.59263e-12</wgt>
  <wgt id="358">7.56947e-12</wgt>
  <wgt id="359">7.59166e-12</wgt>
  <wgt id="360">7.64712e-12</wgt>
  <wgt id="361">7.60161e-12</wgt>
  <wgt id="362">7.73541e-12</wgt>
  <wgt id="363">7.71735e-12</wgt>
  <wgt id="364">7.6881e-12</wgt>
  <wgt id="365">7.66203e-12</wgt>
  <wgt id="366">7.63375e-12</wgt>
  <wgt id="367">7.57674e-12</wgt>
  <wgt id="368">7.54367e-12</wgt>
  <wgt id="369">7.50806e-12</wgt>
  <wgt id="370">7.60161e-12</wgt>
  <wgt id="371">7.6343e-12</wgt>
  <wgt id="372">7.61621e-12</wgt>
  <wgt id="373">7.58976e-12</wgt>
  <wgt id="374">7.59116e-12</wgt>
  <wgt id="375">8.27812e-12</wgt>
  <wgt id="376">8.27884e-12</wgt>
  <wgt id="377">8.27716e-12</wgt>
  <wgt id="378">8.3084e-12</wgt>
  <wgt id="379">8.24829e-12</wgt>
  <wgt id="380">8.30123e-12</wgt>
  <wgt id="381">8.26908e-12</wgt>
  <wgt id="382">8.31782e-12</wgt>
  <wgt id="383">8.239e-12</wgt>
  <wgt id="384">8.28337e-12</wgt>
  <wgt id="385">8.27289e-12</wgt>
  <wgt id="386">8.30764e-12</wgt>
  <wgt id="387">8.26565e-12</wgt>
  <wgt id="388">8.27083e-12</wgt>
  <wgt id="389">8.28728e-12</wgt>
  <wgt id="390">8.2987e-12</wgt>
  <wgt id="391">8.25642e-12</wgt>
  <wgt id="392">8.21432e-12</wgt>
  <wgt id="393">8.31458e-12</wgt>
  <wgt id="394">8.2874e-12</wgt>
  <wgt id="395">8.26552e-12</wgt>
  <wgt id="396">8.28598e-12</wgt>
  <wgt id="397">8.27264e-12</wgt>
  <wgt id="398">8.25368e-12</wgt>
  <wgt id="399">8.30198e-12</wgt>
  <wgt id="400">8.26615e-12</wgt>
  <wgt id="401">8.30547e-12</wgt>
  <wgt id="402">8.21103e-12</wgt>
  <wgt id="403">8.31189e-12</wgt>
  <wgt id="404">8.47851e-12</wgt>
  <wgt id="405">7.79682e-12</wgt>
  <wgt id="406">8.1335e-12</wgt>
  <wgt id="407">8.59486e-12</wgt>
  <wgt id="408">8.35294e-12</wgt>
  <wgt id="409">8.13703e-12</wgt>
  <wgt id="410">8.04162e-12</wgt>
  <wgt id="411">8.38918e-12</wgt>
  <wgt id="412">8.26235e-12</wgt>
  <wgt id="413">8.30162e-12</wgt>
  <wgt id="414">8.18358e-12</wgt>
  <wgt id="415">8.35157e-12</wgt>
  <wgt id="416">8.50864e-12</wgt>
  <wgt id="417">7.95978e-12</wgt>
  <wgt id="418">8.29089e-12</wgt>
  <wgt id="419">8.20875e-12</wgt>
  <wgt id="420">8.4155e-12</wgt>
  <wgt id="421">8.19443e-12</wgt>
  <wgt id="422">8.25668e-12</wgt>
  <wgt id="423">8.28954e-12</wgt>
  <wgt id="424">8.4602e-12</wgt>
  <wgt id="425">8.15975e-12</wgt>
  <wgt id="426">8.27812e-12</wgt>
  <wgt id="427">8.17919e-12</wgt>
  <wgt id="428">8.5343e-12</wgt>
  <wgt id="429">8.3611e-12</wgt>
  <wgt id="430">8.60022e-12</wgt>
  <wgt id="431">8.55265e-12</wgt>
  <wgt id="432">8.50778e-12</wgt>
  <wgt id="433">8.46426e-12</wgt>
  <wgt id="434">8.41035e-12</wgt>
  <wgt id="435">8.29984e-12</wgt>
  <wgt id="436">8.24338e-12</wgt>
  <wgt id="437">8.18927e-12</wgt>
  <wgt id="438">8.3611e-12</wgt>
  <wgt id="439">8.38773e-12</wgt>
  <wgt id="440">8.37171e-12</wgt>
  <wgt id="441">8.35318e-12</wgt>
  <wgt id="442">8.34681e-12</wgt>
  <wgt id="443">7.93011e-12</wgt>
  <wgt id="444">7.98766e-12</wgt>
  <wgt id="445">7.9477e-12</wgt>
  <wgt id="446">7.87492e-12</wgt>
  <wgt id="447">7.92081e-12</wgt>
  <wgt id="448">7.73304e-12</wgt>
  <wgt id="449">8.0626e-12</wgt>
  <wgt id="450">7.95903e-12</wgt>
  <wgt id="451">7.91343e-12</wgt>
  <wgt id="452">8.1006e-12</wgt>
  <wgt id="453">8.00437e-12</wgt>
  <wgt id="454">7.58509e-12</wgt>
  <wgt id="455">7.96269e-12</wgt>
  <wgt id="456">7.95163e-12</wgt>
  <wgt id="457">7.95669e-12</wgt>
  <wgt id="458">8.0423e-12</wgt>
  <wgt id="459">7.99308e-12</wgt>
  <wgt id="460">8.02126e-12</wgt>
  <wgt id="461">7.77139e-12</wgt>
  <wgt id="462">7.87573e-12</wgt>
  <wgt id="463">7.82778e-12</wgt>
  <wgt id="464">7.89185e-12</wgt>
  <wgt id="465">8.01131e-12</wgt>
  <wgt id="466">7.80971e-12</wgt>
  <wgt id="467">7.86137e-12</wgt>
  <wgt id="468">7.91384e-12</wgt>
  <wgt id="469">7.91404e-12</wgt>
  <wgt id="470">7.84014e-12</wgt>
  <wgt id="471">7.85375e-12</wgt>
  <wgt id="472">7.96932e-12</wgt>
  <wgt id="473">7.69399e-12</wgt>
  <wgt id="474">5.79e-12</wgt>
  <wgt id="475">5.92093e-12</wgt>
  <wgt id="476">5.70621e-12</wgt>
  <wgt id="477">5.6926e-12</wgt>
  <wgt id="478">5.841e-12</wgt>
  <wgt id="479">5.64338e-12</wgt>
  <wgt id="480">6.03668e-12</wgt>
  <wgt id="481">5.77073e-12</wgt>
  <wgt id="482">5.7083e-12</wgt>
  <wgt id="483">5.67096e-12</wgt>
  <wgt id="484">5.99209e-12</wgt>
  <wgt id="485">5.59406e-12</wgt>
  <wgt id="486">6.0481e-12</wgt>
  <wgt id="487">5.77453e-12</wgt>
  <wgt id="488">5.8979e-12</wgt>
  <wgt id="489">5.44803e-12</wgt>
  <wgt id="490">5.57763e-12</wgt>
  <wgt id="491">5.75899e-12</wgt>
  <wgt id="492">5.68814e-12</wgt>
  <wgt id="493">5.51809e-12</wgt>
  <wgt id="494">5.56558e-12</wgt>
  <wgt id="495">5.80731e-12</wgt>
  <wgt id="496">5.59003e-12</wgt>
  <wgt id="497">5.52486e-12</wgt>
  <wgt id="498">5.94756e-12</wgt>
  <wgt id="499">5.74159e-12</wgt>
  <wgt id="500">5.66175e-12</wgt>
  <wgt id="501">6.01099e-12</wgt>
  <wgt id="502">5.79598e-12</wgt>
  <wgt id="503">5.78024e-12</wgt>
  <wgt id="504">5.91873e-12</wgt>
  <wgt id="505">5.78156e-12</wgt>
  <wgt id="506">5.68637e-12</wgt>
  <wgt id="507">5.79115e-12</wgt>
  <wgt id="508">6.00603e-12</wgt>
  <wgt id="509">5.42687e-12</wgt>
  <wgt id="510">5.89975e-12</wgt>
  <wgt id="511">5.58628e-12</wgt>
  <wgt id="512">5.99802e-12</wgt>
  <wgt id="513">5.98227e-12</wgt>
  <wgt id="514">5.89932e-12</wgt>
  <wgt id="515">5.79683e-12</wgt>
  <wgt id="516">6.14861e-12</wgt>
  <wgt id="517">5.92676e-12</wgt>
  <wgt id="518">5.95701e-12</wgt>
  <wgt id="519">5.61437e-12</wgt>
  <wgt id="520">5.91067e-12</wgt>
  <wgt id="521">5.88001e-12</wgt>
  <wgt id="522">6.04237e-12</wgt>
  <wgt id="523">5.69036e-12</wgt>
  <wgt id="524">5.76268e-12</wgt>
  <wgt id="525">5.90091e-12</wgt>
  <wgt id="526">5.90608e-12</wgt>
  <wgt id="527">5.80768e-12</wgt>
  <wgt id="528">5.82039e-12</wgt>
  <wgt id="529">5.69227e-12</wgt>
  <wgt id="530">5.96284e-12</wgt>
  <wgt id="531">5.66362e-12</wgt>
  <wgt id="532">6.17607e-12</wgt>
  <wgt id="533">5.58713e-12</wgt>
  <wgt id="534">5.73125e-12</wgt>
  <wgt id="535">5.78935e-12</wgt>
  <wgt id="536">5.80277e-12</wgt>
  <wgt id="537">5.71962e-12</wgt>
  <wgt id="538">5.82858e-12</wgt>
  <wgt id="539">5.68471e-12</wgt>
  <wgt id="540">5.85654e-12</wgt>
  <wgt id="541">5.65595e-12</wgt>
  <wgt id="542">5.72699e-12</wgt>
  <wgt id="543">5.73996e-12</wgt>
  <wgt id="544">5.99247e-12</wgt>
  <wgt id="545">5.63318e-12</wgt>
  <wgt id="546">5.54812e-12</wgt>
  <wgt id="547">5.65144e-12</wgt>
  <wgt id="548">5.55961e-12</wgt>
  <wgt id="549">5.69737e-12</wgt>
  <wgt id="550">5.67232e-12</wgt>
  <wgt id="551">5.86819e-12</wgt>
  <wgt id="552">5.52875e-12</wgt>
  <wgt id="553">5.67111e-12</wgt>
  <wgt id="554">6.16822e-12</wgt>
  <wgt id="555">5.94793e-12</wgt>
  <wgt id="556">5.57763e-12</wgt>
  <wgt id="557">5.94373e-12</wgt>
  <wgt id="558">5.67586e-12</wgt>
  <wgt id="559">5.66706e-12</wgt>
  <wgt id="560">6.36202e-12</wgt>
  <wgt id="561">5.76735e-12</wgt>
  <wgt id="562">5.97383e-12</wgt>
  <wgt id="563">5.95287e-12</wgt>
  <wgt id="564">5.98439e-12</wgt>
  <wgt id="565">5.71891e-12</wgt>
  <wgt id="566">5.82549e-12</wgt>
  <wgt id="567">5.75363e-12</wgt>
  <wgt id="568">5.73282e-12</wgt>
  <wgt id="569">5.87832e-12</wgt>
  <wgt id="570">5.55255e-12</wgt>
  <wgt id="571">6.3942e-12</wgt>
  <wgt id="572">5.68508e-12</wgt>
  <wgt id="573">5.60512e-12</wgt>
  <wgt id="574">5.62845e-12</wgt>
  <wgt id="575">6.37437e-12</wgt>
  <wgt id="576">6.57008e-12</wgt>
  <wgt id="577">6.59117e-12</wgt>
  <wgt id="578">6.56677e-12</wgt>
  <wgt id="579">6.56933e-12</wgt>
  <wgt id="580">6.64801e-12</wgt>
  <wgt id="581">6.91008e-12</wgt>
  <wgt id="582">6.54538e-12</wgt>
  <wgt id="583">6.435e-12</wgt>
  <wgt id="584">6.33701e-12</wgt>
  <wgt id="585">6.16923e-12</wgt>
  <wgt id="586">6.13211e-12</wgt>
  <wgt id="587">6.48071e-12</wgt>
  <wgt id="588">6.51416e-12</wgt>
  <wgt id="589">6.66366e-12</wgt>
  <wgt id="590">6.36324e-12</wgt>
  <wgt id="591">6.59502e-12</wgt>
  <wgt id="592">5.97747e-12</wgt>
  <wgt id="593">6.28535e-12</wgt>
  <wgt id="594">6.4639e-12</wgt>
  <wgt id="595">6.46993e-12</wgt>
  <wgt id="596">6.79737e-12</wgt>
  <wgt id="597">6.32041e-12</wgt>
  <wgt id="598">6.16855e-12</wgt>
  <wgt id="599">6.66007e-12</wgt>
  <wgt id="600">6.46734e-12</wgt>
  <wgt id="601">6.17236e-12</wgt>
  <wgt id="602">6.18302e-12</wgt>
  <wgt id="603">6.15364e-12</wgt>
  <wgt id="604">6.48636e-12</wgt>
  <wgt id="605">6.56985e-12</wgt>
  <wgt id="606">6.40579e-12</wgt>
  <wgt id="607">6.43982e-12</wgt>
  <wgt id="608">6.52632e-12</wgt>
  <wgt id="609">6.16846e-12</wgt>
  <wgt id="610">6.14789e-12</wgt>
  <wgt id="611">6.2886e-12</wgt>
  <wgt id="612">6.75086e-12</wgt>
  <wgt id="613">6.26186e-12</wgt>
  <wgt id="614">6.36983e-12</wgt>
  <wgt id="615">6.34262e-12</wgt>
  <wgt id="616">6.51215e-12</wgt>
  <wgt id="617">6.55172e-12</wgt>
  <wgt id="618">6.85263e-12</wgt>
  <wgt id="619">6.2877e-12</wgt>
  <wgt id="620">6.59867e-12</wgt>
  <wgt id="621">6.35736e-12</wgt>
  <wgt id="622">6.48071e-12</wgt>
  <wgt id="623">6.5054e-12</wgt>
  <wgt id="624">6.39454e-12</wgt>
  <wgt id="625">6.21001e-12</wgt>
  <wgt id="626">6.0329e-12</wgt>
  <wgt id="627">6.01245e-12</wgt>
  <wgt id="628">6.44867e-12</wgt>
  <wgt id="629">6.3261e-12</wgt>
  <wgt id="630">6.1635e-12</wgt>
  <wgt id="631">6.44275e-12</wgt>
  <wgt id="632">6.00718e-12</wgt>
  <wgt id="633">6.34455e-12</wgt>
  <wgt id="634">6.23517e-12</wgt>
  <wgt id="635">6.03686e-12</wgt>
  <wgt id="636">6.46354e-12</wgt>
  <wgt id="637">6.37679e-12</wgt>
  <wgt id="638">6.15235e-12</wgt>
  <wgt id="639">6.24076e-12</wgt>
  <wgt id="640">6.34177e-12</wgt>
  <wgt id="641">6.54687e-12</wgt>
  <wgt id="642">6.08222e-12</wgt>
  <wgt id="643">6.30255e-12</wgt>
  <wgt id="644">5.85407e-12</wgt>
  <wgt id="645">6.39611e-12</wgt>
  <wgt id="646">6.20748e-12</wgt>
  <wgt id="647">6.33906e-12</wgt>
  <wgt id="648">6.52246e-12</wgt>
  <wgt id="649">6.41934e-12</wgt>
  <wgt id="650">6.16547e-12</wgt>
  <wgt id="651">6.63407e-12</wgt>
  <wgt id="652">6.24518e-12</wgt>
  <wgt id="653">6.16904e-12</wgt>
  <wgt id="654">6.28375e-12</wgt>
  <wgt id="655">6.26056e-12</wgt>
  <wgt id="656">6.37464e-12</wgt>
  <wgt id="657">6.82555e-12</wgt>
  <wgt id="658">6.39424e-12</wgt>
  <wgt id="659">6.11176e-12</wgt>
  <wgt id="660">6.38399e-12</wgt>
  <wgt id="661">6.27396e-12</wgt>
  <wgt id="662">6.32164e-12</wgt>
  <wgt id="663">6.42799e-12</wgt>
  <wgt id="664">6.35457e-12</wgt>
  <wgt id="665">6.3651e-12</wgt>
  <wgt id="666">6.28973e-12</wgt>
  <wgt id="667">6.64131e-12</wgt>
  <wgt id="668">6.35642e-12</wgt>
  <wgt id="669">6.48008e-12</wgt>
  <wgt id="670">6.58766e-12</wgt>
  <wgt id="671">6.37302e-12</wgt>
  <wgt id="672">6.12757e-12</wgt>
  <wgt id="673">6.54018e-12</wgt>
  <wgt id="674">6.2164e-12</wgt>
  <wgt id="675">6.27259e-12</wgt>
  <wgt id="676">8.10788e-12</wgt>
  <wgt id="677">8.21054e-12</wgt>
  <wgt id="678">8.62175e-12</wgt>
  <wgt id="679">7.83002e-12</wgt>
  <wgt id="680">8.04388e-12</wgt>
  <wgt id="681">8.13199e-12</wgt>
  <wgt id="682">8.40121e-12</wgt>
  <wgt id="683">7.83989e-12</wgt>
  <wgt id="684">8.45069e-12</wgt>
  <wgt id="685">7.90932e-12</wgt>
  <wgt id="686">7.90738e-12</wgt>
  <wgt id="687">8.40634e-12</wgt>
  <wgt id="688">7.95221e-12</wgt>
  <wgt id="689">8.50746e-12</wgt>
  <wgt id="690">8.38749e-12</wgt>
  <wgt id="691">8.44334e-12</wgt>
  <wgt id="692">8.0025e-12</wgt>
  <wgt id="693">9.86388e-12</wgt>
  <wgt id="694">8.70444e-12</wgt>
  <wgt id="695">7.80489e-12</wgt>
  <wgt id="696">7.83589e-12</wgt>
  <wgt id="697">7.68132e-12</wgt>
  <wgt id="698">7.17524e-12</wgt>
  <wgt id="699">7.161e-12</wgt>
  <wgt id="700">7.15793e-12</wgt>
  <wgt id="701">8.10499e-12</wgt>
  <wgt id="702">7.96434e-12</wgt>
  <wgt id="703">9.47777e-12</wgt>
  <wgt id="704">8.97001e-12</wgt>
  <wgt id="705">8.79205e-12</wgt>
  <wgt id="706">7.68694e-12</wgt>
  <wgt id="707">7.72971e-12</wgt>
  <wgt id="708">7.92034e-12</wgt>
  <wgt id="709">7.9177e-12</wgt>
  <wgt id="710">7.34073e-12</wgt>
  <wgt id="711">8.16035e-12</wgt>
  <wgt id="712">7.80106e-12</wgt>
  <wgt id="713">8.72136e-12</wgt>
  <wgt id="714">7.70806e-12</wgt>
  <wgt id="715">7.93379e-12</wgt>
  <wgt id="716">7.82623e-12</wgt>
  <wgt id="717">7.48642e-12</wgt>
  <wgt id="718">8.21939e-12</wgt>
  <wgt id="719">7.37795e-12</wgt>
  <wgt id="720">7.90883e-12</wgt>
  <wgt id="721">7.21463e-12</wgt>
  <wgt id="722">6.95732e-12</wgt>
  <wgt id="723">8.77135e-12</wgt>
  <wgt id="724">8.5859e-12</wgt>
  <wgt id="725">8.48095e-12</wgt>
  <wgt id="726">8.11385e-12</wgt>
  <wgt id="727">8.00632e-12</wgt>
  <wgt id="728">7.87208e-12</wgt>
  <wgt id="729">7.80308e-12</wgt>
  <wgt id="730">8.74008e-12</wgt>
  <wgt id="731">7.96093e-12</wgt>
  <wgt id="732">9.07428e-12</wgt>
  <wgt id="733">7.83667e-12</wgt>
  <wgt id="734">8.30439e-12</wgt>
  <wgt id="735">8.19939e-12</wgt>
  <wgt id="736">7.7853e-12</wgt>
  <wgt id="737">8.06891e-12</wgt>
  <wgt id="738">7.76367e-12</wgt>
  <wgt id="739">8.48222e-12</wgt>
  <wgt id="740">9.14901e-12</wgt>
  <wgt id="741">7.62167e-12</wgt>
  <wgt id="742">8.00336e-12</wgt>
  <wgt id="743">7.61221e-12</wgt>
  <wgt id="744">7.94286e-12</wgt>
  <wgt id="745">8.55197e-12</wgt>
  <wgt id="746">8.74019e-12</wgt>
  <wgt id="747">7.11124e-12</wgt>
  <wgt id="748">7.97302e-12</wgt>
  <wgt id="749">8.42909e-12</wgt>
  <wgt id="750">8.58077e-12</wgt>
  <wgt id="751">8.22802e-12</wgt>
  <wgt id="752">7.41398e-12</wgt>
  <wgt id="753">7.53121e-12</wgt>
  <wgt id="754">8.43436e-12</wgt>
  <wgt id="755">8.05331e-12</wgt>
  <wgt id="756">8.01888e-12</wgt>
  <wgt id="757">7.33262e-12</wgt>
  <wgt id="758">8.02259e-12</wgt>
  <wgt id="759">8.71362e-12</wgt>
  <wgt id="760">8.0276e-12</wgt>
  <wgt id="761">8.65976e-12</wgt>
  <wgt id="762">8.69282e-12</wgt>
  <wgt id="763">8.11108e-12</wgt>
  <wgt id="764">8.47781e-12</wgt>
  <wgt id="765">8.20794e-12</wgt>
  <wgt id="766">8.12485e-12</wgt>
  <wgt id="767">8.26182e-12</wgt>
  <wgt id="768">7.55674e-12</wgt>
  <wgt id="769">8.57668e-12</wgt>
  <wgt id="770">7.91146e-12</wgt>
  <wgt id="771">9.6203e-12</wgt>
  <wgt id="772">7.78279e-12</wgt>
  <wgt id="773">8.05396e-12</wgt>
  <wgt id="774">6.86474e-12</wgt>
  <wgt id="775">8.48042e-12</wgt>
  <wgt id="776">8.85419e-12</wgt>
  <wgt id="777">7.53815e-12</wgt>
  <wgt id="778">5.78245e-12</wgt>
  <wgt id="779">4.35317e-12</wgt>
  <wgt id="780">3.24833e-12</wgt>
  <wgt id="781">6.56531e-12</wgt>
  <wgt id="782">6.47089e-12</wgt>
  <wgt id="783">4.29805e-12</wgt>
  <wgt id="784">4.73576e-12</wgt>
  <wgt id="785">7.65223e-12</wgt>
  <wgt id="786">4.15772e-12</wgt>
  <wgt id="787">6.85117e-12</wgt>
  <wgt id="788">2.83435e-12</wgt>
  <wgt id="789">4.66636e-12</wgt>
  <wgt id="790">4.06646e-12</wgt>
  <wgt id="791">5.9561e-12</wgt>
  <wgt id="792">7.72387e-12</wgt>
  <wgt id="793">5.68773e-12</wgt>
  <wgt id="794">3.93285e-12</wgt>
  <wgt id="795">7.14649e-12</wgt>
  <wgt id="796">7.71251e-12</wgt>
  <wgt id="797">7.10218e-12</wgt>
  <wgt id="798">4.96203e-12</wgt>
  <wgt id="799">6.74891e-12</wgt>
  <wgt id="800">4.75291e-12</wgt>
  <wgt id="801">5.33968e-12</wgt>
  <wgt id="802">3.89216e-12</wgt>
  <wgt id="803">8.49203e-12</wgt>
  <wgt id="804">7.1285e-12</wgt>
  <wgt id="805">7.08858e-12</wgt>
  <wgt id="806">6.31072e-12</wgt>
  <wgt id="807">5.53878e-12</wgt>
  <wgt id="808">5.52608e-12</wgt>
  <wgt id="809">5.34421e-12</wgt>
  <wgt id="810">6.39593e-12</wgt>
  <wgt id="811">6.18067e-12</wgt>
  <wgt id="812">4.06189e-12</wgt>
  <wgt id="813">4.24536e-12</wgt>
  <wgt id="814">4.5579e-12</wgt>
  <wgt id="815">4.30086e-12</wgt>
  <wgt id="816">4.11028e-12</wgt>
  <wgt id="817">5.90906e-12</wgt>
  <wgt id="818">6.42669e-12</wgt>
  <wgt id="819">4.35203e-12</wgt>
  <wgt id="820">5.65697e-12</wgt>
  <wgt id="821">6.71651e-12</wgt>
  <wgt id="822">4.67064e-12</wgt>
  <wgt id="823">6.90073e-12</wgt>
  <wgt id="824">8.21492e-12</wgt>
  <wgt id="825">3.79186e-12</wgt>
  <wgt id="826">6.49395e-12</wgt>
  <wgt id="827">3.19951e-12</wgt>
  <wgt id="828">7.38971e-12</wgt>
  <wgt id="829">5.96393e-12</wgt>
  <wgt id="830">3.5927e-12</wgt>
  <wgt id="831">6.41349e-12</wgt>
  <wgt id="832">9.72621e-12</wgt>
  <wgt id="833">5.07025e-12</wgt>
  <wgt id="834">9.32374e-12</wgt>
  <wgt id="835">4.55219e-12</wgt>
  <wgt id="836">5.31131e-12</wgt>
  <wgt id="837">6.61032e-12</wgt>
  <wgt id="838">5.1469e-12</wgt>
  <wgt id="839">6.36699e-12</wgt>
  <wgt id="840">5.19673e-12</wgt>
  <wgt id="841">7.4964e-12</wgt>
  <wgt id="842">5.40739e-12</wgt>
  <wgt id="843">5.96391e-12</wgt>
  <wgt id="844">6.15023e-12</wgt>
  <wgt id="845">9.01803e-12</wgt>
  <wgt id="846">5.99706e-12</wgt>
  <wgt id="847">5.98553e-12</wgt>
  <wgt id="848">4.46568e-12</wgt>
  <wgt id="849">6.03494e-12</wgt>
  <wgt id="850">7.96597e-12</wgt>
  <wgt id="851">6.5058e-12</wgt>
  <wgt id="852">4.18863e-12</wgt>
  <wgt id="853">6.64068e-12</wgt>
  <wgt id="854">7.38545e-12</wgt>
  <wgt id="855">6.79879e-12</wgt>
  <wgt id="856">3.62558e-12</wgt>
  <wgt id="857">5.49524e-12</wgt>
  <wgt id="858">5.42684e-12</wgt>
  <wgt id="859">5.48516e-12</wgt>
  <wgt id="860">6.7145e-12</wgt>
  <wgt id="861">5.00343e-12</wgt>
  <wgt id="862">5.84791e-12</wgt>
  <wgt id="863">6.32962e-12</wgt>
  <wgt id="864">6.07439e-12</wgt>
  <wgt id="865">8.57667e-12</wgt>
  <wgt id="866">9.49288e-12</wgt>
  <wgt id="867">5.88398e-12</wgt>
  <wgt id="868">5.75973e-12</wgt>
  <wgt id="869">4.08037e-12</wgt>
  <wgt id="870">4.42221e-12</wgt>
  <wgt id="871">4.303e-12</wgt>
  <wgt id="872">7.37643e-12</wgt>
  <wgt id="873">4.79811e-12</wgt>
  <wgt id="874">6.20488e-12</wgt>
  <wgt id="875">4.85072e-12</wgt>
  <wgt id="876">7.23314e-12</wgt>
  <wgt id="877">6.56405e-12</wgt>
  <wgt id="878">4.73625e-12</wgt>
  <wgt id="879">8.10788e-12</wgt>
  <wgt id="880">8.21054e-12</wgt>
  <wgt id="881">8.62175e-12</wgt>
  <wgt id="882">7.83002e-12</wgt>
  <wgt id="883">8.04388e-12</wgt>
  <wgt id="884">8.13199e-12</wgt>
  <wgt id="885">8.40121e-12</wgt>
  <wgt id="886">7.83989e-12</wgt>
  <wgt id="887">8.45069e-12</wgt>
  <wgt id="888">7.90932e-12</wgt>
  <wgt id="889">7.90738e-12</wgt>
  <wgt id="890">8.40634e-12</wgt>
  <wgt id="891">7.95221e-12</wgt>
  <wgt id="892">8.50746e-12</wgt>
  <wgt id="893">8.38749e-12</wgt>
  <wgt id="894">8.44334e-12</wgt>
  <wgt id="895">8.0025e-12</wgt>
  <wgt id="896">9.86388e-12</wgt>
  <wgt id="897">8.70444e-12</wgt>
  <wgt id="898">7.80489e-12</wgt>
  <wgt id="899">7.83589e-12</wgt>
  <wgt id="900">7.68132e-12</wgt>
  <wgt id="901">7.17524e-12</wgt>
  <wgt id="902">7.161e-12</wgt>
  <wgt id="903">7.15793e-12</wgt>
  <wgt id="904">8.10499e-12</wgt>
  <wgt id="905">7.96434e-12</wgt>
  <wgt id="906">9.47777e-12</wgt>
  <wgt id="907">8.97001e-12</wgt>
  <wgt id="908">8.79205e-12</wgt>
  <wgt id="909">7.68694e-12</wgt>
  <wgt id="910">7.72971e-12</wgt>
  <wgt id="911">7.92034e-12</wgt>
  <wgt id="912">7.9177e-12</wgt>
  <wgt id="913">7.34073e-12</wgt>
  <wgt id="914">8.16035e-12</wgt>
  <wgt id="915">7.80106e-12</wgt>
  <wgt id="916">8.72136e-12</wgt>
  <wgt id="917">7.70806e-12</wgt>
  <wgt id="918">7.93379e-12</wgt>
  <wgt id="919">7.82623e-12</wgt>
  <wgt id="920">7.48642e-12</wgt>
  <wgt id="921">8.21939e-12</wgt>
  <wgt id="922">7.37795e-12</wgt>
  <wgt id="923">7.90883e-12</wgt>
  <wgt id="924">7.21463e-12</wgt>
  <wgt id="925">6.95732e-12</wgt>
  <wgt id="926">8.77135e-12</wgt>
  <wgt id="927">8.5859e-12</wgt>
  <wgt id="928">8.48095e-12</wgt>
  <wgt id="929">8.11385e-12</wgt>
  <wgt id="930">8.00632e-12</wgt>
  <wgt id="931">7.87208e-12</wgt>
  <wgt id="932">7.80308e-12</wgt>
  <wgt id="933">8.74008e-12</wgt>
  <wgt id="934">7.96093e-12</wgt>
  <wgt id="935">9.07428e-12</wgt>
  <wgt id="936">7.83667e-12</wgt>
  <wgt id="937">8.30439e-12</wgt>
  <wgt id="938">8.19939e-12</wgt>
  <wgt id="939">7.7853e-12</wgt>
  <wgt id="940">8.06891e-12</wgt>
  <wgt id="941">7.76367e-12</wgt>
  <wgt id="942">8.48222e-12</wgt>
  <wgt id="943">9.14901e-12</wgt>
  <wgt id="944">7.62167e-12</wgt>
  <wgt id="945">8.00336e-12</wgt>
  <wgt id="946">7.61221e-12</wgt>
  <wgt id="947">7.94286e-12</wgt>
  <wgt id="948">8.55197e-12</wgt>
  <wgt id="949">8.74019e-12</wgt>
  <wgt id="950">7.11124e-12</wgt>
  <wgt id="951">7.97302e-12</wgt>
  <wgt id="952">8.42909e-12</wgt>
  <wgt id="953">8.58077e-12</wgt>
  <wgt id="954">8.22802e-12</wgt>
  <wgt id="955">7.41398e-12</wgt>
  <wgt id="956">7.53121e-12</wgt>
  <wgt id="957">8.43436e-12</wgt>
  <wgt id="958">8.05331e-12</wgt>
  <wgt id="959">8.01888e-12</wgt>
  <wgt id="960">7.33262e-12</wgt>
  <wgt id="961">8.02259e-12</wgt>
  <wgt id="962">8.71362e-12</wgt>
  <wgt id="963">8.0276e-12</wgt>
  <wgt id="964">8.65976e-12</wgt>
  <wgt id="965">8.69282e-12</wgt>
  <wgt id="966">8.11108e-12</wgt>
  <wgt id="967">8.47781e-12</wgt>
  <wgt id="968">8.20794e-12</wgt>
  <wgt id="969">8.12485e-12</wgt>
  <wgt id="970">8.26182e-12</wgt>
  <wgt id="971">7.55674e-12</wgt>
  <wgt id="972">8.57668e-12</wgt>
  <wgt id="973">7.91146e-12</wgt>
  <wgt id="974">9.6203e-12</wgt>
  <wgt id="975">7.78279e-12</wgt>
  <wgt id="976">8.05396e-12</wgt>
  <wgt id="977">6.86474e-12</wgt>
  <wgt id="978">8.48042e-12</wgt>
  <wgt id="979">8.85419e-12</wgt>
  <wgt id="980">8.07874e-12</wgt>
  <wgt id="981">8.18447e-12</wgt>
  <wgt id="982">7.85415e-12</wgt>
</rwgt>
</event>
<event>
 5   1  0.5790000E-11  0.2364924E+04  0.7818608E-02  0.7689455E-01
       21   -1    0    0  502  501  0.00000000000E+00  0.00000000000E+00  0.55250637036E+03  0.55250637036E+03  0.00000000000E+00 0.  1.
       21   -1    0    0  501  502 -0.00000000000E+00 -0.00000000000E+00 -0.25306785841E+04  0.25306785841E+04  0.00000000000E+00 0. -1.
       39    2    1    2    0    0  0.00000000000E+00  0.00000000000E+00 -0.19781722137E+04  0.30831849545E+04  0.23649237104E+04 0.  0.
       25    1    3    3    0    0  0.28126319616E+03 -0.89822028608E+03 -0.70284353213E+02  0.95208904948E+03  0.12500000000E+03 0.  0.
       25    1    3    3    0    0 -0.28126319616E+03  0.89822028608E+03 -0.19078878605E+04  0.21310959050E+04  0.12500000000E+03 0.  0.
<mgrwt>
<rscale>  0 0.23649237E+04</rscale>
<asrwt>0</asrwt>
<pdfrwt beam="1">  1       21 0.85000982E-01 0.23649237E+04</pdfrwt>
<pdfrwt beam="2">  1       21 0.38933516E+00 0.23649237E+04</pdfrwt>
<totfact> 0.40243592E+00</totfact>
</mgrwt>
<rwgt>
  <wgt id="1">5.79e-12</wgt>
  <wgt id="2">4.95007e-12</wgt>
  <wgt id="3">6.85664e-12</wgt>
  <wgt id="4">5.79e-12</wgt>
  <wgt id="5">4.95007e-12</wgt>
  <wgt id="6">6.85664e-12</wgt>
  <wgt id="7">5.79e-12</wgt>
  <wgt id="8">4.95007e-12</wgt>
  <wgt id="9">6.85664e-12</wgt>
  <wgt id="10">6.18802e-12</wgt>
  <wgt id="11">6.19214e-12</wgt>
  <wgt id="12">6.16672e-12</wgt>
  <wgt id="13">6.18259e-12</wgt>
  <wgt id="14">6.19414e-12</wgt>
  <wgt id="15">6.19471e-12</wgt>
  <wgt id="16">6.15639e-12</wgt>
  <wgt id="17">6.24008e-12</wgt>
  <wgt id="18">6.18822e-12</wgt>
  <wgt id="19">6.22326e-12</wgt>
  <wgt id="20">6.19735e-12</wgt>
  <wgt id="21">6.12525e-12</wgt>
  <wgt id="22">6.1315e-12</wgt>
  <wgt id="23">6.07296e-12</wgt>
  <wgt id="24">6.13125e-12</wgt>
  <wgt id="25">6.1695e-12</wgt>
  <wgt id="26">6.20147e-12</wgt>
  <wgt id="27">6.17238e-12</wgt>
  <wgt id="28">6.14519e-12</wgt>
  <wgt id="29">6.18795e-12</wgt>
  <wgt id="30">6.12056e-12</wgt>
  <wgt id="31">6.21466e-12</wgt>
  <wgt id="32">6.11262e-12</wgt>
  <wgt id="33">6.19163e-12</wgt>
  <wgt id="34">6.13108e-12</wgt>
  <wgt id="35">6.11399e-12</wgt>
  <wgt id="36">6.22176e-12</wgt>
  <wgt id="37">6.16782e-12</wgt>
  <wgt id="38">6.15381e-12</wgt>
  <wgt id="39">6.33114e-12</wgt>
  <wgt id="40">6.20683e-12</wgt>
  <wgt id="41">6.18135e-12</wgt>
  <wgt id="42">6.20282e-12</wgt>
  <wgt id="43">6.20156e-12</wgt>
  <wgt id="44">6.24e-12</wgt>
  <wgt id="45">6.19837e-12</wgt>
  <wgt id="46">6.13717e-12</wgt>
  <wgt id="47">6.30442e-12</wgt>
  <wgt id="48">6.26386e-12</wgt>
  <wgt id="49">6.15734e-12</wgt>
  <wgt id="50">6.09996e-12</wgt>
  <wgt id="51">6.12373e-12</wgt>
  <wgt id="52">6.19678e-12</wgt>
  <wgt id="53">6.34224e-12</wgt>
  <wgt id="54">6.24533e-12</wgt>
  <wgt id="55">6.16639e-12</wgt>
  <wgt id="56">6.07467e-12</wgt>
  <wgt id="57">6.09191e-12</wgt>
  <wgt id="58">6.18848e-12</wgt>
  <wgt id="59">6.2207e-12</wgt>
  <wgt id="60">6.07851e-12</wgt>
  <wgt id="61">6.18862e-12</wgt>
  <wgt id="62">6.22206e-12</wgt>
  <wgt id="63">6.17693e-12</wgt>
  <wgt id="64">6.17654e-12</wgt>
  <wgt id="65">6.13161e-12</wgt>
  <wgt id="66">6.23407e-12</wgt>
  <wgt id="67">6.24895e-12</wgt>
  <wgt id="68">6.18466e-12</wgt>
  <wgt id="69">6.17403e-12</wgt>
  <wgt id="70">6.12699e-12</wgt>
  <wgt id="71">6.22701e-12</wgt>
  <wgt id="72">6.20491e-12</wgt>
  <wgt id="73">6.17008e-12</wgt>
  <wgt id="74">6.23804e-12</wgt>
  <wgt id="75">6.12036e-12</wgt>
  <wgt id="76">6.23923e-12</wgt>
  <wgt id="77">6.1683e-12</wgt>
  <wgt id="78">6.18153e-12</wgt>
  <wgt id="79">6.20154e-12</wgt>
  <wgt id="80">6.13381e-12</wgt>
  <wgt id="81">6.17568e-12</wgt>
  <wgt id="82">6.19323e-12</wgt>
  <wgt id="83">6.12834e-12</wgt>
  <wgt id="84">6.14016e-12</wgt>
  <wgt id="85">6.13561e-12</wgt>
  <wgt id="86">6.25368e-12</wgt>
  <wgt id="87">6.08641e-12</wgt>
  <wgt id="88">6.21872e-12</wgt>
  <wgt id="89">6.21298e-12</wgt>
  <wgt id="90">6.22831e-12</wgt>
  <wgt id="91">6.19508e-12</wgt>
  <wgt id="92">6.22054e-12</wgt>
  <wgt id="93">6.19723e-12</wgt>
  <wgt id="94">6.15234e-12</wgt>
  <wgt id="95">6.22295e-12</wgt>
  <wgt id="96">6.22469e-12</wgt>
  <wgt id="97">6.13691e-12</wgt>
  <wgt id="98">6.19066e-12</wgt>
  <wgt id="99">6.1805e-12</wgt>
  <wgt id="100">6.20211e-12</wgt>
  <wgt id="101">6.16367e-12</wgt>
  <wgt id="102">6.16906e-12</wgt>
  <wgt id="103">6.22361e-12</wgt>
  <wgt id="104">6.17973e-12</wgt>
  <wgt id="105">6.22842e-12</wgt>
  <wgt id="106">6.15398e-12</wgt>
  <wgt id="107">6.25228e-12</wgt>
  <wgt id="108">6.16873e-12</wgt>
  <wgt id="109">6.18096e-12</wgt>
  <wgt id="110">6.19176e-12</wgt>
  <wgt id="111">6.1218e-12</wgt>
  <wgt id="112">6.30958e-12</wgt>
  <wgt id="113">9.46769e-12</wgt>
  <wgt id="114">7.94997e-12</wgt>
  <wgt id="115">7.79224e-12</wgt>
  <wgt id="116">1.0768e-11</wgt>
  <wgt id="117">6.78148e-12</wgt>
  <wgt id="118">6.80858e-12</wgt>
  <wgt id="119">6.76599e-12</wgt>
  <wgt id="120">6.7813e-12</wgt>
  <wgt id="121">6.78149e-12</wgt>
  <wgt id="122">6.77176e-12</wgt>
  <wgt id="123">6.79493e-12</wgt>
  <wgt id="124">6.77301e-12</wgt>
  <wgt id="125">6.78678e-12</wgt>
  <wgt id="126">6.78971e-12</wgt>
  <wgt id="127">6.77597e-12</wgt>
  <wgt id="128">6.80151e-12</wgt>
  <wgt id="129">6.7615e-12</wgt>
  <wgt id="130">6.81036e-12</wgt>
  <wgt id="131">6.75125e-12</wgt>
  <wgt id="132">6.5814e-12</wgt>
  <wgt id="133">7.02122e-12</wgt>
  <wgt id="134">6.70863e-12</wgt>
  <wgt id="135">6.83879e-12</wgt>
  <wgt id="136">6.90222e-12</wgt>
  <wgt id="137">6.63722e-12</wgt>
  <wgt id="138">7.13515e-12</wgt>
  <wgt id="139">6.45139e-12</wgt>
  <wgt id="140">6.7601e-12</wgt>
  <wgt id="141">6.79641e-12</wgt>
  <wgt id="142">6.77797e-12</wgt>
  <wgt id="143">6.8106e-12</wgt>
  <wgt id="144">6.42029e-12</wgt>
  <wgt id="145">7.14552e-12</wgt>
  <wgt id="146">6.90247e-12</wgt>
  <wgt id="147">6.68096e-12</wgt>
  <wgt id="148">6.80837e-12</wgt>
  <wgt id="149">6.77954e-12</wgt>
  <wgt id="150">6.83763e-12</wgt>
  <wgt id="151">6.75516e-12</wgt>
  <wgt id="152">6.78218e-12</wgt>
  <wgt id="153">6.78105e-12</wgt>
  <wgt id="154">6.76314e-12</wgt>
  <wgt id="155">6.78019e-12</wgt>
  <wgt id="156">7.10157e-12</wgt>
  <wgt id="157">6.5101e-12</wgt>
  <wgt id="158">8.07758e-12</wgt>
  <wgt id="159">8.11318e-12</wgt>
  <wgt id="160">8.04944e-12</wgt>
  <wgt id="161">8.05637e-12</wgt>
  <wgt id="162">8.10187e-12</wgt>
  <wgt id="163">8.06817e-12</wgt>
  <wgt id="164">8.092e-12</wgt>
  <wgt id="165">8.08057e-12</wgt>
  <wgt id="166">8.07578e-12</wgt>
  <wgt id="167">8.07269e-12</wgt>
  <wgt id="168">8.08527e-12</wgt>
  <wgt id="169">8.04658e-12</wgt>
  <wgt id="170">8.09746e-12</wgt>
  <wgt id="171">8.07396e-12</wgt>
  <wgt id="172">8.08323e-12</wgt>
  <wgt id="173">8.05217e-12</wgt>
  <wgt id="174">8.08725e-12</wgt>
  <wgt id="175">7.83037e-12</wgt>
  <wgt id="176">8.40364e-12</wgt>
  <wgt id="177">8.10959e-12</wgt>
  <wgt id="178">8.04944e-12</wgt>
  <wgt id="179">8.56048e-12</wgt>
  <wgt id="180">7.34973e-12</wgt>
  <wgt id="181">7.77394e-12</wgt>
  <wgt id="182">8.28233e-12</wgt>
  <wgt id="183">7.89383e-12</wgt>
  <wgt id="184">8.16958e-12</wgt>
  <wgt id="185">7.96925e-12</wgt>
  <wgt id="186">8.2092e-12</wgt>
  <wgt id="187">7.96961e-12</wgt>
  <wgt id="188">8.26732e-12</wgt>
  <wgt id="189">8.00461e-12</wgt>
  <wgt id="190">8.10785e-12</wgt>
  <wgt id="191">8.1127e-12</wgt>
  <wgt id="192">8.05682e-12</wgt>
  <wgt id="193">8.23349e-12</wgt>
  <wgt id="194">7.99873e-12</wgt>
  <wgt id="195">7.69808e-12</wgt>
  <wgt id="196">8.68082e-12</wgt>
  <wgt id="197">8.12353e-12</wgt>
  <wgt id="198">8.06688e-12</wgt>
  <wgt id="199">8.07758e-12</wgt>
  <wgt id="200">8.16494e-12</wgt>
  <wgt id="201">8.13697e-12</wgt>
  <wgt id="202">8.10918e-12</wgt>
  <wgt id="203">8.07191e-12</wgt>
  <wgt id="204">8.05143e-12</wgt>
  <wgt id="205">8.03497e-12</wgt>
  <wgt id="206">7.95355e-12</wgt>
  <wgt id="207">8.00212e-12</wgt>
  <wgt id="208">7.90492e-12</wgt>
  <wgt id="209">7.97767e-12</wgt>
  <wgt id="210">7.93574e-12</wgt>
  <wgt id="211">7.95064e-12</wgt>
  <wgt id="212">7.95566e-12</wgt>
  <wgt id="213">7.95245e-12</wgt>
  <wgt id="214">7.95405e-12</wgt>
  <wgt id="215">7.95967e-12</wgt>
  <wgt id="216">7.94934e-12</wgt>
  <wgt id="217">7.96804e-12</wgt>
  <wgt id="218">7.94124e-12</wgt>
  <wgt id="219">7.94335e-12</wgt>
  <wgt id="220">7.95978e-12</wgt>
  <wgt id="221">7.96063e-12</wgt>
  <wgt id="222">7.93249e-12</wgt>
  <wgt id="223">7.45725e-12</wgt>
  <wgt id="224">8.41052e-12</wgt>
  <wgt id="225">7.85042e-12</wgt>
  <wgt id="226">8.08507e-12</wgt>
  <wgt id="227">7.87405e-12</wgt>
  <wgt id="228">7.98847e-12</wgt>
  <wgt id="229">7.83168e-12</wgt>
  <wgt id="230">8.01347e-12</wgt>
  <wgt id="231">8.2678e-12</wgt>
  <wgt id="232">7.69771e-12</wgt>
  <wgt id="233">7.89161e-12</wgt>
  <wgt id="234">8.05878e-12</wgt>
  <wgt id="235">7.47654e-12</wgt>
  <wgt id="236">8.33503e-12</wgt>
  <wgt id="237">7.68766e-12</wgt>
  <wgt id="238">8.04149e-12</wgt>
  <wgt id="239">7.84892e-12</wgt>
  <wgt id="240">8.14086e-12</wgt>
  <wgt id="241">7.83908e-12</wgt>
  <wgt id="242">8.08647e-12</wgt>
  <wgt id="243">8.13583e-12</wgt>
  <wgt id="244">7.92346e-12</wgt>
  <wgt id="245">7.95262e-12</wgt>
  <wgt id="246">7.98716e-12</wgt>
  <wgt id="247">7.95355e-12</wgt>
  <wgt id="248">8.05287e-12</wgt>
  <wgt id="249">8.02063e-12</wgt>
  <wgt id="250">7.98329e-12</wgt>
  <wgt id="251">7.93736e-12</wgt>
  <wgt id="252">7.91159e-12</wgt>
  <wgt id="253">7.89533e-12</wgt>
  <wgt id="254">7.57703e-12</wgt>
  <wgt id="255">7.58327e-12</wgt>
  <wgt id="256">7.56983e-12</wgt>
  <wgt id="257">7.58286e-12</wgt>
  <wgt id="258">7.57247e-12</wgt>
  <wgt id="259">7.62811e-12</wgt>
  <wgt id="260">7.52756e-12</wgt>
  <wgt id="261">7.59096e-12</wgt>
  <wgt id="262">7.56074e-12</wgt>
  <wgt id="263">7.56952e-12</wgt>
  <wgt id="264">7.58509e-12</wgt>
  <wgt id="265">7.56732e-12</wgt>
  <wgt id="266">7.59661e-12</wgt>
  <wgt id="267">7.57969e-12</wgt>
  <wgt id="268">7.57349e-12</wgt>
  <wgt id="269">7.60028e-12</wgt>
  <wgt id="270">7.56106e-12</wgt>
  <wgt id="271">7.55012e-12</wgt>
  <wgt id="272">7.60743e-12</wgt>
  <wgt id="273">7.55853e-12</wgt>
  <wgt id="274">7.59101e-12</wgt>
  <wgt id="275">7.51811e-12</wgt>
  <wgt id="276">7.63844e-12</wgt>
  <wgt id="277">7.53444e-12</wgt>
  <wgt id="278">7.61582e-12</wgt>
  <wgt id="279">7.43209e-12</wgt>
  <wgt id="280">7.76002e-12</wgt>
  <wgt id="281">7.53322e-12</wgt>
  <wgt id="282">7.60153e-12</wgt>
  <wgt id="283">7.29314e-12</wgt>
  <wgt id="284">7.93589e-12</wgt>
  <wgt id="285">7.11228e-12</wgt>
  <wgt id="286">7.97805e-12</wgt>
  <wgt id="287">7.60655e-12</wgt>
  <wgt id="288">7.53899e-12</wgt>
  <wgt id="289">7.64726e-12</wgt>
  <wgt id="290">7.42755e-12</wgt>
  <wgt id="291">7.54245e-12</wgt>
  <wgt id="292">7.56986e-12</wgt>
  <wgt id="293">7.50132e-12</wgt>
  <wgt id="294">7.65273e-12</wgt>
  <wgt id="295">7.39349e-12</wgt>
  <wgt id="296">7.80205e-12</wgt>
  <wgt id="297">7.53896e-12</wgt>
  <wgt id="298">7.62614e-12</wgt>
  <wgt id="299">7.54893e-12</wgt>
  <wgt id="300">7.6516e-12</wgt>
  <wgt id="301">7.36888e-12</wgt>
  <wgt id="302">8.03878e-12</wgt>
  <wgt id="303">7.46433e-12</wgt>
  <wgt id="304">7.63917e-12</wgt>
  <wgt id="305">7.42501e-12</wgt>
  <wgt id="306">7.43174e-12</wgt>
  <wgt id="307">7.41778e-12</wgt>
  <wgt id="308">7.43149e-12</wgt>
  <wgt id="309">7.42123e-12</wgt>
  <wgt id="310">7.47656e-12</wgt>
  <wgt id="311">7.3782e-12</wgt>
  <wgt id="312">7.43862e-12</wgt>
  <wgt id="313">7.41071e-12</wgt>
  <wgt id="314">7.41742e-12</wgt>
  <wgt id="315">7.43258e-12</wgt>
  <wgt id="316">7.41534e-12</wgt>
  <wgt id="317">7.44745e-12</wgt>
  <wgt id="318">7.43111e-12</wgt>
  <wgt id="319">7.41474e-12</wgt>
  <wgt id="320">7.45071e-12</wgt>
  <wgt id="321">7.41141e-12</wgt>
  <wgt id="322">7.39789e-12</wgt>
  <wgt id="323">7.45726e-12</wgt>
  <wgt id="324">7.41359e-12</wgt>
  <wgt id="325">7.43509e-12</wgt>
  <wgt id="326">7.37618e-12</wgt>
  <wgt id="327">7.48822e-12</wgt>
  <wgt id="328">7.39024e-12</wgt>
  <wgt id="329">7.44369e-12</wgt>
  <wgt id="330">7.64068e-12</wgt>
  <wgt id="331">7.22149e-12</wgt>
  <wgt id="332">7.38883e-12</wgt>
  <wgt id="333">7.44274e-12</wgt>
  <wgt id="334">7.21533e-12</wgt>
  <wgt id="335">7.69113e-12</wgt>
  <wgt id="336">7.10371e-12</wgt>
  <wgt id="337">7.8304e-12</wgt>
  <wgt id="338">7.52751e-12</wgt>
  <wgt id="339">7.3324e-12</wgt>
  <wgt id="340">7.4855e-12</wgt>
  <wgt id="341">7.28089e-12</wgt>
  <wgt id="342">7.40276e-12</wgt>
  <wgt id="343">7.39887e-12</wgt>
  <wgt id="344">7.36109e-12</wgt>
  <wgt id="345">7.50006e-12</wgt>
  <wgt id="346">7.24186e-12</wgt>
  <wgt id="347">7.63457e-12</wgt>
  <wgt id="348">7.38769e-12</wgt>
  <wgt id="349">7.47136e-12</wgt>
  <wgt id="350">7.39141e-12</wgt>
  <wgt id="351">7.5119e-12</wgt>
  <wgt id="352">7.22303e-12</wgt>
  <wgt id="353">7.85403e-12</wgt>
  <wgt id="354">7.27256e-12</wgt>
  <wgt id="355">7.51405e-12</wgt>
  <wgt id="356">7.57703e-12</wgt>
  <wgt id="357">7.40852e-12</wgt>
  <wgt id="358">7.42501e-12</wgt>
  <wgt id="359">7.54877e-12</wgt>
  <wgt id="360">7.78777e-12</wgt>
  <wgt id="361">7.63153e-12</wgt>
  <wgt id="362">7.81024e-12</wgt>
  <wgt id="363">7.78761e-12</wgt>
  <wgt id="364">7.73682e-12</wgt>
  <wgt id="365">7.70294e-12</wgt>
  <wgt id="366">7.67048e-12</wgt>
  <wgt id="367">7.61226e-12</wgt>
  <wgt id="368">7.57135e-12</wgt>
  <wgt id="369">7.52686e-12</wgt>
  <wgt id="370">7.63153e-12</wgt>
  <wgt id="371">7.66091e-12</wgt>
  <wgt id="372">7.64387e-12</wgt>
  <wgt id="373">7.62097e-12</wgt>
  <wgt id="374">7.64163e-12</wgt>
  <wgt id="375">9.37786e-12</wgt>
  <wgt id="376">9.37787e-12</wgt>
  <wgt id="377">9.3774e-12</wgt>
  <wgt id="378">9.41563e-12</wgt>
  <wgt id="379">9.3402e-12</wgt>
  <wgt id="380">9.40587e-12</wgt>
  <wgt id="381">9.36642e-12</wgt>
  <wgt id="382">9.41753e-12</wgt>
  <wgt id="383">9.33843e-12</wgt>
  <wgt id="384">9.3841e-12</wgt>
  <wgt id="385">9.37182e-12</wgt>
  <wgt id="386">9.40127e-12</wgt>
  <wgt id="387">9.36771e-12</wgt>
  <wgt id="388">9.37015e-12</wgt>
  <wgt id="389">9.38664e-12</wgt>
  <wgt id="390">9.39558e-12</wgt>
  <wgt id="391">9.3593e-12</wgt>
  <wgt id="392">9.28177e-12</wgt>
  <wgt id="393">9.43198e-12</wgt>
  <wgt id="394">9.37945e-12</wgt>
  <wgt id="395">9.37539e-12</wgt>
  <wgt id="396">9.40188e-12</wgt>
  <wgt id="397">9.36088e-12</wgt>
  <wgt id="398">9.37475e-12</wgt>
  <wgt id="399">9.38071e-12</wgt>
  <wgt id="400">9.36133e-12</wgt>
  <wgt id="401">9.41421e-12</wgt>
  <wgt id="402">9.27129e-12</wgt>
  <wgt id="403">9.46216e-12</wgt>
  <wgt id="404">9.71708e-12</wgt>
  <wgt id="405">8.5815e-12</wgt>
  <wgt id="406">9.13263e-12</wgt>
  <wgt id="407">9.93051e-12</wgt>
  <wgt id="408">9.50619e-12</wgt>
  <wgt id="409">9.14464e-12</wgt>
  <wgt id="410">8.98524e-12</wgt>
  <wgt id="411">9.57095e-12</wgt>
  <wgt id="412">9.3509e-12</wgt>
  <wgt id="413">9.41509e-12</wgt>
  <wgt id="414">9.22286e-12</wgt>
  <wgt id="415">9.49818e-12</wgt>
  <wgt id="416">9.7897e-12</wgt>
  <wgt id="417">8.81925e-12</wgt>
  <wgt id="418">9.40338e-12</wgt>
  <wgt id="419">9.23972e-12</wgt>
  <wgt id="420">9.71474e-12</wgt>
  <wgt id="421">9.1433e-12</wgt>
  <wgt id="422">9.27077e-12</wgt>
  <wgt id="423">9.4256e-12</wgt>
  <wgt id="424">9.7705e-12</wgt>
  <wgt id="425">9.10416e-12</wgt>
  <wgt id="426">9.37786e-12</wgt>
  <wgt id="427">9.075e-12</wgt>
  <wgt id="428">1.00194e-11</wgt>
  <wgt id="429">9.55661e-12</wgt>
  <wgt id="430">9.94497e-12</wgt>
  <wgt id="431">9.86337e-12</wgt>
  <wgt id="432">9.79304e-12</wgt>
  <wgt id="433">9.72327e-12</wgt>
  <wgt id="434">9.63151e-12</wgt>
  <wgt id="435">9.46371e-12</wgt>
  <wgt id="436">9.38122e-12</wgt>
  <wgt id="437">9.29827e-12</wgt>
  <wgt id="438">9.55661e-12</wgt>
  <wgt id="439">9.58435e-12</wgt>
  <wgt id="440">9.56553e-12</wgt>
  <wgt id="441">9.55143e-12</wgt>
  <wgt id="442">9.54773e-12</wgt>
  <wgt id="443">7.9089e-12</wgt>
  <wgt id="444">8.02717e-12</wgt>
  <wgt id="445">8.07817e-12</wgt>
  <wgt id="446">7.85524e-12</wgt>
  <wgt id="447">7.90694e-12</wgt>
  <wgt id="448">7.73229e-12</wgt>
  <wgt id="449">8.13941e-12</wgt>
  <wgt id="450">8.08996e-12</wgt>
  <wgt id="451">7.88324e-12</wgt>
  <wgt id="452">8.07976e-12</wgt>
  <wgt id="453">8.07198e-12</wgt>
  <wgt id="454">7.40386e-12</wgt>
  <wgt id="455">8.02324e-12</wgt>
  <wgt id="456">8.1573e-12</wgt>
  <wgt id="457">7.93357e-12</wgt>
  <wgt id="458">8.08405e-12</wgt>
  <wgt id="459">7.98445e-12</wgt>
  <wgt id="460">8.17031e-12</wgt>
  <wgt id="461">7.67543e-12</wgt>
  <wgt id="462">7.84546e-12</wgt>
  <wgt id="463">7.75261e-12</wgt>
  <wgt id="464">7.87289e-12</wgt>
  <wgt id="465">7.99289e-12</wgt>
  <wgt id="466">7.60098e-12</wgt>
  <wgt id="467">7.86126e-12</wgt>
  <wgt id="468">7.92431e-12</wgt>
  <wgt id="469">7.8771e-12</wgt>
  <wgt id="470">7.73717e-12</wgt>
  <wgt id="471">7.77151e-12</wgt>
  <wgt id="472">7.98581e-12</wgt>
  <wgt id="473">7.61271e-12</wgt>
  <wgt id="474">5.79e-12</wgt>
  <wgt id="475">5.83657e-12</wgt>
  <wgt id="476">5.89308e-12</wgt>
  <wgt id="477">6.13407e-12</wgt>
  <wgt id="478">6.04777e-12</wgt>
  <wgt id="479">5.2147e-12</wgt>
  <wgt id="480">6.26047e-12</wgt>
  <wgt id="481">5.8883e-12</wgt>
  <wgt id="482">6.03488e-12</wgt>
  <wgt id="483">6.30687e-12</wgt>
  <wgt id="484">6.16274e-12</wgt>
  <wgt id="485">5.08577e-12</wgt>
  <wgt id="486">6.10355e-12</wgt>
  <wgt id="487">5.44341e-12</wgt>
  <wgt id="488">5.66731e-12</wgt>
  <wgt id="489">4.76911e-12</wgt>
  <wgt id="490">5.86029e-12</wgt>
  <wgt id="491">5.66001e-12</wgt>
  <wgt id="492">5.69592e-12</wgt>
  <wgt id="493">5.01168e-12</wgt>
  <wgt id="494">4.9767e-12</wgt>
  <wgt id="495">5.99017e-12</wgt>
  <wgt id="496">5.21216e-12</wgt>
  <wgt id="497">5.28715e-12</wgt>
  <wgt id="498">5.92454e-12</wgt>
  <wgt id="499">5.97713e-12</wgt>
  <wgt id="500">6.03385e-12</wgt>
  <wgt id="501">6.16003e-12</wgt>
  <wgt id="502">6.47763e-12</wgt>
  <wgt id="503">5.58035e-12</wgt>
  <wgt id="504">6.03696e-12</wgt>
  <wgt id="505">6.27757e-12</wgt>
  <wgt id="506">4.90841e-12</wgt>
  <wgt id="507">5.36821e-12</wgt>
  <wgt id="508">6.1869e-12</wgt>
  <wgt id="509">5.7773e-12</wgt>
  <wgt id="510">5.66876e-12</wgt>
  <wgt id="511">5.39784e-12</wgt>
  <wgt id="512">6.44591e-12</wgt>
  <wgt id="513">6.28052e-12</wgt>
  <wgt id="514">6.50695e-12</wgt>
  <wgt id="515">6.36261e-12</wgt>
  <wgt id="516">6.73338e-12</wgt>
  <wgt id="517">5.94741e-12</wgt>
  <wgt id="518">6.24052e-12</wgt>
  <wgt id="519">5.58806e-12</wgt>
  <wgt id="520">5.6305e-12</wgt>
  <wgt id="521">5.36523e-12</wgt>
  <wgt id="522">5.89773e-12</wgt>
  <wgt id="523">5.47648e-12</wgt>
  <wgt id="524">6.13699e-12</wgt>
  <wgt id="525">5.47248e-12</wgt>
  <wgt id="526">6.39605e-12</wgt>
  <wgt id="527">5.69939e-12</wgt>
  <wgt id="528">5.56218e-12</wgt>
  <wgt id="529">5.07628e-12</wgt>
  <wgt id="530">6.29421e-12</wgt>
  <wgt id="531">5.41498e-12</wgt>
  <wgt id="532">6.35854e-12</wgt>
  <wgt id="533">6.05526e-12</wgt>
  <wgt id="534">5.25303e-12</wgt>
  <wgt id="535">6.10696e-12</wgt>
  <wgt id="536">6.22284e-12</wgt>
  <wgt id="537">5.18409e-12</wgt>
  <wgt id="538">5.68888e-12</wgt>
  <wgt id="539">5.63975e-12</wgt>
  <wgt id="540">5.86326e-12</wgt>
  <wgt id="541">5.75434e-12</wgt>
  <wgt id="542">5.40979e-12</wgt>
  <wgt id="543">5.32034e-12</wgt>
  <wgt id="544">5.73144e-12</wgt>
  <wgt id="545">5.23972e-12</wgt>
  <wgt id="546">5.10715e-12</wgt>
  <wgt id="547">5.41003e-12</wgt>
  <wgt id="548">5.81632e-12</wgt>
  <wgt id="549">5.67443e-12</wgt>
  <wgt id="550">5.16699e-12</wgt>
  <wgt id="551">5.61839e-12</wgt>
  <wgt id="552">5.53855e-12</wgt>
  <wgt id="553">5.05829e-12</wgt>
  <wgt id="554">5.94936e-12</wgt>
  <wgt id="555">5.86377e-12</wgt>
  <wgt id="556">5.86029e-12</wgt>
  <wgt id="557">5.71904e-12</wgt>
  <wgt id="558">5.7903e-12</wgt>
  <wgt id="559">6.06322e-12</wgt>
  <wgt id="560">6.39298e-12</wgt>
  <wgt id="561">6.32706e-12</wgt>
  <wgt id="562">6.06736e-12</wgt>
  <wgt id="563">6.32224e-12</wgt>
  <wgt id="564">6.36627e-12</wgt>
  <wgt id="565">6.53082e-12</wgt>
  <wgt id="566">5.14138e-12</wgt>
  <wgt id="567">5.94686e-12</wgt>
  <wgt id="568">5.26386e-12</wgt>
  <wgt id="569">5.91935e-12</wgt>
  <wgt id="570">6.22807e-12</wgt>
  <wgt id="571">6.5417e-12</wgt>
  <wgt id="572">5.35758e-12</wgt>
  <wgt id="573">5.63777e-12</wgt>
  <wgt id="574">5.76419e-12</wgt>
  <wgt id="575">6.34249e-12</wgt>
  <wgt id="576">7.30062e-12</wgt>
  <wgt id="577">6.36992e-12</wgt>
  <wgt id="578">6.02607e-12</wgt>
  <wgt id="579">6.61042e-12</wgt>
  <wgt id="580">6.61754e-12</wgt>
  <wgt id="581">7.04015e-12</wgt>
  <wgt id="582">7.02877e-12</wgt>
  <wgt id="583">6.72795e-12</wgt>
  <wgt id="584">6.32026e-12</wgt>
  <wgt id="585">5.6177e-12</wgt>
  <wgt id="586">5.83147e-12</wgt>
  <wgt id="587">6.50452e-12</wgt>
  <wgt id="588">7.71853e-12</wgt>
  <wgt id="589">7.43837e-12</wgt>
  <wgt id="590">6.46013e-12</wgt>
  <wgt id="591">6.56578e-12</wgt>
  <wgt id="592">6.12731e-12</wgt>
  <wgt id="593">6.04304e-12</wgt>
  <wgt id="594">5.83791e-12</wgt>
  <wgt id="595">7.1652e-12</wgt>
  <wgt id="596">7.42738e-12</wgt>
  <wgt id="597">6.52075e-12</wgt>
  <wgt id="598">6.82972e-12</wgt>
  <wgt id="599">7.04507e-12</wgt>
  <wgt id="600">7.54344e-12</wgt>
  <wgt id="601">6.0027e-12</wgt>
  <wgt id="602">5.86903e-12</wgt>
  <wgt id="603">5.6023e-12</wgt>
  <wgt id="604">6.76056e-12</wgt>
  <wgt id="605">6.16516e-12</wgt>
  <wgt id="606">6.20595e-12</wgt>
  <wgt id="607">6.99275e-12</wgt>
  <wgt id="608">6.57308e-12</wgt>
  <wgt id="609">6.15292e-12</wgt>
  <wgt id="610">5.8512e-12</wgt>
  <wgt id="611">5.77438e-12</wgt>
  <wgt id="612">6.29833e-12</wgt>
  <wgt id="613">5.82551e-12</wgt>
  <wgt id="614">6.37217e-12</wgt>
  <wgt id="615">6.80918e-12</wgt>
  <wgt id="616">5.46575e-12</wgt>
  <wgt id="617">6.68613e-12</wgt>
  <wgt id="618">7.08948e-12</wgt>
  <wgt id="619">6.22148e-12</wgt>
  <wgt id="620">6.44509e-12</wgt>
  <wgt id="621">6.23474e-12</wgt>
  <wgt id="622">6.50452e-12</wgt>
  <wgt id="623">6.20123e-12</wgt>
  <wgt id="624">6.248e-12</wgt>
  <wgt id="625">5.90279e-12</wgt>
  <wgt id="626">4.77829e-12</wgt>
  <wgt id="627">5.40169e-12</wgt>
  <wgt id="628">6.26965e-12</wgt>
  <wgt id="629">7.50968e-12</wgt>
  <wgt id="630">6.28521e-12</wgt>
  <wgt id="631">6.82045e-12</wgt>
  <wgt id="632">5.65742e-12</wgt>
  <wgt id="633">6.28289e-12</wgt>
  <wgt id="634">5.85666e-12</wgt>
  <wgt id="635">5.85113e-12</wgt>
  <wgt id="636">6.20057e-12</wgt>
  <wgt id="637">6.50842e-12</wgt>
  <wgt id="638">5.89946e-12</wgt>
  <wgt id="639">5.78522e-12</wgt>
  <wgt id="640">5.90656e-12</wgt>
  <wgt id="641">6.85964e-12</wgt>
  <wgt id="642">5.22648e-12</wgt>
  <wgt id="643">6.04242e-12</wgt>
  <wgt id="644">5.76883e-12</wgt>
  <wgt id="645">6.40111e-12</wgt>
  <wgt id="646">5.2345e-12</wgt>
  <wgt id="647">6.78979e-12</wgt>
  <wgt id="648">6.98565e-12</wgt>
  <wgt id="649">6.48253e-12</wgt>
  <wgt id="650">6.27061e-12</wgt>
  <wgt id="651">6.75699e-12</wgt>
  <wgt id="652">5.90063e-12</wgt>
  <wgt id="653">6.00097e-12</wgt>
  <wgt id="654">6.37257e-12</wgt>
  <wgt id="655">5.6924e-12</wgt>
  <wgt id="656">6.49724e-12</wgt>
  <wgt id="657">7.15906e-12</wgt>
  <wgt id="658">6.14817e-12</wgt>
  <wgt id="659">6.1277e-12</wgt>
  <wgt id="660">5.72917e-12</wgt>
  <wgt id="661">6.03721e-12</wgt>
  <wgt id="662">6.28511e-12</wgt>
  <wgt id="663">6.62916e-12</wgt>
  <wgt id="664">6.75001e-12</wgt>
  <wgt id="665">6.0911e-12</wgt>
  <wgt id="666">6.09832e-12</wgt>
  <wgt id="667">6.75948e-12</wgt>
  <wgt id="668">6.13958e-12</wgt>
  <wgt id="669">6.09314e-12</wgt>
  <wgt id="670">6.83772e-12</wgt>
  <wgt id="671">6.55025e-12</wgt>
  <wgt id="672">6.64637e-12</wgt>
  <wgt id="673">7.16155e-12</wgt>
  <wgt id="674">6.01933e-12</wgt>
  <wgt id="675">5.83907e-12</wgt>
  <wgt id="676">8.39239e-12</wgt>
  <wgt id="677">8.37752e-12</wgt>
  <wgt id="678">9.70881e-12</wgt>
  <wgt id="679">9.58246e-12</wgt>
  <wgt id="680">8.5782e-12</wgt>
  <wgt id="681">7.94891e-12</wgt>
  <wgt id="682">9.03409e-12</wgt>
  <wgt id="683">7.15232e-12</wgt>
  <wgt id="684">9.2428e-12</wgt>
  <wgt id="685">8.66162e-12</wgt>
  <wgt id="686">9.08219e-12</wgt>
  <wgt id="687">8.41429e-12</wgt>
  <wgt id="688">8.15587e-12</wgt>
  <wgt id="689">9.15513e-12</wgt>
  <wgt id="690">8.79209e-12</wgt>
  <wgt id="691">8.63553e-12</wgt>
  <wgt id="692">7.97576e-12</wgt>
  <wgt id="693">1.28525e-11</wgt>
  <wgt id="694">9.73918e-12</wgt>
  <wgt id="695">7.30434e-12</wgt>
  <wgt id="696">7.5823e-12</wgt>
  <wgt id="697">6.82087e-12</wgt>
  <wgt id="698">6.11203e-12</wgt>
  <wgt id="699">6.79903e-12</wgt>
  <wgt id="700">7.2406e-12</wgt>
  <wgt id="701">8.42103e-12</wgt>
  <wgt id="702">7.62634e-12</wgt>
  <wgt id="703">1.17394e-11</wgt>
  <wgt id="704">9.75728e-12</wgt>
  <wgt id="705">9.56084e-12</wgt>
  <wgt id="706">7.28822e-12</wgt>
  <wgt id="707">7.55678e-12</wgt>
  <wgt id="708">7.49362e-12</wgt>
  <wgt id="709">7.83535e-12</wgt>
  <wgt id="710">5.57371e-12</wgt>
  <wgt id="711">9.65629e-12</wgt>
  <wgt id="712">7.65834e-12</wgt>
  <wgt id="713">9.08977e-12</wgt>
  <wgt id="714">6.8605e-12</wgt>
  <wgt id="715">7.57071e-12</wgt>
  <wgt id="716">7.88826e-12</wgt>
  <wgt id="717">6.46355e-12</wgt>
  <wgt id="718">8.59579e-12</wgt>
  <wgt id="719">7.74805e-12</wgt>
  <wgt id="720">9.08303e-12</wgt>
  <wgt id="721">6.89744e-12</wgt>
  <wgt id="722">5.36247e-12</wgt>
  <wgt id="723">1.02595e-11</wgt>
  <wgt id="724">9.48926e-12</wgt>
  <wgt id="725">8.96191e-12</wgt>
  <wgt id="726">8.27779e-12</wgt>
  <wgt id="727">8.65241e-12</wgt>
  <wgt id="728">8.89038e-12</wgt>
  <wgt id="729">6.59159e-12</wgt>
  <wgt id="730">9.80069e-12</wgt>
  <wgt id="731">8.35846e-12</wgt>
  <wgt id="732">1.02942e-11</wgt>
  <wgt id="733">7.39448e-12</wgt>
  <wgt id="734">8.84862e-12</wgt>
  <wgt id="735">7.94754e-12</wgt>
  <wgt id="736">7.34605e-12</wgt>
  <wgt id="737">6.29236e-12</wgt>
  <wgt id="738">7.80455e-12</wgt>
  <wgt id="739">8.52813e-12</wgt>
  <wgt id="740">1.09484e-11</wgt>
  <wgt id="741">9.73494e-12</wgt>
  <wgt id="742">7.16072e-12</wgt>
  <wgt id="743">7.42212e-12</wgt>
  <wgt id="744">7.98703e-12</wgt>
  <wgt id="745">9.87351e-12</wgt>
  <wgt id="746">1.02109e-11</wgt>
  <wgt id="747">6.48507e-12</wgt>
  <wgt id="748">7.81046e-12</wgt>
  <wgt id="749">9.06659e-12</wgt>
  <wgt id="750">9.36804e-12</wgt>
  <wgt id="751">8.58607e-12</wgt>
  <wgt id="752">7.26525e-12</wgt>
  <wgt id="753">7.07099e-12</wgt>
  <wgt id="754">8.78551e-12</wgt>
  <wgt id="755">7.88955e-12</wgt>
  <wgt id="756">7.84998e-12</wgt>
  <wgt id="757">6.73239e-12</wgt>
  <wgt id="758">8.10373e-12</wgt>
  <wgt id="759">9.12132e-12</wgt>
  <wgt id="760">7.54275e-12</wgt>
  <wgt id="761">1.00268e-11</wgt>
  <wgt id="762">1.01227e-11</wgt>
  <wgt id="763">9.44783e-12</wgt>
  <wgt id="764">9.52512e-12</wgt>
  <wgt id="765">8.6652e-12</wgt>
  <wgt id="766">8.8504e-12</wgt>
  <wgt id="767">8.75787e-12</wgt>
  <wgt id="768">7.25074e-12</wgt>
  <wgt id="769">8.72213e-12</wgt>
  <wgt id="770">6.9357e-12</wgt>
  <wgt id="771">1.12722e-11</wgt>
  <wgt id="772">7.97636e-12</wgt>
  <wgt id="773">8.77239e-12</wgt>
  <wgt id="774">6.19114e-12</wgt>
  <wgt id="775">8.97364e-12</wgt>
  <wgt id="776">1.10743e-11</wgt>
  <wgt id="777">6.38775e-12</wgt>
  <wgt id="778">4.43587e-12</wgt>
  <wgt id="779">1.29569e-12</wgt>
  <wgt id="780">3.53984e-20</wgt>
  <wgt id="781">4.64607e-12</wgt>
  <wgt id="782">5.66759e-12</wgt>
  <wgt id="783">6.57447e-15</wgt>
  <wgt id="784">1.40458e-12</wgt>
  <wgt id="785">8.10918e-12</wgt>
  <wgt id="786">3.50127e-20</wgt>
  <wgt id="787">7.12339e-12</wgt>
  <wgt id="788">3.42381e-20</wgt>
  <wgt id="789">1.18717e-12</wgt>
  <wgt id="790">2.05291e-13</wgt>
  <wgt id="791">5.55055e-12</wgt>
  <wgt id="792">6.45583e-12</wgt>
  <wgt id="793">3.05644e-12</wgt>
  <wgt id="794">3.54172e-20</wgt>
  <wgt id="795">7.81564e-12</wgt>
  <wgt id="796">7.83786e-12</wgt>
  <wgt id="797">6.56128e-12</wgt>
  <wgt id="798">2.22517e-12</wgt>
  <wgt id="799">7.38522e-12</wgt>
  <wgt id="800">2.30521e-12</wgt>
  <wgt id="801">5.8345e-12</wgt>
  <wgt id="802">3.59813e-20</wgt>
  <wgt id="803">8.20613e-12</wgt>
  <wgt id="804">7.98074e-12</wgt>
  <wgt id="805">7.61316e-12</wgt>
  <wgt id="806">5.73305e-12</wgt>
  <wgt id="807">4.60157e-12</wgt>
  <wgt id="808">4.8291e-12</wgt>
  <wgt id="809">3.43412e-12</wgt>
  <wgt id="810">8.74625e-12</wgt>
  <wgt id="811">5.06225e-12</wgt>
  <wgt id="812">3.58622e-20</wgt>
  <wgt id="813">4.5067e-13</wgt>
  <wgt id="814">1.95582e-12</wgt>
  <wgt id="815">3.39642e-13</wgt>
  <wgt id="816">1.05072e-12</wgt>
  <wgt id="817">5.03786e-12</wgt>
  <wgt id="818">7.48134e-12</wgt>
  <wgt id="819">1.14355e-12</wgt>
  <wgt id="820">3.63849e-12</wgt>
  <wgt id="821">6.37415e-12</wgt>
  <wgt id="822">2.76897e-12</wgt>
  <wgt id="823">7.23719e-12</wgt>
  <wgt id="824">7.45186e-12</wgt>
  <wgt id="825">3.51948e-20</wgt>
  <wgt id="826">7.60134e-12</wgt>
  <wgt id="827">3.49102e-20</wgt>
  <wgt id="828">6.39449e-12</wgt>
  <wgt id="829">4.84658e-12</wgt>
  <wgt id="830">3.50452e-20</wgt>
  <wgt id="831">6.50671e-12</wgt>
  <wgt id="832">1.03409e-11</wgt>
  <wgt id="833">2.71493e-12</wgt>
  <wgt id="834">1.04341e-11</wgt>
  <wgt id="835">1.47028e-12</wgt>
  <wgt id="836">2.3014e-12</wgt>
  <wgt id="837">6.20675e-12</wgt>
  <wgt id="838">2.17977e-12</wgt>
  <wgt id="839">6.85926e-12</wgt>
  <wgt id="840">3.45845e-12</wgt>
  <wgt id="841">7.58451e-12</wgt>
  <wgt id="842">4.99077e-12</wgt>
  <wgt id="843">4.68258e-12</wgt>
  <wgt id="844">6.01997e-12</wgt>
  <wgt id="845">1.08018e-11</wgt>
  <wgt id="846">3.03947e-12</wgt>
  <wgt id="847">5.48989e-12</wgt>
  <wgt id="848">2.52886e-13</wgt>
  <wgt id="849">5.99234e-12</wgt>
  <wgt id="850">9.46779e-12</wgt>
  <wgt id="851">6.42155e-12</wgt>
  <wgt id="852">3.55172e-20</wgt>
  <wgt id="853">6.78603e-12</wgt>
  <wgt id="854">8.42017e-12</wgt>
  <wgt id="855">6.36477e-12</wgt>
  <wgt id="856">3.5022e-20</wgt>
  <wgt id="857">2.70903e-12</wgt>
  <wgt id="858">4.94442e-12</wgt>
  <wgt id="859">4.32114e-12</wgt>
  <wgt id="860">6.27394e-12</wgt>
  <wgt id="861">2.61412e-12</wgt>
  <wgt id="862">5.14503e-12</wgt>
  <wgt id="863">6.29413e-12</wgt>
  <wgt id="864">4.56172e-12</wgt>
  <wgt id="865">9.59372e-12</wgt>
  <wgt id="866">1.02232e-11</wgt>
  <wgt id="867">4.55896e-12</wgt>
  <wgt id="868">5.68334e-12</wgt>
  <wgt id="869">1.74198e-13</wgt>
  <wgt id="870">1.88057e-12</wgt>
  <wgt id="871">2.82356e-12</wgt>
  <wgt id="872">9.17801e-12</wgt>
  <wgt id="873">2.77256e-12</wgt>
  <wgt id="874">5.88508e-12</wgt>
  <wgt id="875">2.01047e-12</wgt>
  <wgt id="876">8.35455e-12</wgt>
  <wgt id="877">5.92502e-12</wgt>
  <wgt id="878">2.79254e-12</wgt>
  <wgt id="879">8.39239e-12</wgt>
  <wgt id="880">8.37752e-12</wgt>
  <wgt id="881">9.70881e-12</wgt>
  <wgt id="882">9.58246e-12</wgt>
  <wgt id="883">8.5782e-12</wgt>
  <wgt id="884">7.94891e-12</wgt>
  <wgt id="885">9.03409e-12</wgt>
  <wgt id="886">7.15232e-12</wgt>
  <wgt id="887">9.2428e-12</wgt>
  <wgt id="888">8.66162e-12</wgt>
  <wgt id="889">9.08219e-12</wgt>
  <wgt id="890">8.41429e-12</wgt>
  <wgt id="891">8.15587e-12</wgt>
  <wgt id="892">9.15513e-12</wgt>
  <wgt id="893">8.79209e-12</wgt>
  <wgt id="894">8.63553e-12</wgt>
  <wgt id="895">7.97576e-12</wgt>
  <wgt id="896">1.28525e-11</wgt>
  <wgt id="897">9.73918e-12</wgt>
  <wgt id="898">7.30434e-12</wgt>
  <wgt id="899">7.5823e-12</wgt>
  <wgt id="900">6.82087e-12</wgt>
  <wgt id="901">6.11203e-12</wgt>
  <wgt id="902">6.79903e-12</wgt>
  <wgt id="903">7.2406e-12</wgt>
  <wgt id="904">8.42103e-12</wgt>
  <wgt id="905">7.62634e-12</wgt>
  <wgt id="906">1.17394e-11</wgt>
  <wgt id="907">9.75728e-12</wgt>
  <wgt id="908">9.56084e-12</wgt>
  <wgt id="909">7.28822e-12</wgt>
  <wgt id="910">7.55678e-12</wgt>
  <wgt id="911">7.49362e-12</wgt>
  <wgt id="912">7.83535e-12</wgt>
  <wgt id="913">5.57371e-12</wgt>
  <wgt id="914">9.65629e-12</wgt>
  <wgt id="915">7.65834e-12</wgt>
  <wgt id="916">9.08977e-12</wgt>
  <wgt id="917">6.8605e-12</wgt>
  <wgt id="918">7.57071e-12</wgt>
  <wgt id="919">7.88826e-12</wgt>
  <wgt id="920">6.46355e-12</wgt>
  <wgt id="921">8.59579e-12</wgt>
  <wgt id="922">7.74805e-12</wgt>
  <wgt id="923">9.08303e-12</wgt>
  <wgt id="924">6.89744e-12</wgt>
  <wgt id="925">5.36247e-12</wgt>
  <wgt id="926">1.02595e-11</wgt>
  <wgt id="927">9.48926e-12</wgt>
  <wgt id="928">8.96191e-12</wgt>
  <wgt id="929">8.27779e-12</wgt>
  <wgt id="930">8.65241e-12</wgt>
  <wgt id="931">8.89038e-12</wgt>
  <wgt id="932">6.59159e-12</wgt>
  <wgt id="933">9.80069e-12</wgt>
  <wgt id="934">8.35846e-12</wgt>
  <wgt id="935">1.02942e-11</wgt>
  <wgt id="936">7.39448e-12</wgt>
  <wgt id="937">8.84862e-12</wgt>
  <wgt id="938">7.94754e-12</wgt>
  <wgt id="939">7.34605e-12</wgt>
  <wgt id="940">6.29236e-12</wgt>
  <wgt id="941">7.80455e-12</wgt>
  <wgt id="942">8.52813e-12</wgt>
  <wgt id="943">1.09484e-11</wgt>
  <wgt id="944">9.73494e-12</wgt>
  <wgt id="945">7.16072e-12</wgt>
  <wgt id="946">7.42212e-12</wgt>
  <wgt id="947">7.98703e-12</wgt>
  <wgt id="948">9.87351e-12</wgt>
  <wgt id="949">1.02109e-11</wgt>
  <wgt id="950">6.48507e-12</wgt>
  <wgt id="951">7.81046e-12</wgt>
  <wgt id="952">9.06659e-12</wgt>
  <wgt id="953">9.36804e-12</wgt>
  <wgt id="954">8.58607e-12</wgt>
  <wgt id="955">7.26525e-12</wgt>
  <wgt id="956">7.07099e-12</wgt>
  <wgt id="957">8.78551e-12</wgt>
  <wgt id="958">7.88955e-12</wgt>
  <wgt id="959">7.84998e-12</wgt>
  <wgt id="960">6.73239e-12</wgt>
  <wgt id="961">8.10373e-12</wgt>
  <wgt id="962">9.12132e-12</wgt>
  <wgt id="963">7.54275e-12</wgt>
  <wgt id="964">1.00268e-11</wgt>
  <wgt id="965">1.01227e-11</wgt>
  <wgt id="966">9.44783e-12</wgt>
  <wgt id="967">9.52512e-12</wgt>
  <wgt id="968">8.6652e-12</wgt>
  <wgt id="969">8.8504e-12</wgt>
  <wgt id="970">8.75787e-12</wgt>
  <wgt id="971">7.25074e-12</wgt>
  <wgt id="972">8.72213e-12</wgt>
  <wgt id="973">6.9357e-12</wgt>
  <wgt id="974">1.12722e-11</wgt>
  <wgt id="975">7.97636e-12</wgt>
  <wgt id="976">8.77239e-12</wgt>
  <wgt id="977">6.19114e-12</wgt>
  <wgt id="978">8.97364e-12</wgt>
  <wgt id="979">1.10743e-11</wgt>
  <wgt id="980">8.30929e-12</wgt>
  <wgt id="981">8.82157e-12</wgt>
  <wgt id="982">8.24439e-12</wgt>
</rwgt>
</event>
<event>
 5   1  0.5790000E-11  0.2201745E+04  0.7818608E-02  0.7748212E-01
       21   -1    0    0  502  501  0.00000000000E+00  0.00000000000E+00  0.24651173267E+04  0.24651173267E+04  0.00000000000E+00 0. -1.
       21   -1    0    0  501  502 -0.00000000000E+00 -0.00000000000E+00 -0.49162796118E+03  0.49162796118E+03  0.00000000000E+00 0.  1.
       39    2    1    2    0    0  0.00000000000E+00  0.00000000000E+00  0.19734893655E+04  0.29567452879E+04  0.22017453126E+04 0.  0.
       25    1    3    3    0    0  0.88882153753E+03  0.58489460188E+03  0.64650799256E+03  0.12512805462E+04  0.12500000000E+03 0.  0.
       25    1    3    3    0    0 -0.88882153753E+03 -0.58489460188E+03  0.13269813730E+04  0.17054647417E+04  0.12500000000E+03 0.  0.
<mgrwt>
<rscale>  0 0.22017453E+04</rscale>
<asrwt>0</asrwt>
<pdfrwt beam="1">  1       21 0.37924881E+00 0.22017453E+04</pdfrwt>
<pdfrwt beam="2">  1       21 0.75635072E-01 0.22017453E+04</pdfrwt>
<totfact> 0.63933731E+00</totfact>
</mgrwt>
<rwgt>
  <wgt id="1">5.79e-12</wgt>
  <wgt id="2">4.96894e-12</wgt>
  <wgt id="3">6.82733e-12</wgt>
  <wgt id="4">5.79e-12</wgt>
  <wgt id="5">4.96894e-12</wgt>
  <wgt id="6">6.82733e-12</wgt>
  <wgt id="7">5.79e-12</wgt>
  <wgt id="8">4.96894e-12</wgt>
  <wgt id="9">6.82733e-12</wgt>
  <wgt id="10">6.15017e-12</wgt>
  <wgt id="11">6.15287e-12</wgt>
  <wgt id="12">6.1296e-12</wgt>
  <wgt id="13">6.14423e-12</wgt>
  <wgt id="14">6.15959e-12</wgt>
  <wgt id="15">6.15732e-12</wgt>
  <wgt id="16">6.12172e-12</wgt>
  <wgt id="17">6.19753e-12</wgt>
  <wgt id="18">6.14829e-12</wgt>
  <wgt id="19">6.18435e-12</wgt>
  <wgt id="20">6.15832e-12</wgt>
  <wgt id="21">6.09137e-12</wgt>
  <wgt id="22">6.09571e-12</wgt>
  <wgt id="23">6.03741e-12</wgt>
  <wgt id="24">6.09533e-12</wgt>
  <wgt id="25">6.13074e-12</wgt>
  <wgt id="26">6.164e-12</wgt>
  <wgt id="27">6.13441e-12</wgt>
  <wgt id="28">6.1086e-12</wgt>
  <wgt id="29">6.15041e-12</wgt>
  <wgt id="30">6.08652e-12</wgt>
  <wgt id="31">6.17573e-12</wgt>
  <wgt id="32">6.08123e-12</wgt>
  <wgt id="33">6.15469e-12</wgt>
  <wgt id="34">6.09574e-12</wgt>
  <wgt id="35">6.08385e-12</wgt>
  <wgt id="36">6.18627e-12</wgt>
  <wgt id="37">6.12971e-12</wgt>
  <wgt id="38">6.11548e-12</wgt>
  <wgt id="39">6.28598e-12</wgt>
  <wgt id="40">6.16534e-12</wgt>
  <wgt id="41">6.14574e-12</wgt>
  <wgt id="42">6.16224e-12</wgt>
  <wgt id="43">6.16168e-12</wgt>
  <wgt id="44">6.20508e-12</wgt>
  <wgt id="45">6.15968e-12</wgt>
  <wgt id="46">6.10492e-12</wgt>
  <wgt id="47">6.26077e-12</wgt>
  <wgt id="48">6.21933e-12</wgt>
  <wgt id="49">6.11234e-12</wgt>
  <wgt id="50">6.06468e-12</wgt>
  <wgt id="51">6.08901e-12</wgt>
  <wgt id="52">6.1641e-12</wgt>
  <wgt id="53">6.28745e-12</wgt>
  <wgt id="54">6.20458e-12</wgt>
  <wgt id="55">6.13192e-12</wgt>
  <wgt id="56">6.05019e-12</wgt>
  <wgt id="57">6.06298e-12</wgt>
  <wgt id="58">6.15117e-12</wgt>
  <wgt id="59">6.17947e-12</wgt>
  <wgt id="60">6.04808e-12</wgt>
  <wgt id="61">6.14338e-12</wgt>
  <wgt id="62">6.17569e-12</wgt>
  <wgt id="63">6.14267e-12</wgt>
  <wgt id="64">6.13932e-12</wgt>
  <wgt id="65">6.09528e-12</wgt>
  <wgt id="66">6.18728e-12</wgt>
  <wgt id="67">6.19916e-12</wgt>
  <wgt id="68">6.14655e-12</wgt>
  <wgt id="69">6.13451e-12</wgt>
  <wgt id="70">6.09646e-12</wgt>
  <wgt id="71">6.17934e-12</wgt>
  <wgt id="72">6.15365e-12</wgt>
  <wgt id="73">6.14421e-12</wgt>
  <wgt id="74">6.1967e-12</wgt>
  <wgt id="75">6.10005e-12</wgt>
  <wgt id="76">6.20179e-12</wgt>
  <wgt id="77">6.13216e-12</wgt>
  <wgt id="78">6.14409e-12</wgt>
  <wgt id="79">6.16409e-12</wgt>
  <wgt id="80">6.0926e-12</wgt>
  <wgt id="81">6.13959e-12</wgt>
  <wgt id="82">6.15647e-12</wgt>
  <wgt id="83">6.0931e-12</wgt>
  <wgt id="84">6.10674e-12</wgt>
  <wgt id="85">6.10385e-12</wgt>
  <wgt id="86">6.20675e-12</wgt>
  <wgt id="87">6.05654e-12</wgt>
  <wgt id="88">6.1799e-12</wgt>
  <wgt id="89">6.17358e-12</wgt>
  <wgt id="90">6.1857e-12</wgt>
  <wgt id="91">6.15786e-12</wgt>
  <wgt id="92">6.18031e-12</wgt>
  <wgt id="93">6.15816e-12</wgt>
  <wgt id="94">6.11824e-12</wgt>
  <wgt id="95">6.17942e-12</wgt>
  <wgt id="96">6.18144e-12</wgt>
  <wgt id="97">6.10529e-12</wgt>
  <wgt id="98">6.1526e-12</wgt>
  <wgt id="99">6.14506e-12</wgt>
  <wgt id="100">6.16294e-12</wgt>
  <wgt id="101">6.12865e-12</wgt>
  <wgt id="102">6.13171e-12</wgt>
  <wgt id="103">6.18212e-12</wgt>
  <wgt id="104">6.14141e-12</wgt>
  <wgt id="105">6.18467e-12</wgt>
  <wgt id="106">6.12046e-12</wgt>
  <wgt id="107">6.20744e-12</wgt>
  <wgt id="108">6.13267e-12</wgt>
  <wgt id="109">6.14424e-12</wgt>
  <wgt id="110">6.15353e-12</wgt>
  <wgt id="111">6.09005e-12</wgt>
  <wgt id="112">6.26552e-12</wgt>
  <wgt id="113">9.2342e-12</wgt>
  <wgt id="114">7.89574e-12</wgt>
  <wgt id="115">7.7344e-12</wgt>
  <wgt id="116">1.04817e-11</wgt>
  <wgt id="117">6.69824e-12</wgt>
  <wgt id="118">6.72319e-12</wgt>
  <wgt id="119">6.68396e-12</wgt>
  <wgt id="120">6.69817e-12</wgt>
  <wgt id="121">6.69815e-12</wgt>
  <wgt id="122">6.68818e-12</wgt>
  <wgt id="123">6.71202e-12</wgt>
  <wgt id="124">6.68955e-12</wgt>
  <wgt id="125">6.70356e-12</wgt>
  <wgt id="126">6.70549e-12</wgt>
  <wgt id="127">6.69344e-12</wgt>
  <wgt id="128">6.71807e-12</wgt>
  <wgt id="129">6.67853e-12</wgt>
  <wgt id="130">6.72626e-12</wgt>
  <wgt id="131">6.66893e-12</wgt>
  <wgt id="132">6.50592e-12</wgt>
  <wgt id="133">6.92785e-12</wgt>
  <wgt id="134">6.62817e-12</wgt>
  <wgt id="135">6.75324e-12</wgt>
  <wgt id="136">6.81247e-12</wgt>
  <wgt id="137">6.56129e-12</wgt>
  <wgt id="138">7.03386e-12</wgt>
  <wgt id="139">6.38371e-12</wgt>
  <wgt id="140">6.67538e-12</wgt>
  <wgt id="141">6.71442e-12</wgt>
  <wgt id="142">6.69499e-12</wgt>
  <wgt id="143">6.72553e-12</wgt>
  <wgt id="144">6.36148e-12</wgt>
  <wgt id="145">7.03499e-12</wgt>
  <wgt id="146">6.80983e-12</wgt>
  <wgt id="147">6.60567e-12</wgt>
  <wgt id="148">6.72402e-12</wgt>
  <wgt id="149">6.69639e-12</wgt>
  <wgt id="150">6.75285e-12</wgt>
  <wgt id="151">6.67248e-12</wgt>
  <wgt id="152">6.69879e-12</wgt>
  <wgt id="153">6.69785e-12</wgt>
  <wgt id="154">6.68521e-12</wgt>
  <wgt id="155">6.69182e-12</wgt>
  <wgt id="156">6.99273e-12</wgt>
  <wgt id="157">6.44471e-12</wgt>
  <wgt id="158">7.98974e-12</wgt>
  <wgt id="159">8.02474e-12</wgt>
  <wgt id="160">7.96191e-12</wgt>
  <wgt id="161">7.96989e-12</wgt>
  <wgt id="162">8.0122e-12</wgt>
  <wgt id="163">7.98115e-12</wgt>
  <wgt id="164">8.00309e-12</wgt>
  <wgt id="165">7.99291e-12</wgt>
  <wgt id="166">7.98787e-12</wgt>
  <wgt id="167">7.98456e-12</wgt>
  <wgt id="168">7.99747e-12</wgt>
  <wgt id="169">7.95787e-12</wgt>
  <wgt id="170">8.01001e-12</wgt>
  <wgt id="171">7.98675e-12</wgt>
  <wgt id="172">7.99459e-12</wgt>
  <wgt id="173">7.96577e-12</wgt>
  <wgt id="174">7.9986e-12</wgt>
  <wgt id="175">7.7545e-12</wgt>
  <wgt id="176">8.2991e-12</wgt>
  <wgt id="177">8.02042e-12</wgt>
  <wgt id="178">7.96269e-12</wgt>
  <wgt id="179">8.44672e-12</wgt>
  <wgt id="180">7.29724e-12</wgt>
  <wgt id="181">7.70106e-12</wgt>
  <wgt id="182">8.18416e-12</wgt>
  <wgt id="183">7.81503e-12</wgt>
  <wgt id="184">8.077e-12</wgt>
  <wgt id="185">7.88643e-12</wgt>
  <wgt id="186">8.1145e-12</wgt>
  <wgt id="187">7.88551e-12</wgt>
  <wgt id="188">8.17236e-12</wgt>
  <wgt id="189">7.92051e-12</wgt>
  <wgt id="190">8.01836e-12</wgt>
  <wgt id="191">8.02345e-12</wgt>
  <wgt id="192">7.96981e-12</wgt>
  <wgt id="193">8.13692e-12</wgt>
  <wgt id="194">7.91516e-12</wgt>
  <wgt id="195">7.63866e-12</wgt>
  <wgt id="196">8.54686e-12</wgt>
  <wgt id="197">8.03341e-12</wgt>
  <wgt id="198">7.97937e-12</wgt>
  <wgt id="199">7.98974e-12</wgt>
  <wgt id="200">8.07334e-12</wgt>
  <wgt id="201">8.04667e-12</wgt>
  <wgt id="202">8.01954e-12</wgt>
  <wgt id="203">7.98408e-12</wgt>
  <wgt id="204">7.96457e-12</wgt>
  <wgt id="205">7.94867e-12</wgt>
  <wgt id="206">7.87118e-12</wgt>
  <wgt id="207">7.91862e-12</wgt>
  <wgt id="208">7.82363e-12</wgt>
  <wgt id="209">7.89267e-12</wgt>
  <wgt id="210">7.85515e-12</wgt>
  <wgt id="211">7.86867e-12</wgt>
  <wgt id="212">7.87293e-12</wgt>
  <wgt id="213">7.87015e-12</wgt>
  <wgt id="214">7.87161e-12</wgt>
  <wgt id="215">7.87659e-12</wgt>
  <wgt id="216">7.8673e-12</wgt>
  <wgt id="217">7.88504e-12</wgt>
  <wgt id="218">7.85953e-12</wgt>
  <wgt id="219">7.85891e-12</wgt>
  <wgt id="220">7.87855e-12</wgt>
  <wgt id="221">7.87807e-12</wgt>
  <wgt id="222">7.85065e-12</wgt>
  <wgt id="223">7.39841e-12</wgt>
  <wgt id="224">8.30564e-12</wgt>
  <wgt id="225">7.77254e-12</wgt>
  <wgt id="226">7.99678e-12</wgt>
  <wgt id="227">7.79482e-12</wgt>
  <wgt id="228">7.9045e-12</wgt>
  <wgt id="229">7.7549e-12</wgt>
  <wgt id="230">7.92833e-12</wgt>
  <wgt id="231">8.17026e-12</wgt>
  <wgt id="232">7.62715e-12</wgt>
  <wgt id="233">7.81222e-12</wgt>
  <wgt id="234">7.97116e-12</wgt>
  <wgt id="235">7.42698e-12</wgt>
  <wgt id="236">8.2258e-12</wgt>
  <wgt id="237">7.62306e-12</wgt>
  <wgt id="238">7.95296e-12</wgt>
  <wgt id="239">7.77304e-12</wgt>
  <wgt id="240">8.04629e-12</wgt>
  <wgt id="241">7.76264e-12</wgt>
  <wgt id="242">7.99696e-12</wgt>
  <wgt id="243">8.03878e-12</wgt>
  <wgt id="244">7.84334e-12</wgt>
  <wgt id="245">7.87013e-12</wgt>
  <wgt id="246">7.903e-12</wgt>
  <wgt id="247">7.87118e-12</wgt>
  <wgt id="248">7.96595e-12</wgt>
  <wgt id="249">7.93512e-12</wgt>
  <wgt id="250">7.89969e-12</wgt>
  <wgt id="251">7.85587e-12</wgt>
  <wgt id="252">7.83168e-12</wgt>
  <wgt id="253">7.81611e-12</wgt>
  <wgt id="254">7.51024e-12</wgt>
  <wgt id="255">7.51649e-12</wgt>
  <wgt id="256">7.50338e-12</wgt>
  <wgt id="257">7.51639e-12</wgt>
  <wgt id="258">7.5058e-12</wgt>
  <wgt id="259">7.56061e-12</wgt>
  <wgt id="260">7.46159e-12</wgt>
  <wgt id="261">7.52203e-12</wgt>
  <wgt id="262">7.49654e-12</wgt>
  <wgt id="263">7.50371e-12</wgt>
  <wgt id="264">7.51769e-12</wgt>
  <wgt id="265">7.50131e-12</wgt>
  <wgt id="266">7.52816e-12</wgt>
  <wgt id="267">7.51292e-12</wgt>
  <wgt id="268">7.50693e-12</wgt>
  <wgt id="269">7.5321e-12</wgt>
  <wgt id="270">7.49559e-12</wgt>
  <wgt id="271">7.48401e-12</wgt>
  <wgt id="272">7.53981e-12</wgt>
  <wgt id="273">7.49283e-12</wgt>
  <wgt id="274">7.52347e-12</wgt>
  <wgt id="275">7.45464e-12</wgt>
  <wgt id="276">7.56831e-12</wgt>
  <wgt id="277">7.46813e-12</wgt>
  <wgt id="278">7.54887e-12</wgt>
  <wgt id="279">7.37422e-12</wgt>
  <wgt id="280">7.68209e-12</wgt>
  <wgt id="281">7.47025e-12</wgt>
  <wgt id="282">7.53149e-12</wgt>
  <wgt id="283">7.24072e-12</wgt>
  <wgt id="284">7.85023e-12</wgt>
  <wgt id="285">7.06633e-12</wgt>
  <wgt id="286">7.89194e-12</wgt>
  <wgt id="287">7.53921e-12</wgt>
  <wgt id="288">7.47331e-12</wgt>
  <wgt id="289">7.57741e-12</wgt>
  <wgt id="290">7.36728e-12</wgt>
  <wgt id="291">7.47753e-12</wgt>
  <wgt id="292">7.50469e-12</wgt>
  <wgt id="293">7.43779e-12</wgt>
  <wgt id="294">7.58266e-12</wgt>
  <wgt id="295">7.33443e-12</wgt>
  <wgt id="296">7.72588e-12</wgt>
  <wgt id="297">7.47732e-12</wgt>
  <wgt id="298">7.55528e-12</wgt>
  <wgt id="299">7.48338e-12</wgt>
  <wgt id="300">7.58169e-12</wgt>
  <wgt id="301">7.31831e-12</wgt>
  <wgt id="302">7.93614e-12</wgt>
  <wgt id="303">7.40581e-12</wgt>
  <wgt id="304">7.56813e-12</wgt>
  <wgt id="305">7.37347e-12</wgt>
  <wgt id="306">7.37993e-12</wgt>
  <wgt id="307">7.3667e-12</wgt>
  <wgt id="308">7.37994e-12</wgt>
  <wgt id="309">7.36942e-12</wgt>
  <wgt id="310">7.42414e-12</wgt>
  <wgt id="311">7.32717e-12</wgt>
  <wgt id="312">7.38479e-12</wgt>
  <wgt id="313">7.36141e-12</wgt>
  <wgt id="314">7.36653e-12</wgt>
  <wgt id="315">7.38043e-12</wgt>
  <wgt id="316">7.3645e-12</wgt>
  <wgt id="317">7.39384e-12</wgt>
  <wgt id="318">7.37929e-12</wgt>
  <wgt id="319">7.36394e-12</wgt>
  <wgt id="320">7.39729e-12</wgt>
  <wgt id="321">7.3607e-12</wgt>
  <wgt id="322">7.34695e-12</wgt>
  <wgt id="323">7.40515e-12</wgt>
  <wgt id="324">7.36281e-12</wgt>
  <wgt id="325">7.38286e-12</wgt>
  <wgt id="326">7.32721e-12</wgt>
  <wgt id="327">7.43343e-12</wgt>
  <wgt id="328">7.33755e-12</wgt>
  <wgt id="329">7.39319e-12</wgt>
  <wgt id="330">7.5786e-12</wgt>
  <wgt id="331">7.17961e-12</wgt>
  <wgt id="332">7.3404e-12</wgt>
  <wgt id="333">7.38861e-12</wgt>
  <wgt id="334">7.17353e-12</wgt>
  <wgt id="335">7.62647e-12</wgt>
  <wgt id="336">7.06558e-12</wgt>
  <wgt id="337">7.76062e-12</wgt>
  <wgt id="338">7.47234e-12</wgt>
  <wgt id="339">7.28361e-12</wgt>
  <wgt id="340">7.43161e-12</wgt>
  <wgt id="341">7.23473e-12</wgt>
  <wgt id="342">7.35185e-12</wgt>
  <wgt id="343">7.35003e-12</wgt>
  <wgt id="344">7.31203e-12</wgt>
  <wgt id="345">7.44556e-12</wgt>
  <wgt id="346">7.19739e-12</wgt>
  <wgt id="347">7.5747e-12</wgt>
  <wgt id="348">7.34165e-12</wgt>
  <wgt id="349">7.41551e-12</wgt>
  <wgt id="350">7.34116e-12</wgt>
  <wgt id="351">7.4566e-12</wgt>
  <wgt id="352">7.18713e-12</wgt>
  <wgt id="353">7.77013e-12</wgt>
  <wgt id="354">7.23186e-12</wgt>
  <wgt id="355">7.45626e-12</wgt>
  <wgt id="356">7.51024e-12</wgt>
  <wgt id="357">7.36067e-12</wgt>
  <wgt id="358">7.37347e-12</wgt>
  <wgt id="359">7.48676e-12</wgt>
  <wgt id="360">7.70444e-12</wgt>
  <wgt id="361">7.56135e-12</wgt>
  <wgt id="362">7.72941e-12</wgt>
  <wgt id="363">7.70828e-12</wgt>
  <wgt id="364">7.66108e-12</wgt>
  <wgt id="365">7.62917e-12</wgt>
  <wgt id="366">7.59841e-12</wgt>
  <wgt id="367">7.54289e-12</wgt>
  <wgt id="368">7.50399e-12</wgt>
  <wgt id="369">7.46184e-12</wgt>
  <wgt id="370">7.56135e-12</wgt>
  <wgt id="371">7.59018e-12</wgt>
  <wgt id="372">7.57347e-12</wgt>
  <wgt id="373">7.5512e-12</wgt>
  <wgt id="374">7.57011e-12</wgt>
  <wgt id="375">9.16607e-12</wgt>
  <wgt id="376">9.16577e-12</wgt>
  <wgt id="377">9.1659e-12</wgt>
  <wgt id="378">9.2023e-12</wgt>
  <wgt id="379">9.12973e-12</wgt>
  <wgt id="380">9.19348e-12</wgt>
  <wgt id="381">9.15473e-12</wgt>
  <wgt id="382">9.20289e-12</wgt>
  <wgt id="383">9.12933e-12</wgt>
  <wgt id="384">9.17196e-12</wgt>
  <wgt id="385">9.16022e-12</wgt>
  <wgt id="386">9.18742e-12</wgt>
  <wgt id="387">9.15669e-12</wgt>
  <wgt id="388">9.15883e-12</wgt>
  <wgt id="389">9.17406e-12</wgt>
  <wgt id="390">9.18262e-12</wgt>
  <wgt id="391">9.14845e-12</wgt>
  <wgt id="392">9.07739e-12</wgt>
  <wgt id="393">9.21593e-12</wgt>
  <wgt id="394">9.16761e-12</wgt>
  <wgt id="395">9.16344e-12</wgt>
  <wgt id="396">9.1878e-12</wgt>
  <wgt id="397">9.15047e-12</wgt>
  <wgt id="398">9.16638e-12</wgt>
  <wgt id="399">9.16559e-12</wgt>
  <wgt id="400">9.15207e-12</wgt>
  <wgt id="401">9.19609e-12</wgt>
  <wgt id="402">9.0687e-12</wgt>
  <wgt id="403">9.24137e-12</wgt>
  <wgt id="404">9.47997e-12</wgt>
  <wgt id="405">8.42673e-12</wgt>
  <wgt id="406">8.93777e-12</wgt>
  <wgt id="407">9.67898e-12</wgt>
  <wgt id="408">9.28472e-12</wgt>
  <wgt id="409">8.94963e-12</wgt>
  <wgt id="410">8.80061e-12</wgt>
  <wgt id="411">9.34526e-12</wgt>
  <wgt id="412">9.14093e-12</wgt>
  <wgt id="413">9.20068e-12</wgt>
  <wgt id="414">9.02103e-12</wgt>
  <wgt id="415">9.27803e-12</wgt>
  <wgt id="416">9.54591e-12</wgt>
  <wgt id="417">8.64841e-12</wgt>
  <wgt id="418">9.19006e-12</wgt>
  <wgt id="419">9.03604e-12</wgt>
  <wgt id="420">9.46849e-12</wgt>
  <wgt id="421">8.95455e-12</wgt>
  <wgt id="422">9.07092e-12</wgt>
  <wgt id="423">9.20819e-12</wgt>
  <wgt id="424">9.52309e-12</wgt>
  <wgt id="425">8.91604e-12</wgt>
  <wgt id="426">9.16607e-12</wgt>
  <wgt id="427">8.89275e-12</wgt>
  <wgt id="428">9.74771e-12</wgt>
  <wgt id="429">9.32952e-12</wgt>
  <wgt id="430">9.68766e-12</wgt>
  <wgt id="431">9.61319e-12</wgt>
  <wgt id="432">9.5481e-12</wgt>
  <wgt id="433">9.48385e-12</wgt>
  <wgt id="434">9.39896e-12</wgt>
  <wgt id="435">9.24305e-12</wgt>
  <wgt id="436">9.16589e-12</wgt>
  <wgt id="437">9.08864e-12</wgt>
  <wgt id="438">9.32952e-12</wgt>
  <wgt id="439">9.35602e-12</wgt>
  <wgt id="440">9.33826e-12</wgt>
  <wgt id="441">9.32419e-12</wgt>
  <wgt id="442">9.32055e-12</wgt>
  <wgt id="443">7.86976e-12</wgt>
  <wgt id="444">7.98266e-12</wgt>
  <wgt id="445">8.03276e-12</wgt>
  <wgt id="446">7.8131e-12</wgt>
  <wgt id="447">7.87326e-12</wgt>
  <wgt id="448">7.69667e-12</wgt>
  <wgt id="449">8.08497e-12</wgt>
  <wgt id="450">8.04791e-12</wgt>
  <wgt id="451">7.84404e-12</wgt>
  <wgt id="452">8.03559e-12</wgt>
  <wgt id="453">8.01839e-12</wgt>
  <wgt id="454">7.39006e-12</wgt>
  <wgt id="455">7.97785e-12</wgt>
  <wgt id="456">8.1151e-12</wgt>
  <wgt id="457">7.89261e-12</wgt>
  <wgt id="458">8.04388e-12</wgt>
  <wgt id="459">7.94562e-12</wgt>
  <wgt id="460">8.11908e-12</wgt>
  <wgt id="461">7.6464e-12</wgt>
  <wgt id="462">7.81249e-12</wgt>
  <wgt id="463">7.71856e-12</wgt>
  <wgt id="464">7.83415e-12</wgt>
  <wgt id="465">7.95195e-12</wgt>
  <wgt id="466">7.58318e-12</wgt>
  <wgt id="467">7.82204e-12</wgt>
  <wgt id="468">7.88199e-12</wgt>
  <wgt id="469">7.84266e-12</wgt>
  <wgt id="470">7.70663e-12</wgt>
  <wgt id="471">7.74045e-12</wgt>
  <wgt id="472">7.94251e-12</wgt>
  <wgt id="473">7.58895e-12</wgt>
  <wgt id="474">5.79e-12</wgt>
  <wgt id="475">5.81499e-12</wgt>
  <wgt id="476">5.85572e-12</wgt>
  <wgt id="477">6.05472e-12</wgt>
  <wgt id="478">6.00593e-12</wgt>
  <wgt id="479">5.26384e-12</wgt>
  <wgt id="480">6.2484e-12</wgt>
  <wgt id="481">5.89301e-12</wgt>
  <wgt id="482">5.98629e-12</wgt>
  <wgt id="483">6.22134e-12</wgt>
  <wgt id="484">6.11635e-12</wgt>
  <wgt id="485">5.09536e-12</wgt>
  <wgt id="486">6.11387e-12</wgt>
  <wgt id="487">5.47878e-12</wgt>
  <wgt id="488">5.71027e-12</wgt>
  <wgt id="489">4.84975e-12</wgt>
  <wgt id="490">5.83344e-12</wgt>
  <wgt id="491">5.66905e-12</wgt>
  <wgt id="492">5.70293e-12</wgt>
  <wgt id="493">5.07026e-12</wgt>
  <wgt id="494">5.04815e-12</wgt>
  <wgt id="495">5.95035e-12</wgt>
  <wgt id="496">5.26973e-12</wgt>
  <wgt id="497">5.29533e-12</wgt>
  <wgt id="498">5.92724e-12</wgt>
  <wgt id="499">5.96175e-12</wgt>
  <wgt id="500">5.99097e-12</wgt>
  <wgt id="501">6.09883e-12</wgt>
  <wgt id="502">6.41189e-12</wgt>
  <wgt id="503">5.59807e-12</wgt>
  <wgt id="504">6.04365e-12</wgt>
  <wgt id="505">6.24284e-12</wgt>
  <wgt id="506">5.01015e-12</wgt>
  <wgt id="507">5.41246e-12</wgt>
  <wgt id="508">6.17743e-12</wgt>
  <wgt id="509">5.74599e-12</wgt>
  <wgt id="510">5.72002e-12</wgt>
  <wgt id="511">5.41401e-12</wgt>
  <wgt id="512">6.41472e-12</wgt>
  <wgt id="513">6.2389e-12</wgt>
  <wgt id="514">6.44551e-12</wgt>
  <wgt id="515">6.28171e-12</wgt>
  <wgt id="516">6.68816e-12</wgt>
  <wgt id="517">5.93777e-12</wgt>
  <wgt id="518">6.17991e-12</wgt>
  <wgt id="519">5.5672e-12</wgt>
  <wgt id="520">5.69609e-12</wgt>
  <wgt id="521">5.3921e-12</wgt>
  <wgt id="522">5.91824e-12</wgt>
  <wgt id="523">5.45842e-12</wgt>
  <wgt id="524">6.13504e-12</wgt>
  <wgt id="525">5.47296e-12</wgt>
  <wgt id="526">6.3609e-12</wgt>
  <wgt id="527">5.6747e-12</wgt>
  <wgt id="528">5.61882e-12</wgt>
  <wgt id="529">5.16234e-12</wgt>
  <wgt id="530">6.25796e-12</wgt>
  <wgt id="531">5.43609e-12</wgt>
  <wgt id="532">6.34118e-12</wgt>
  <wgt id="533">6.02814e-12</wgt>
  <wgt id="534">5.31341e-12</wgt>
  <wgt id="535">6.06658e-12</wgt>
  <wgt id="536">6.17867e-12</wgt>
  <wgt id="537">5.22408e-12</wgt>
  <wgt id="538">5.68209e-12</wgt>
  <wgt id="539">5.64589e-12</wgt>
  <wgt id="540">5.94062e-12</wgt>
  <wgt id="541">5.74829e-12</wgt>
  <wgt id="542">5.47655e-12</wgt>
  <wgt id="543">5.371e-12</wgt>
  <wgt id="544">5.73981e-12</wgt>
  <wgt id="545">5.27694e-12</wgt>
  <wgt id="546">5.11499e-12</wgt>
  <wgt id="547">5.4494e-12</wgt>
  <wgt id="548">5.76703e-12</wgt>
  <wgt id="549">5.68268e-12</wgt>
  <wgt id="550">5.25841e-12</wgt>
  <wgt id="551">5.65249e-12</wgt>
  <wgt id="552">5.45277e-12</wgt>
  <wgt id="553">5.10797e-12</wgt>
  <wgt id="554">5.95877e-12</wgt>
  <wgt id="555">5.86935e-12</wgt>
  <wgt id="556">5.83344e-12</wgt>
  <wgt id="557">5.76057e-12</wgt>
  <wgt id="558">5.79492e-12</wgt>
  <wgt id="559">6.01627e-12</wgt>
  <wgt id="560">6.38285e-12</wgt>
  <wgt id="561">6.26899e-12</wgt>
  <wgt id="562">6.06636e-12</wgt>
  <wgt id="563">6.37459e-12</wgt>
  <wgt id="564">6.33236e-12</wgt>
  <wgt id="565">6.44833e-12</wgt>
  <wgt id="566">5.22931e-12</wgt>
  <wgt id="567">5.91375e-12</wgt>
  <wgt id="568">5.31861e-12</wgt>
  <wgt id="569">5.93134e-12</wgt>
  <wgt id="570">6.17368e-12</wgt>
  <wgt id="571">6.47776e-12</wgt>
  <wgt id="572">5.41288e-12</wgt>
  <wgt id="573">5.64153e-12</wgt>
  <wgt id="574">5.74711e-12</wgt>
  <wgt id="575">6.3441e-12</wgt>
  <wgt id="576">7.2869e-12</wgt>
  <wgt id="577">6.40492e-12</wgt>
  <wgt id="578">6.12293e-12</wgt>
  <wgt id="579">6.62172e-12</wgt>
  <wgt id="580">6.68159e-12</wgt>
  <wgt id="581">7.03831e-12</wgt>
  <wgt id="582">7.04514e-12</wgt>
  <wgt id="583">6.69395e-12</wgt>
  <wgt id="584">6.30392e-12</wgt>
  <wgt id="585">5.64556e-12</wgt>
  <wgt id="586">5.85195e-12</wgt>
  <wgt id="587">6.51022e-12</wgt>
  <wgt id="588">7.61635e-12</wgt>
  <wgt id="589">7.37263e-12</wgt>
  <wgt id="590">6.42842e-12</wgt>
  <wgt id="591">6.53888e-12</wgt>
  <wgt id="592">6.05812e-12</wgt>
  <wgt id="593">6.04005e-12</wgt>
  <wgt id="594">5.86423e-12</wgt>
  <wgt id="595">7.09475e-12</wgt>
  <wgt id="596">7.5193e-12</wgt>
  <wgt id="597">6.5413e-12</wgt>
  <wgt id="598">6.72976e-12</wgt>
  <wgt id="599">7.01534e-12</wgt>
  <wgt id="600">7.43386e-12</wgt>
  <wgt id="601">6.01624e-12</wgt>
  <wgt id="602">5.931e-12</wgt>
  <wgt id="603">5.64627e-12</wgt>
  <wgt id="604">6.70186e-12</wgt>
  <wgt id="605">6.18783e-12</wgt>
  <wgt id="606">6.3113e-12</wgt>
  <wgt id="607">6.94959e-12</wgt>
  <wgt id="608">6.59945e-12</wgt>
  <wgt id="609">6.23513e-12</wgt>
  <wgt id="610">5.88532e-12</wgt>
  <wgt id="611">5.79335e-12</wgt>
  <wgt id="612">6.29425e-12</wgt>
  <wgt id="613">5.85628e-12</wgt>
  <wgt id="614">6.36031e-12</wgt>
  <wgt id="615">6.75488e-12</wgt>
  <wgt id="616">5.52986e-12</wgt>
  <wgt id="617">6.69423e-12</wgt>
  <wgt id="618">7.09177e-12</wgt>
  <wgt id="619">6.20804e-12</wgt>
  <wgt id="620">6.47742e-12</wgt>
  <wgt id="621">6.22918e-12</wgt>
  <wgt id="622">6.51022e-12</wgt>
  <wgt id="623">6.2273e-12</wgt>
  <wgt id="624">6.29502e-12</wgt>
  <wgt id="625">5.92032e-12</wgt>
  <wgt id="626">4.94085e-12</wgt>
  <wgt id="627">5.43494e-12</wgt>
  <wgt id="628">6.27537e-12</wgt>
  <wgt id="629">7.35646e-12</wgt>
  <wgt id="630">6.2296e-12</wgt>
  <wgt id="631">6.76229e-12</wgt>
  <wgt id="632">5.6617e-12</wgt>
  <wgt id="633">6.28701e-12</wgt>
  <wgt id="634">5.8699e-12</wgt>
  <wgt id="635">5.81674e-12</wgt>
  <wgt id="636">6.25575e-12</wgt>
  <wgt id="637">6.42844e-12</wgt>
  <wgt id="638">5.91615e-12</wgt>
  <wgt id="639">5.82902e-12</wgt>
  <wgt id="640">5.9547e-12</wgt>
  <wgt id="641">6.82872e-12</wgt>
  <wgt id="642">5.28575e-12</wgt>
  <wgt id="643">6.04472e-12</wgt>
  <wgt id="644">5.73276e-12</wgt>
  <wgt id="645">6.37098e-12</wgt>
  <wgt id="646">5.30762e-12</wgt>
  <wgt id="647">6.73267e-12</wgt>
  <wgt id="648">6.92835e-12</wgt>
  <wgt id="649">6.44254e-12</wgt>
  <wgt id="650">6.21369e-12</wgt>
  <wgt id="651">6.78022e-12</wgt>
  <wgt id="652">5.9063e-12</wgt>
  <wgt id="653">5.98767e-12</wgt>
  <wgt id="654">6.43462e-12</wgt>
  <wgt id="655">5.78415e-12</wgt>
  <wgt id="656">6.47965e-12</wgt>
  <wgt id="657">7.1477e-12</wgt>
  <wgt id="658">6.14657e-12</wgt>
  <wgt id="659">6.11956e-12</wgt>
  <wgt id="660">5.79858e-12</wgt>
  <wgt id="661">6.05854e-12</wgt>
  <wgt id="662">6.27849e-12</wgt>
  <wgt id="663">6.60953e-12</wgt>
  <wgt id="664">6.69797e-12</wgt>
  <wgt id="665">6.12331e-12</wgt>
  <wgt id="666">6.10268e-12</wgt>
  <wgt id="667">6.7553e-12</wgt>
  <wgt id="668">6.16054e-12</wgt>
  <wgt id="669">6.12323e-12</wgt>
  <wgt id="670">6.81347e-12</wgt>
  <wgt id="671">6.55217e-12</wgt>
  <wgt id="672">6.55924e-12</wgt>
  <wgt id="673">7.11434e-12</wgt>
  <wgt id="674">6.05054e-12</wgt>
  <wgt id="675">5.89526e-12</wgt>
  <wgt id="676">8.36362e-12</wgt>
  <wgt id="677">8.38341e-12</wgt>
  <wgt id="678">9.5831e-12</wgt>
  <wgt id="679">9.43069e-12</wgt>
  <wgt id="680">8.55599e-12</wgt>
  <wgt id="681">7.94062e-12</wgt>
  <wgt id="682">9.00847e-12</wgt>
  <wgt id="683">7.16397e-12</wgt>
  <wgt id="684">9.11747e-12</wgt>
  <wgt id="685">8.6124e-12</wgt>
  <wgt id="686">8.94475e-12</wgt>
  <wgt id="687">8.38624e-12</wgt>
  <wgt id="688">8.12381e-12</wgt>
  <wgt id="689">9.03837e-12</wgt>
  <wgt id="690">8.65495e-12</wgt>
  <wgt id="691">8.58067e-12</wgt>
  <wgt id="692">7.98499e-12</wgt>
  <wgt id="693">1.24851e-11</wgt>
  <wgt id="694">9.60435e-12</wgt>
  <wgt id="695">7.40683e-12</wgt>
  <wgt id="696">7.6932e-12</wgt>
  <wgt id="697">6.9509e-12</wgt>
  <wgt id="698">6.20304e-12</wgt>
  <wgt id="699">6.85045e-12</wgt>
  <wgt id="700">7.29646e-12</wgt>
  <wgt id="701">8.37319e-12</wgt>
  <wgt id="702">7.6935e-12</wgt>
  <wgt id="703">1.1421e-11</wgt>
  <wgt id="704">9.63638e-12</wgt>
  <wgt id="705">9.55986e-12</wgt>
  <wgt id="706">7.41761e-12</wgt>
  <wgt id="707">7.58747e-12</wgt>
  <wgt id="708">7.52189e-12</wgt>
  <wgt id="709">7.85999e-12</wgt>
  <wgt id="710">5.83745e-12</wgt>
  <wgt id="711">9.53156e-12</wgt>
  <wgt id="712">7.64471e-12</wgt>
  <wgt id="713">9.05271e-12</wgt>
  <wgt id="714">6.92824e-12</wgt>
  <wgt id="715">7.63632e-12</wgt>
  <wgt id="716">7.8998e-12</wgt>
  <wgt id="717">6.59666e-12</wgt>
  <wgt id="718">8.59497e-12</wgt>
  <wgt id="719">7.72673e-12</wgt>
  <wgt id="720">9.02936e-12</wgt>
  <wgt id="721">6.88569e-12</wgt>
  <wgt id="722">5.5915e-12</wgt>
  <wgt id="723">1.00661e-11</wgt>
  <wgt id="724">9.4015e-12</wgt>
  <wgt id="725">8.85061e-12</wgt>
  <wgt id="726">8.24258e-12</wgt>
  <wgt id="727">8.5925e-12</wgt>
  <wgt id="728">8.67776e-12</wgt>
  <wgt id="729">6.76637e-12</wgt>
  <wgt id="730">9.70584e-12</wgt>
  <wgt id="731">8.29899e-12</wgt>
  <wgt id="732">1.01709e-11</wgt>
  <wgt id="733">7.43463e-12</wgt>
  <wgt id="734">8.77229e-12</wgt>
  <wgt id="735">8.0277e-12</wgt>
  <wgt id="736">7.3798e-12</wgt>
  <wgt id="737">6.52893e-12</wgt>
  <wgt id="738">7.81525e-12</wgt>
  <wgt id="739">8.56992e-12</wgt>
  <wgt id="740">1.06929e-11</wgt>
  <wgt id="741">9.63471e-12</wgt>
  <wgt id="742">7.28409e-12</wgt>
  <wgt id="743">7.46266e-12</wgt>
  <wgt id="744">8.02152e-12</wgt>
  <wgt id="745">9.69239e-12</wgt>
  <wgt id="746">1.002e-11</wgt>
  <wgt id="747">6.51412e-12</wgt>
  <wgt id="748">7.83797e-12</wgt>
  <wgt id="749">8.89932e-12</wgt>
  <wgt id="750">9.29837e-12</wgt>
  <wgt id="751">8.49709e-12</wgt>
  <wgt id="752">7.29176e-12</wgt>
  <wgt id="753">7.12453e-12</wgt>
  <wgt id="754">8.791e-12</wgt>
  <wgt id="755">7.91287e-12</wgt>
  <wgt id="756">7.87498e-12</wgt>
  <wgt id="757">6.76433e-12</wgt>
  <wgt id="758">8.03678e-12</wgt>
  <wgt id="759">9.17756e-12</wgt>
  <wgt id="760">7.57984e-12</wgt>
  <wgt id="761">9.85053e-12</wgt>
  <wgt id="762">9.94252e-12</wgt>
  <wgt id="763">9.21264e-12</wgt>
  <wgt id="764">9.37702e-12</wgt>
  <wgt id="765">8.65117e-12</wgt>
  <wgt id="766">8.74073e-12</wgt>
  <wgt id="767">8.67892e-12</wgt>
  <wgt id="768">7.28226e-12</wgt>
  <wgt id="769">8.69758e-12</wgt>
  <wgt id="770">7.10652e-12</wgt>
  <wgt id="771">1.0973e-11</wgt>
  <wgt id="772">8.03801e-12</wgt>
  <wgt id="773">8.67007e-12</wgt>
  <wgt id="774">6.22792e-12</wgt>
  <wgt id="775">8.90301e-12</wgt>
  <wgt id="776">1.0809e-11</wgt>
  <wgt id="777">6.56236e-12</wgt>
  <wgt id="778">4.59493e-12</wgt>
  <wgt id="779">1.63104e-12</wgt>
  <wgt id="780">3.11318e-20</wgt>
  <wgt id="781">4.94989e-12</wgt>
  <wgt id="782">5.88377e-12</wgt>
  <wgt id="783">5.23509e-13</wgt>
  <wgt id="784">1.84777e-12</wgt>
  <wgt id="785">8.06246e-12</wgt>
  <wgt id="786">1.53236e-13</wgt>
  <wgt id="787">7.13276e-12</wgt>
  <wgt id="788">3.01882e-20</wgt>
  <wgt id="789">1.69087e-12</wgt>
  <wgt id="790">7.36469e-13</wgt>
  <wgt id="791">5.85942e-12</wgt>
  <wgt id="792">6.62134e-12</wgt>
  <wgt id="793">3.46956e-12</wgt>
  <wgt id="794">3.16513e-13</wgt>
  <wgt id="795">7.79485e-12</wgt>
  <wgt id="796">7.87463e-12</wgt>
  <wgt id="797">6.62536e-12</wgt>
  <wgt id="798">2.53603e-12</wgt>
  <wgt id="799">7.27331e-12</wgt>
  <wgt id="800">2.67606e-12</wgt>
  <wgt id="801">5.70095e-12</wgt>
  <wgt id="802">3.76504e-13</wgt>
  <wgt id="803">8.30697e-12</wgt>
  <wgt id="804">8.04982e-12</wgt>
  <wgt id="805">7.54203e-12</wgt>
  <wgt id="806">5.77557e-12</wgt>
  <wgt id="807">4.77404e-12</wgt>
  <wgt id="808">4.83765e-12</wgt>
  <wgt id="809">3.74059e-12</wgt>
  <wgt id="810">8.31954e-12</wgt>
  <wgt id="811">5.10922e-12</wgt>
  <wgt id="812">6.16522e-13</wgt>
  <wgt id="813">1.01402e-12</wgt>
  <wgt id="814">2.26368e-12</wgt>
  <wgt id="815">8.00525e-13</wgt>
  <wgt id="816">1.58407e-12</wgt>
  <wgt id="817">5.06013e-12</wgt>
  <wgt id="818">7.63034e-12</wgt>
  <wgt id="819">1.48545e-12</wgt>
  <wgt id="820">3.90134e-12</wgt>
  <wgt id="821">6.38619e-12</wgt>
  <wgt id="822">3.13566e-12</wgt>
  <wgt id="823">7.18892e-12</wgt>
  <wgt id="824">7.53578e-12</wgt>
  <wgt id="825">3.09179e-20</wgt>
  <wgt id="826">7.51599e-12</wgt>
  <wgt id="827">3.09668e-20</wgt>
  <wgt id="828">6.46371e-12</wgt>
  <wgt id="829">4.95358e-12</wgt>
  <wgt id="830">3.09368e-20</wgt>
  <wgt id="831">6.50958e-12</wgt>
  <wgt id="832">1.02205e-11</wgt>
  <wgt id="833">2.97162e-12</wgt>
  <wgt id="834">1.02858e-11</wgt>
  <wgt id="835">1.89636e-12</wgt>
  <wgt id="836">2.6982e-12</wgt>
  <wgt id="837">6.21878e-12</wgt>
  <wgt id="838">2.57063e-12</wgt>
  <wgt id="839">6.7731e-12</wgt>
  <wgt id="840">3.63371e-12</wgt>
  <wgt id="841">7.65497e-12</wgt>
  <wgt id="842">5.18337e-12</wgt>
  <wgt id="843">4.98114e-12</wgt>
  <wgt id="844">6.02488e-12</wgt>
  <wgt id="845">1.08257e-11</wgt>
  <wgt id="846">3.51938e-12</wgt>
  <wgt id="847">5.58752e-12</wgt>
  <wgt id="848">7.72137e-13</wgt>
  <wgt id="849">5.97764e-12</wgt>
  <wgt id="850">9.28528e-12</wgt>
  <wgt id="851">6.43244e-12</wgt>
  <wgt id="852">3.13552e-20</wgt>
  <wgt id="853">6.82099e-12</wgt>
  <wgt id="854">8.30587e-12</wgt>
  <wgt id="855">6.41298e-12</wgt>
  <wgt id="856">3.0872e-20</wgt>
  <wgt id="857">3.06036e-12</wgt>
  <wgt id="858">4.95317e-12</wgt>
  <wgt id="859">4.52415e-12</wgt>
  <wgt id="860">6.59976e-12</wgt>
  <wgt id="861">2.97207e-12</wgt>
  <wgt id="862">5.19269e-12</wgt>
  <wgt id="863">6.29371e-12</wgt>
  <wgt id="864">4.74497e-12</wgt>
  <wgt id="865">9.39956e-12</wgt>
  <wgt id="866">1.01531e-11</wgt>
  <wgt id="867">4.70696e-12</wgt>
  <wgt id="868">5.63016e-12</wgt>
  <wgt id="869">6.91387e-13</wgt>
  <wgt id="870">2.19126e-12</wgt>
  <wgt id="871">2.97299e-12</wgt>
  <wgt id="872">8.96739e-12</wgt>
  <wgt id="873">3.05963e-12</wgt>
  <wgt id="874">5.90026e-12</wgt>
  <wgt id="875">2.43068e-12</wgt>
  <wgt id="876">8.20202e-12</wgt>
  <wgt id="877">5.92795e-12</wgt>
  <wgt id="878">3.18895e-12</wgt>
  <wgt id="879">8.36362e-12</wgt>
  <wgt id="880">8.38341e-12</wgt>
  <wgt id="881">9.5831e-12</wgt>
  <wgt id="882">9.43069e-12</wgt>
  <wgt id="883">8.55599e-12</wgt>
  <wgt id="884">7.94062e-12</wgt>
  <wgt id="885">9.00847e-12</wgt>
  <wgt id="886">7.16397e-12</wgt>
  <wgt id="887">9.11747e-12</wgt>
  <wgt id="888">8.6124e-12</wgt>
  <wgt id="889">8.94475e-12</wgt>
  <wgt id="890">8.38624e-12</wgt>
  <wgt id="891">8.12381e-12</wgt>
  <wgt id="892">9.03837e-12</wgt>
  <wgt id="893">8.65495e-12</wgt>
  <wgt id="894">8.58067e-12</wgt>
  <wgt id="895">7.98499e-12</wgt>
  <wgt id="896">1.24851e-11</wgt>
  <wgt id="897">9.60435e-12</wgt>
  <wgt id="898">7.40683e-12</wgt>
  <wgt id="899">7.6932e-12</wgt>
  <wgt id="900">6.9509e-12</wgt>
  <wgt id="901">6.20304e-12</wgt>
  <wgt id="902">6.85045e-12</wgt>
  <wgt id="903">7.29646e-12</wgt>
  <wgt id="904">8.37319e-12</wgt>
  <wgt id="905">7.6935e-12</wgt>
  <wgt id="906">1.1421e-11</wgt>
  <wgt id="907">9.63638e-12</wgt>
  <wgt id="908">9.55986e-12</wgt>
  <wgt id="909">7.41761e-12</wgt>
  <wgt id="910">7.58747e-12</wgt>
  <wgt id="911">7.52189e-12</wgt>
  <wgt id="912">7.85999e-12</wgt>
  <wgt id="913">5.83745e-12</wgt>
  <wgt id="914">9.53156e-12</wgt>
  <wgt id="915">7.64471e-12</wgt>
  <wgt id="916">9.05271e-12</wgt>
  <wgt id="917">6.92824e-12</wgt>
  <wgt id="918">7.63632e-12</wgt>
  <wgt id="919">7.8998e-12</wgt>
  <wgt id="920">6.59666e-12</wgt>
  <wgt id="921">8.59497e-12</wgt>
  <wgt id="922">7.72673e-12</wgt>
  <wgt id="923">9.02936e-12</wgt>
  <wgt id="924">6.88569e-12</wgt>
  <wgt id="925">5.5915e-12</wgt>
  <wgt id="926">1.00661e-11</wgt>
  <wgt id="927">9.4015e-12</wgt>
  <wgt id="928">8.85061e-12</wgt>
  <wgt id="929">8.24258e-12</wgt>
  <wgt id="930">8.5925e-12</wgt>
  <wgt id="931">8.67776e-12</wgt>
  <wgt id="932">6.76637e-12</wgt>
  <wgt id="933">9.70584e-12</wgt>
  <wgt id="934">8.29899e-12</wgt>
  <wgt id="935">1.01709e-11</wgt>
  <wgt id="936">7.43463e-12</wgt>
  <wgt id="937">8.77229e-12</wgt>
  <wgt id="938">8.0277e-12</wgt>
  <wgt id="939">7.3798e-12</wgt>
  <wgt id="940">6.52893e-12</wgt>
  <wgt id="941">7.81525e-12</wgt>
  <wgt id="942">8.56992e-12</wgt>
  <wgt id="943">1.06929e-11</wgt>
  <wgt id="944">9.63471e-12</wgt>
  <wgt id="945">7.28409e-12</wgt>
  <wgt id="946">7.46266e-12</wgt>
  <wgt id="947">8.02152e-12</wgt>
  <wgt id="948">9.69239e-12</wgt>
  <wgt id="949">1.002e-11</wgt>
  <wgt id="950">6.51412e-12</wgt>
  <wgt id="951">7.83797e-12</wgt>
  <wgt id="952">8.89932e-12</wgt>
  <wgt id="953">9.29837e-12</wgt>
  <wgt id="954">8.49709e-12</wgt>
  <wgt id="955">7.29176e-12</wgt>
  <wgt id="956">7.12453e-12</wgt>
  <wgt id="957">8.791e-12</wgt>
  <wgt id="958">7.91287e-12</wgt>
  <wgt id="959">7.87498e-12</wgt>
  <wgt id="960">6.76433e-12</wgt>
  <wgt id="961">8.03678e-12</wgt>
  <wgt id="962">9.17756e-12</wgt>
  <wgt id="963">7.57984e-12</wgt>
  <wgt id="964">9.85053e-12</wgt>
  <wgt id="965">9.94252e-12</wgt>
  <wgt id="966">9.21264e-12</wgt>
  <wgt id="967">9.37702e-12</wgt>
  <wgt id="968">8.65117e-12</wgt>
  <wgt id="969">8.74073e-12</wgt>
  <wgt id="970">8.67892e-12</wgt>
  <wgt id="971">7.28226e-12</wgt>
  <wgt id="972">8.69758e-12</wgt>
  <wgt id="973">7.10652e-12</wgt>
  <wgt id="974">1.0973e-11</wgt>
  <wgt id="975">8.03801e-12</wgt>
  <wgt id="976">8.67007e-12</wgt>
  <wgt id="977">6.22792e-12</wgt>
  <wgt id="978">8.90301e-12</wgt>
  <wgt id="979">1.0809e-11</wgt>
  <wgt id="980">8.2839e-12</wgt>
  <wgt id="981">8.74759e-12</wgt>
  <wgt id="982">8.18944e-12</wgt>
</rwgt>
</event>
<event>
 5   1  0.5790000E-11  0.1917221E+04  0.7818608E-02  0.7864574E-01
       21   -1    0    0  502  501  0.00000000000E+00  0.00000000000E+00  0.55433582563E+03  0.55433582563E+03  0.00000000000E+00 0. -1.
       21   -1    0    0  501  502 -0.00000000000E+00 -0.00000000000E+00 -0.16577211455E+04  0.16577211455E+04  0.00000000000E+00 0.  1.
       39    2    1    2    0    0  0.00000000000E+00  0.00000000000E+00 -0.11033853198E+04  0.22120569711E+04  0.19172211347E+04 0.  0.
       25    1    3    3    0    0  0.10327107293E+03 -0.81984251270E+03 -0.99027435973E+01  0.83578090697E+03  0.12500000000E+03 0.  0.
       25    1    3    3    0    0 -0.10327107293E+03  0.81984251270E+03 -0.10934825762E+04  0.13762760641E+04  0.12500000000E+03 0.  0.
<mgrwt>
<rscale>  0 0.19172211E+04</rscale>
<asrwt>0</asrwt>
<pdfrwt beam="1">  1       21 0.85282437E-01 0.19172211E+04</pdfrwt>
<pdfrwt beam="2">  1       21 0.25503402E+00 0.19172211E+04</pdfrwt>
<totfact> 0.31775858E+01</totfact>
</mgrwt>
<rwgt>
  <wgt id="1">5.79e-12</wgt>
  <wgt id="2">5.0691e-12</wgt>
  <wgt id="3">6.67921e-12</wgt>
  <wgt id="4">5.79e-12</wgt>
  <wgt id="5">5.0691e-12</wgt>
  <wgt id="6">6.67921e-12</wgt>
  <wgt id="7">5.79e-12</wgt>
  <wgt id="8">5.0691e-12</wgt>
  <wgt id="9">6.67921e-12</wgt>
  <wgt id="10">5.95793e-12</wgt>
  <wgt id="11">5.95463e-12</wgt>
  <wgt id="12">5.94952e-12</wgt>
  <wgt id="13">5.94224e-12</wgt>
  <wgt id="14">5.97985e-12</wgt>
  <wgt id="15">5.96757e-12</wgt>
  <wgt id="16">5.9502e-12</wgt>
  <wgt id="17">5.97626e-12</wgt>
  <wgt id="18">5.94731e-12</wgt>
  <wgt id="19">5.97151e-12</wgt>
  <wgt id="20">5.94755e-12</wgt>
  <wgt id="21">5.91462e-12</wgt>
  <wgt id="22">5.92406e-12</wgt>
  <wgt id="23">5.89102e-12</wgt>
  <wgt id="24">5.92382e-12</wgt>
  <wgt id="25">5.94047e-12</wgt>
  <wgt id="26">5.97604e-12</wgt>
  <wgt id="27">5.95308e-12</wgt>
  <wgt id="28">5.92649e-12</wgt>
  <wgt id="29">5.96144e-12</wgt>
  <wgt id="30">5.92648e-12</wgt>
  <wgt id="31">5.98114e-12</wgt>
  <wgt id="32">5.93676e-12</wgt>
  <wgt id="33">5.96867e-12</wgt>
  <wgt id="34">5.92897e-12</wgt>
  <wgt id="35">5.94332e-12</wgt>
  <wgt id="36">5.98173e-12</wgt>
  <wgt id="37">5.94223e-12</wgt>
  <wgt id="38">5.93779e-12</wgt>
  <wgt id="39">6.03365e-12</wgt>
  <wgt id="40">5.95996e-12</wgt>
  <wgt id="41">5.95677e-12</wgt>
  <wgt id="42">5.96011e-12</wgt>
  <wgt id="43">5.95452e-12</wgt>
  <wgt id="44">5.97106e-12</wgt>
  <wgt id="45">5.96895e-12</wgt>
  <wgt id="46">5.95584e-12</wgt>
  <wgt id="47">5.97266e-12</wgt>
  <wgt id="48">5.95962e-12</wgt>
  <wgt id="49">5.92915e-12</wgt>
  <wgt id="50">5.94695e-12</wgt>
  <wgt id="51">5.95441e-12</wgt>
  <wgt id="52">5.97745e-12</wgt>
  <wgt id="53">5.93834e-12</wgt>
  <wgt id="54">5.96172e-12</wgt>
  <wgt id="55">5.95684e-12</wgt>
  <wgt id="56">5.97944e-12</wgt>
  <wgt id="57">5.96526e-12</wgt>
  <wgt id="58">5.93844e-12</wgt>
  <wgt id="59">5.94697e-12</wgt>
  <wgt id="60">5.95892e-12</wgt>
  <wgt id="61">5.92483e-12</wgt>
  <wgt id="62">5.93817e-12</wgt>
  <wgt id="63">5.95006e-12</wgt>
  <wgt id="64">5.95964e-12</wgt>
  <wgt id="65">5.96359e-12</wgt>
  <wgt id="66">5.95175e-12</wgt>
  <wgt id="67">5.93067e-12</wgt>
  <wgt id="68">5.95641e-12</wgt>
  <wgt id="69">5.95834e-12</wgt>
  <wgt id="70">5.95848e-12</wgt>
  <wgt id="71">5.95628e-12</wgt>
  <wgt id="72">5.94231e-12</wgt>
  <wgt id="73">5.96591e-12</wgt>
  <wgt id="74">5.96213e-12</wgt>
  <wgt id="75">5.95223e-12</wgt>
  <wgt id="76">5.97407e-12</wgt>
  <wgt id="77">5.95522e-12</wgt>
  <wgt id="78">5.95559e-12</wgt>
  <wgt id="79">5.97243e-12</wgt>
  <wgt id="80">5.93321e-12</wgt>
  <wgt id="81">5.95539e-12</wgt>
  <wgt id="82">5.95876e-12</wgt>
  <wgt id="83">5.93611e-12</wgt>
  <wgt id="84">5.94953e-12</wgt>
  <wgt id="85">5.94402e-12</wgt>
  <wgt id="86">5.97518e-12</wgt>
  <wgt id="87">5.92485e-12</wgt>
  <wgt id="88">5.96496e-12</wgt>
  <wgt id="89">5.96271e-12</wgt>
  <wgt id="90">5.97181e-12</wgt>
  <wgt id="91">5.96422e-12</wgt>
  <wgt id="92">5.96943e-12</wgt>
  <wgt id="93">5.96288e-12</wgt>
  <wgt id="94">5.95165e-12</wgt>
  <wgt id="95">5.96998e-12</wgt>
  <wgt id="96">5.96427e-12</wgt>
  <wgt id="97">5.94504e-12</wgt>
  <wgt id="98">5.96014e-12</wgt>
  <wgt id="99">5.94689e-12</wgt>
  <wgt id="100">5.96714e-12</wgt>
  <wgt id="101">5.95934e-12</wgt>
  <wgt id="102">5.95463e-12</wgt>
  <wgt id="103">5.96755e-12</wgt>
  <wgt id="104">5.95393e-12</wgt>
  <wgt id="105">5.96626e-12</wgt>
  <wgt id="106">5.94845e-12</wgt>
  <wgt id="107">5.97728e-12</wgt>
  <wgt id="108">5.95017e-12</wgt>
  <wgt id="109">5.96157e-12</wgt>
  <wgt id="110">5.95724e-12</wgt>
  <wgt id="111">5.98929e-12</wgt>
  <wgt id="112">5.98389e-12</wgt>
  <wgt id="113">7.922e-12</wgt>
  <wgt id="114">7.94289e-12</wgt>
  <wgt id="115">7.80552e-12</wgt>
  <wgt id="116">1.01929e-11</wgt>
  <wgt id="117">6.4245e-12</wgt>
  <wgt id="118">6.44308e-12</wgt>
  <wgt id="119">6.4139e-12</wgt>
  <wgt id="120">6.42523e-12</wgt>
  <wgt id="121">6.42404e-12</wgt>
  <wgt id="122">6.41305e-12</wgt>
  <wgt id="123">6.4401e-12</wgt>
  <wgt id="124">6.41513e-12</wgt>
  <wgt id="125">6.43046e-12</wgt>
  <wgt id="126">6.43243e-12</wgt>
  <wgt id="127">6.41919e-12</wgt>
  <wgt id="128">6.44432e-12</wgt>
  <wgt id="129">6.40478e-12</wgt>
  <wgt id="130">6.45696e-12</wgt>
  <wgt id="131">6.39086e-12</wgt>
  <wgt id="132">6.26509e-12</wgt>
  <wgt id="133">6.61174e-12</wgt>
  <wgt id="134">6.36179e-12</wgt>
  <wgt id="135">6.47335e-12</wgt>
  <wgt id="136">6.50347e-12</wgt>
  <wgt id="137">6.32893e-12</wgt>
  <wgt id="138">6.66244e-12</wgt>
  <wgt id="139">6.19432e-12</wgt>
  <wgt id="140">6.385e-12</wgt>
  <wgt id="141">6.45497e-12</wgt>
  <wgt id="142">6.4242e-12</wgt>
  <wgt id="143">6.43624e-12</wgt>
  <wgt id="144">6.25144e-12</wgt>
  <wgt id="145">6.58454e-12</wgt>
  <wgt id="146">6.47763e-12</wgt>
  <wgt id="147">6.38208e-12</wgt>
  <wgt id="148">6.44338e-12</wgt>
  <wgt id="149">6.42312e-12</wgt>
  <wgt id="150">6.47592e-12</wgt>
  <wgt id="151">6.40033e-12</wgt>
  <wgt id="152">6.42618e-12</wgt>
  <wgt id="153">6.42387e-12</wgt>
  <wgt id="154">6.46775e-12</wgt>
  <wgt id="155">6.36862e-12</wgt>
  <wgt id="156">6.54828e-12</wgt>
  <wgt id="157">6.2931e-12</wgt>
  <wgt id="158">7.7329e-12</wgt>
  <wgt id="159">7.76608e-12</wgt>
  <wgt id="160">7.70758e-12</wgt>
  <wgt id="161">7.71676e-12</wgt>
  <wgt id="162">7.75128e-12</wgt>
  <wgt id="163">7.7264e-12</wgt>
  <wgt id="164">7.74363e-12</wgt>
  <wgt id="165">7.73696e-12</wgt>
  <wgt id="166">7.73132e-12</wgt>
  <wgt id="167">7.72775e-12</wgt>
  <wgt id="168">7.7409e-12</wgt>
  <wgt id="169">7.69945e-12</wgt>
  <wgt id="170">7.75402e-12</wgt>
  <wgt id="171">7.72787e-12</wgt>
  <wgt id="172">7.74077e-12</wgt>
  <wgt id="173">7.72841e-12</wgt>
  <wgt id="174">7.73506e-12</wgt>
  <wgt id="175">7.53567e-12</wgt>
  <wgt id="176">7.98957e-12</wgt>
  <wgt id="177">7.76714e-12</wgt>
  <wgt id="178">7.70235e-12</wgt>
  <wgt id="179">8.04342e-12</wgt>
  <wgt id="180">7.2433e-12</wgt>
  <wgt id="181">7.52134e-12</wgt>
  <wgt id="182">7.87339e-12</wgt>
  <wgt id="183">7.60389e-12</wgt>
  <wgt id="184">7.79724e-12</wgt>
  <wgt id="185">7.66704e-12</wgt>
  <wgt id="186">7.81049e-12</wgt>
  <wgt id="187">7.66069e-12</wgt>
  <wgt id="188">7.86246e-12</wgt>
  <wgt id="189">7.68577e-12</wgt>
  <wgt id="190">7.75264e-12</wgt>
  <wgt id="191">7.75525e-12</wgt>
  <wgt id="192">7.72004e-12</wgt>
  <wgt id="193">7.83577e-12</wgt>
  <wgt id="194">7.68195e-12</wgt>
  <wgt id="195">7.56665e-12</wgt>
  <wgt id="196">8.03468e-12</wgt>
  <wgt id="197">7.76858e-12</wgt>
  <wgt id="198">7.72449e-12</wgt>
  <wgt id="199">7.7329e-12</wgt>
  <wgt id="200">7.79717e-12</wgt>
  <wgt id="201">7.7744e-12</wgt>
  <wgt id="202">7.75253e-12</wgt>
  <wgt id="203">7.7201e-12</wgt>
  <wgt id="204">7.70426e-12</wgt>
  <wgt id="205">7.69071e-12</wgt>
  <wgt id="206">7.58406e-12</wgt>
  <wgt id="207">7.6276e-12</wgt>
  <wgt id="208">7.54121e-12</wgt>
  <wgt id="209">7.6009e-12</wgt>
  <wgt id="210">7.57192e-12</wgt>
  <wgt id="211">7.5824e-12</wgt>
  <wgt id="212">7.58506e-12</wgt>
  <wgt id="213">7.58326e-12</wgt>
  <wgt id="214">7.58535e-12</wgt>
  <wgt id="215">7.58811e-12</wgt>
  <wgt id="216">7.58097e-12</wgt>
  <wgt id="217">7.60142e-12</wgt>
  <wgt id="218">7.57098e-12</wgt>
  <wgt id="219">7.57018e-12</wgt>
  <wgt id="220">7.59206e-12</wgt>
  <wgt id="221">7.58386e-12</wgt>
  <wgt id="222">7.58373e-12</wgt>
  <wgt id="223">7.2118e-12</wgt>
  <wgt id="224">7.9226e-12</wgt>
  <wgt id="225">7.5026e-12</wgt>
  <wgt id="226">7.68699e-12</wgt>
  <wgt id="227">7.51891e-12</wgt>
  <wgt id="228">7.61267e-12</wgt>
  <wgt id="229">7.48744e-12</wgt>
  <wgt id="230">7.63204e-12</wgt>
  <wgt id="231">7.79481e-12</wgt>
  <wgt id="232">7.41007e-12</wgt>
  <wgt id="233">7.54584e-12</wgt>
  <wgt id="234">7.6451e-12</wgt>
  <wgt id="235">7.41311e-12</wgt>
  <wgt id="236">7.73762e-12</wgt>
  <wgt id="237">7.4738e-12</wgt>
  <wgt id="238">7.62124e-12</wgt>
  <wgt id="239">7.5365e-12</wgt>
  <wgt id="240">7.66945e-12</wgt>
  <wgt id="241">7.51082e-12</wgt>
  <wgt id="242">7.67122e-12</wgt>
  <wgt id="243">7.65823e-12</wgt>
  <wgt id="244">7.61509e-12</wgt>
  <wgt id="245">7.57896e-12</wgt>
  <wgt id="246">7.63319e-12</wgt>
  <wgt id="247">7.58406e-12</wgt>
  <wgt id="248">7.65031e-12</wgt>
  <wgt id="249">7.62628e-12</wgt>
  <wgt id="250">7.60291e-12</wgt>
  <wgt id="251">7.56898e-12</wgt>
  <wgt id="252">7.55255e-12</wgt>
  <wgt id="253">7.54056e-12</wgt>
  <wgt id="254">7.37527e-12</wgt>
  <wgt id="255">7.38177e-12</wgt>
  <wgt id="256">7.36791e-12</wgt>
  <wgt id="257">7.38161e-12</wgt>
  <wgt id="258">7.37092e-12</wgt>
  <wgt id="259">7.42395e-12</wgt>
  <wgt id="260">7.32827e-12</wgt>
  <wgt id="261">7.38095e-12</wgt>
  <wgt id="262">7.36864e-12</wgt>
  <wgt id="263">7.37199e-12</wgt>
  <wgt id="264">7.37856e-12</wgt>
  <wgt id="265">7.36828e-12</wgt>
  <wgt id="266">7.38856e-12</wgt>
  <wgt id="267">7.37752e-12</wgt>
  <wgt id="268">7.37225e-12</wgt>
  <wgt id="269">7.39437e-12</wgt>
  <wgt id="270">7.36286e-12</wgt>
  <wgt id="271">7.35953e-12</wgt>
  <wgt id="272">7.39253e-12</wgt>
  <wgt id="273">7.35663e-12</wgt>
  <wgt id="274">7.38884e-12</wgt>
  <wgt id="275">7.34326e-12</wgt>
  <wgt id="276">7.40823e-12</wgt>
  <wgt id="277">7.33569e-12</wgt>
  <wgt id="278">7.41248e-12</wgt>
  <wgt id="279">7.25548e-12</wgt>
  <wgt id="280">7.52538e-12</wgt>
  <wgt id="281">7.34792e-12</wgt>
  <wgt id="282">7.37779e-12</wgt>
  <wgt id="283">7.17878e-12</wgt>
  <wgt id="284">7.61682e-12</wgt>
  <wgt id="285">7.04387e-12</wgt>
  <wgt id="286">7.6496e-12</wgt>
  <wgt id="287">7.39797e-12</wgt>
  <wgt id="288">7.34661e-12</wgt>
  <wgt id="289">7.4244e-12</wgt>
  <wgt id="290">7.26295e-12</wgt>
  <wgt id="291">7.35539e-12</wgt>
  <wgt id="292">7.37887e-12</wgt>
  <wgt id="293">7.32133e-12</wgt>
  <wgt id="294">7.42863e-12</wgt>
  <wgt id="295">7.24225e-12</wgt>
  <wgt id="296">7.53758e-12</wgt>
  <wgt id="297">7.37478e-12</wgt>
  <wgt id="298">7.39828e-12</wgt>
  <wgt id="299">7.35375e-12</wgt>
  <wgt id="300">7.43116e-12</wgt>
  <wgt id="301">7.29143e-12</wgt>
  <wgt id="302">7.59535e-12</wgt>
  <wgt id="303">7.32554e-12</wgt>
  <wgt id="304">7.40386e-12</wgt>
  <wgt id="305">7.38233e-12</wgt>
  <wgt id="306">7.38901e-12</wgt>
  <wgt id="307">7.37501e-12</wgt>
  <wgt id="308">7.38879e-12</wgt>
  <wgt id="309">7.37751e-12</wgt>
  <wgt id="310">7.43195e-12</wgt>
  <wgt id="311">7.33555e-12</wgt>
  <wgt id="312">7.38541e-12</wgt>
  <wgt id="313">7.37806e-12</wgt>
  <wgt id="314">7.37915e-12</wgt>
  <wgt id="315">7.38501e-12</wgt>
  <wgt id="316">7.37555e-12</wgt>
  <wgt id="317">7.39603e-12</wgt>
  <wgt id="318">7.38644e-12</wgt>
  <wgt id="319">7.37403e-12</wgt>
  <wgt id="320">7.40181e-12</wgt>
  <wgt id="321">7.37101e-12</wgt>
  <wgt id="322">7.36316e-12</wgt>
  <wgt id="323">7.4046e-12</wgt>
  <wgt id="324">7.3674e-12</wgt>
  <wgt id="325">7.39454e-12</wgt>
  <wgt id="326">7.35567e-12</wgt>
  <wgt id="327">7.41545e-12</wgt>
  <wgt id="328">7.34362e-12</wgt>
  <wgt id="329">7.40448e-12</wgt>
  <wgt id="330">7.57231e-12</wgt>
  <wgt id="331">7.20044e-12</wgt>
  <wgt id="332">7.35906e-12</wgt>
  <wgt id="333">7.38287e-12</wgt>
  <wgt id="334">7.22898e-12</wgt>
  <wgt id="335">7.57243e-12</wgt>
  <wgt id="336">7.14277e-12</wgt>
  <wgt id="337">7.67323e-12</wgt>
  <wgt id="338">7.46025e-12</wgt>
  <wgt id="339">7.30957e-12</wgt>
  <wgt id="340">7.42789e-12</wgt>
  <wgt id="341">7.2656e-12</wgt>
  <wgt id="342">7.3679e-12</wgt>
  <wgt id="343">7.37471e-12</wgt>
  <wgt id="344">7.33359e-12</wgt>
  <wgt id="345">7.43823e-12</wgt>
  <wgt id="346">7.24469e-12</wgt>
  <wgt id="347">7.53943e-12</wgt>
  <wgt id="348">7.38583e-12</wgt>
  <wgt id="349">7.40001e-12</wgt>
  <wgt id="350">7.35501e-12</wgt>
  <wgt id="351">7.44977e-12</wgt>
  <wgt id="352">7.2941e-12</wgt>
  <wgt id="353">7.6069e-12</wgt>
  <wgt id="354">7.30873e-12</wgt>
  <wgt id="355">7.42686e-12</wgt>
  <wgt id="356">7.37527e-12</wgt>
  <wgt id="357">7.40784e-12</wgt>
  <wgt id="358">7.38233e-12</wgt>
  <wgt id="359">7.39632e-12</wgt>
  <wgt id="360">7.43383e-12</wgt>
  <wgt id="361">7.39966e-12</wgt>
  <wgt id="362">7.51714e-12</wgt>
  <wgt id="363">7.50135e-12</wgt>
  <wgt id="364">7.47666e-12</wgt>
  <wgt id="365">7.45335e-12</wgt>
  <wgt id="366">7.42871e-12</wgt>
  <wgt id="367">7.3767e-12</wgt>
  <wgt id="368">7.34705e-12</wgt>
  <wgt id="369">7.31522e-12</wgt>
  <wgt id="370">7.39966e-12</wgt>
  <wgt id="371">7.42977e-12</wgt>
  <wgt id="372">7.41281e-12</wgt>
  <wgt id="373">7.38793e-12</wgt>
  <wgt id="374">7.38898e-12</wgt>
  <wgt id="375">7.98871e-12</wgt>
  <wgt id="376">7.98822e-12</wgt>
  <wgt id="377">7.98792e-12</wgt>
  <wgt id="378">8.01685e-12</wgt>
  <wgt id="379">7.96014e-12</wgt>
  <wgt id="380">8.01133e-12</wgt>
  <wgt id="381">7.97919e-12</wgt>
  <wgt id="382">8.02159e-12</wgt>
  <wgt id="383">7.95546e-12</wgt>
  <wgt id="384">7.99331e-12</wgt>
  <wgt id="385">7.98352e-12</wgt>
  <wgt id="386">8.01247e-12</wgt>
  <wgt id="387">7.97794e-12</wgt>
  <wgt id="388">7.98193e-12</wgt>
  <wgt id="389">7.99582e-12</wgt>
  <wgt id="390">8.00601e-12</wgt>
  <wgt id="391">7.9696e-12</wgt>
  <wgt id="392">7.93538e-12</wgt>
  <wgt id="393">8.01839e-12</wgt>
  <wgt id="394">7.99656e-12</wgt>
  <wgt id="395">7.97732e-12</wgt>
  <wgt id="396">7.99317e-12</wgt>
  <wgt id="397">7.98486e-12</wgt>
  <wgt id="398">7.97284e-12</wgt>
  <wgt id="399">8.00329e-12</wgt>
  <wgt id="400">7.97976e-12</wgt>
  <wgt id="401">8.00725e-12</wgt>
  <wgt id="402">7.93087e-12</wgt>
  <wgt id="403">8.01566e-12</wgt>
  <wgt id="404">8.16332e-12</wgt>
  <wgt id="405">7.56602e-12</wgt>
  <wgt id="406">7.85978e-12</wgt>
  <wgt id="407">8.26812e-12</wgt>
  <wgt id="408">8.05356e-12</wgt>
  <wgt id="409">7.86379e-12</wgt>
  <wgt id="410">7.7783e-12</wgt>
  <wgt id="411">8.08633e-12</wgt>
  <wgt id="412">7.97422e-12</wgt>
  <wgt id="413">8.00816e-12</wgt>
  <wgt id="414">7.90414e-12</wgt>
  <wgt id="415">8.05327e-12</wgt>
  <wgt id="416">8.18617e-12</wgt>
  <wgt id="417">7.71349e-12</wgt>
  <wgt id="418">8.00028e-12</wgt>
  <wgt id="419">7.92366e-12</wgt>
  <wgt id="420">8.09043e-12</wgt>
  <wgt id="421">7.92748e-12</wgt>
  <wgt id="422">7.97661e-12</wgt>
  <wgt id="423">7.99485e-12</wgt>
  <wgt id="424">8.1355e-12</wgt>
  <wgt id="425">7.89265e-12</wgt>
  <wgt id="426">7.98871e-12</wgt>
  <wgt id="427">7.90864e-12</wgt>
  <wgt id="428">8.19786e-12</wgt>
  <wgt id="429">8.0572e-12</wgt>
  <wgt id="430">8.26735e-12</wgt>
  <wgt id="431">8.22609e-12</wgt>
  <wgt id="432">8.18645e-12</wgt>
  <wgt id="433">8.14832e-12</wgt>
  <wgt id="434">8.10053e-12</wgt>
  <wgt id="435">8.00204e-12</wgt>
  <wgt id="436">7.95167e-12</wgt>
  <wgt id="437">7.90346e-12</wgt>
  <wgt id="438">8.0572e-12</wgt>
  <wgt id="439">8.08184e-12</wgt>
  <wgt id="440">8.06705e-12</wgt>
  <wgt id="441">8.04896e-12</wgt>
  <wgt id="442">8.04354e-12</wgt>
  <wgt id="443">7.70869e-12</wgt>
  <wgt id="444">7.76121e-12</wgt>
  <wgt id="445">7.73696e-12</wgt>
  <wgt id="446">7.65368e-12</wgt>
  <wgt id="447">7.70687e-12</wgt>
  <wgt id="448">7.53352e-12</wgt>
  <wgt id="449">7.82607e-12</wgt>
  <wgt id="450">7.74565e-12</wgt>
  <wgt id="451">7.69348e-12</wgt>
  <wgt id="452">7.85681e-12</wgt>
  <wgt id="453">7.77034e-12</wgt>
  <wgt id="454">7.39878e-12</wgt>
  <wgt id="455">7.74102e-12</wgt>
  <wgt id="456">7.72898e-12</wgt>
  <wgt id="457">7.728e-12</wgt>
  <wgt id="458">7.81949e-12</wgt>
  <wgt id="459">7.76863e-12</wgt>
  <wgt id="460">7.80003e-12</wgt>
  <wgt id="461">7.56983e-12</wgt>
  <wgt id="462">7.66969e-12</wgt>
  <wgt id="463">7.61512e-12</wgt>
  <wgt id="464">7.67787e-12</wgt>
  <wgt id="465">7.77794e-12</wgt>
  <wgt id="466">7.60514e-12</wgt>
  <wgt id="467">7.65001e-12</wgt>
  <wgt id="468">7.69507e-12</wgt>
  <wgt id="469">7.70073e-12</wgt>
  <wgt id="470">7.62786e-12</wgt>
  <wgt id="471">7.64414e-12</wgt>
  <wgt id="472">7.74053e-12</wgt>
  <wgt id="473">7.51843e-12</wgt>
  <wgt id="474">5.79e-12</wgt>
  <wgt id="475">5.9167e-12</wgt>
  <wgt id="476">5.68511e-12</wgt>
  <wgt id="477">5.59445e-12</wgt>
  <wgt id="478">5.84227e-12</wgt>
  <wgt id="479">5.65943e-12</wgt>
  <wgt id="480">6.04978e-12</wgt>
  <wgt id="481">5.7867e-12</wgt>
  <wgt id="482">5.72755e-12</wgt>
  <wgt id="483">5.6639e-12</wgt>
  <wgt id="484">5.94766e-12</wgt>
  <wgt id="485">5.61668e-12</wgt>
  <wgt id="486">6.06801e-12</wgt>
  <wgt id="487">5.79071e-12</wgt>
  <wgt id="488">5.90744e-12</wgt>
  <wgt id="489">5.49553e-12</wgt>
  <wgt id="490">5.58611e-12</wgt>
  <wgt id="491">5.78224e-12</wgt>
  <wgt id="492">5.71377e-12</wgt>
  <wgt id="493">5.53456e-12</wgt>
  <wgt id="494">5.58919e-12</wgt>
  <wgt id="495">5.80582e-12</wgt>
  <wgt id="496">5.59783e-12</wgt>
  <wgt id="497">5.54322e-12</wgt>
  <wgt id="498">5.94397e-12</wgt>
  <wgt id="499">5.74243e-12</wgt>
  <wgt id="500">5.66833e-12</wgt>
  <wgt id="501">5.9514e-12</wgt>
  <wgt id="502">5.79724e-12</wgt>
  <wgt id="503">5.80556e-12</wgt>
  <wgt id="504">5.92048e-12</wgt>
  <wgt id="505">5.72292e-12</wgt>
  <wgt id="506">5.76819e-12</wgt>
  <wgt id="507">5.80045e-12</wgt>
  <wgt id="508">6.00349e-12</wgt>
  <wgt id="509">5.37878e-12</wgt>
  <wgt id="510">5.89304e-12</wgt>
  <wgt id="511">5.59574e-12</wgt>
  <wgt id="512">5.96788e-12</wgt>
  <wgt id="513">5.97013e-12</wgt>
  <wgt id="514">5.8865e-12</wgt>
  <wgt id="515">5.78858e-12</wgt>
  <wgt id="516">6.12394e-12</wgt>
  <wgt id="517">5.91425e-12</wgt>
  <wgt id="518">5.94567e-12</wgt>
  <wgt id="519">5.63382e-12</wgt>
  <wgt id="520">5.92032e-12</wgt>
  <wgt id="521">5.88202e-12</wgt>
  <wgt id="522">6.02398e-12</wgt>
  <wgt id="523">5.69038e-12</wgt>
  <wgt id="524">5.72783e-12</wgt>
  <wgt id="525">5.91677e-12</wgt>
  <wgt id="526">5.87986e-12</wgt>
  <wgt id="527">5.79305e-12</wgt>
  <wgt id="528">5.82422e-12</wgt>
  <wgt id="529">5.71507e-12</wgt>
  <wgt id="530">5.95083e-12</wgt>
  <wgt id="531">5.68513e-12</wgt>
  <wgt id="532">6.12582e-12</wgt>
  <wgt id="533">5.60178e-12</wgt>
  <wgt id="534">5.75465e-12</wgt>
  <wgt id="535">5.79907e-12</wgt>
  <wgt id="536">5.76416e-12</wgt>
  <wgt id="537">5.73793e-12</wgt>
  <wgt id="538">5.82939e-12</wgt>
  <wgt id="539">5.70833e-12</wgt>
  <wgt id="540">5.817e-12</wgt>
  <wgt id="541">5.62434e-12</wgt>
  <wgt id="542">5.74594e-12</wgt>
  <wgt id="543">5.77605e-12</wgt>
  <wgt id="544">5.98661e-12</wgt>
  <wgt id="545">5.64745e-12</wgt>
  <wgt id="546">5.53154e-12</wgt>
  <wgt id="547">5.67936e-12</wgt>
  <wgt id="548">5.56605e-12</wgt>
  <wgt id="549">5.71835e-12</wgt>
  <wgt id="550">5.65692e-12</wgt>
  <wgt id="551">5.86361e-12</wgt>
  <wgt id="552">5.54847e-12</wgt>
  <wgt id="553">5.69209e-12</wgt>
  <wgt id="554">6.145e-12</wgt>
  <wgt id="555">5.93328e-12</wgt>
  <wgt id="556">5.58611e-12</wgt>
  <wgt id="557">5.94274e-12</wgt>
  <wgt id="558">5.68726e-12</wgt>
  <wgt id="559">5.62066e-12</wgt>
  <wgt id="560">6.3154e-12</wgt>
  <wgt id="561">5.76488e-12</wgt>
  <wgt id="562">5.9909e-12</wgt>
  <wgt id="563">5.91357e-12</wgt>
  <wgt id="564">5.99553e-12</wgt>
  <wgt id="565">5.71104e-12</wgt>
  <wgt id="566">5.85466e-12</wgt>
  <wgt id="567">5.75961e-12</wgt>
  <wgt id="568">5.75108e-12</wgt>
  <wgt id="569">5.93482e-12</wgt>
  <wgt id="570">5.54644e-12</wgt>
  <wgt id="571">6.33221e-12</wgt>
  <wgt id="572">5.72018e-12</wgt>
  <wgt id="573">5.62234e-12</wgt>
  <wgt id="574">5.64337e-12</wgt>
  <wgt id="575">6.32202e-12</wgt>
  <wgt id="576">6.4956e-12</wgt>
  <wgt id="577">6.5329e-12</wgt>
  <wgt id="578">6.54195e-12</wgt>
  <wgt id="579">6.52382e-12</wgt>
  <wgt id="580">6.58781e-12</wgt>
  <wgt id="581">6.83541e-12</wgt>
  <wgt id="582">6.50336e-12</wgt>
  <wgt id="583">6.38921e-12</wgt>
  <wgt id="584">6.2825e-12</wgt>
  <wgt id="585">6.14394e-12</wgt>
  <wgt id="586">6.10698e-12</wgt>
  <wgt id="587">6.44183e-12</wgt>
  <wgt id="588">6.41985e-12</wgt>
  <wgt id="589">6.57145e-12</wgt>
  <wgt id="590">6.30615e-12</wgt>
  <wgt id="591">6.5388e-12</wgt>
  <wgt id="592">5.90621e-12</wgt>
  <wgt id="593">6.23502e-12</wgt>
  <wgt id="594">6.43507e-12</wgt>
  <wgt id="595">6.40422e-12</wgt>
  <wgt id="596">6.65924e-12</wgt>
  <wgt id="597">6.27519e-12</wgt>
  <wgt id="598">6.06509e-12</wgt>
  <wgt id="599">6.61363e-12</wgt>
  <wgt id="600">6.39623e-12</wgt>
  <wgt id="601">6.14065e-12</wgt>
  <wgt id="602">6.12664e-12</wgt>
  <wgt id="603">6.10828e-12</wgt>
  <wgt id="604">6.42741e-12</wgt>
  <wgt id="605">6.5143e-12</wgt>
  <wgt id="606">6.37921e-12</wgt>
  <wgt id="607">6.37014e-12</wgt>
  <wgt id="608">6.47262e-12</wgt>
  <wgt id="609">6.14965e-12</wgt>
  <wgt id="610">6.09574e-12</wgt>
  <wgt id="611">6.20654e-12</wgt>
  <wgt id="612">6.62222e-12</wgt>
  <wgt id="613">6.25228e-12</wgt>
  <wgt id="614">6.32923e-12</wgt>
  <wgt id="615">6.29634e-12</wgt>
  <wgt id="616">6.4731e-12</wgt>
  <wgt id="617">6.49496e-12</wgt>
  <wgt id="618">6.81857e-12</wgt>
  <wgt id="619">6.24431e-12</wgt>
  <wgt id="620">6.5581e-12</wgt>
  <wgt id="621">6.30455e-12</wgt>
  <wgt id="622">6.44183e-12</wgt>
  <wgt id="623">6.47311e-12</wgt>
  <wgt id="624">6.35338e-12</wgt>
  <wgt id="625">6.18605e-12</wgt>
  <wgt id="626">6.00784e-12</wgt>
  <wgt id="627">6.00055e-12</wgt>
  <wgt id="628">6.39573e-12</wgt>
  <wgt id="629">6.28722e-12</wgt>
  <wgt id="630">6.01433e-12</wgt>
  <wgt id="631">6.38383e-12</wgt>
  <wgt id="632">5.9835e-12</wgt>
  <wgt id="633">6.30689e-12</wgt>
  <wgt id="634">6.16735e-12</wgt>
  <wgt id="635">5.99843e-12</wgt>
  <wgt id="636">6.42101e-12</wgt>
  <wgt id="637">6.25688e-12</wgt>
  <wgt id="638">6.12532e-12</wgt>
  <wgt id="639">6.21321e-12</wgt>
  <wgt id="640">6.30675e-12</wgt>
  <wgt id="641">6.49111e-12</wgt>
  <wgt id="642">5.93488e-12</wgt>
  <wgt id="643">6.25558e-12</wgt>
  <wgt id="644">5.8196e-12</wgt>
  <wgt id="645">6.34228e-12</wgt>
  <wgt id="646">6.13557e-12</wgt>
  <wgt id="647">6.2973e-12</wgt>
  <wgt id="648">6.46195e-12</wgt>
  <wgt id="649">6.34968e-12</wgt>
  <wgt id="650">6.13536e-12</wgt>
  <wgt id="651">6.5636e-12</wgt>
  <wgt id="652">6.18707e-12</wgt>
  <wgt id="653">6.09962e-12</wgt>
  <wgt id="654">6.18744e-12</wgt>
  <wgt id="655">6.27021e-12</wgt>
  <wgt id="656">6.35176e-12</wgt>
  <wgt id="657">6.80001e-12</wgt>
  <wgt id="658">6.2298e-12</wgt>
  <wgt id="659">6.07772e-12</wgt>
  <wgt id="660">6.36152e-12</wgt>
  <wgt id="661">6.24256e-12</wgt>
  <wgt id="662">6.30451e-12</wgt>
  <wgt id="663">6.38878e-12</wgt>
  <wgt id="664">6.31781e-12</wgt>
  <wgt id="665">6.3284e-12</wgt>
  <wgt id="666">6.24087e-12</wgt>
  <wgt id="667">6.56924e-12</wgt>
  <wgt id="668">6.30806e-12</wgt>
  <wgt id="669">6.43179e-12</wgt>
  <wgt id="670">6.52574e-12</wgt>
  <wgt id="671">6.34134e-12</wgt>
  <wgt id="672">6.09359e-12</wgt>
  <wgt id="673">6.47191e-12</wgt>
  <wgt id="674">6.1734e-12</wgt>
  <wgt id="675">6.27773e-12</wgt>
  <wgt id="676">7.90704e-12</wgt>
  <wgt id="677">8.02998e-12</wgt>
  <wgt id="678">8.34276e-12</wgt>
  <wgt id="679">7.63181e-12</wgt>
  <wgt id="680">7.85298e-12</wgt>
  <wgt id="681">7.95992e-12</wgt>
  <wgt id="682">8.22301e-12</wgt>
  <wgt id="683">7.67805e-12</wgt>
  <wgt id="684">8.19042e-12</wgt>
  <wgt id="685">7.75887e-12</wgt>
  <wgt id="686">7.6394e-12</wgt>
  <wgt id="687">8.08654e-12</wgt>
  <wgt id="688">7.81288e-12</wgt>
  <wgt id="689">8.23186e-12</wgt>
  <wgt id="690">8.11389e-12</wgt>
  <wgt id="691">8.27382e-12</wgt>
  <wgt id="692">7.82538e-12</wgt>
  <wgt id="693">9.40125e-12</wgt>
  <wgt id="694">8.43403e-12</wgt>
  <wgt id="695">7.68312e-12</wgt>
  <wgt id="696">7.74848e-12</wgt>
  <wgt id="697">7.60659e-12</wgt>
  <wgt id="698">7.07273e-12</wgt>
  <wgt id="699">7.10437e-12</wgt>
  <wgt id="700">7.05845e-12</wgt>
  <wgt id="701">7.88665e-12</wgt>
  <wgt id="702">7.85181e-12</wgt>
  <wgt id="703">9.05631e-12</wgt>
  <wgt id="704">8.65414e-12</wgt>
  <wgt id="705">8.54246e-12</wgt>
  <wgt id="706">7.6114e-12</wgt>
  <wgt id="707">7.57481e-12</wgt>
  <wgt id="708">7.70664e-12</wgt>
  <wgt id="709">7.70591e-12</wgt>
  <wgt id="710">7.29935e-12</wgt>
  <wgt id="711">7.89336e-12</wgt>
  <wgt id="712">7.61817e-12</wgt>
  <wgt id="713">8.49558e-12</wgt>
  <wgt id="714">7.54518e-12</wgt>
  <wgt id="715">7.78792e-12</wgt>
  <wgt id="716">7.62871e-12</wgt>
  <wgt id="717">7.39817e-12</wgt>
  <wgt id="718">8.04002e-12</wgt>
  <wgt id="719">7.24246e-12</wgt>
  <wgt id="720">7.71157e-12</wgt>
  <wgt id="721">7.07794e-12</wgt>
  <wgt id="722">6.93323e-12</wgt>
  <wgt id="723">8.4638e-12</wgt>
  <wgt id="724">8.32562e-12</wgt>
  <wgt id="725">8.2067e-12</wgt>
  <wgt id="726">7.88554e-12</wgt>
  <wgt id="727">7.7975e-12</wgt>
  <wgt id="728">7.65453e-12</wgt>
  <wgt id="729">7.71175e-12</wgt>
  <wgt id="730">8.43495e-12</wgt>
  <wgt id="731">7.73324e-12</wgt>
  <wgt id="732">8.73424e-12</wgt>
  <wgt id="733">7.68232e-12</wgt>
  <wgt id="734">8.04297e-12</wgt>
  <wgt id="735">8.05879e-12</wgt>
  <wgt id="736">7.62501e-12</wgt>
  <wgt id="737">7.88889e-12</wgt>
  <wgt id="738">7.61502e-12</wgt>
  <wgt id="739">8.20331e-12</wgt>
  <wgt id="740">8.77395e-12</wgt>
  <wgt id="741">7.39103e-12</wgt>
  <wgt id="742">7.81366e-12</wgt>
  <wgt id="743">7.53827e-12</wgt>
  <wgt id="744">7.73881e-12</wgt>
  <wgt id="745">8.22701e-12</wgt>
  <wgt id="746">8.39841e-12</wgt>
  <wgt id="747">7.00062e-12</wgt>
  <wgt id="748">7.83934e-12</wgt>
  <wgt id="749">8.14651e-12</wgt>
  <wgt id="750">8.39646e-12</wgt>
  <wgt id="751">7.98838e-12</wgt>
  <wgt id="752">7.27846e-12</wgt>
  <wgt id="753">7.413e-12</wgt>
  <wgt id="754">8.2465e-12</wgt>
  <wgt id="755">7.85207e-12</wgt>
  <wgt id="756">7.82573e-12</wgt>
  <wgt id="757">7.21657e-12</wgt>
  <wgt id="758">7.7881e-12</wgt>
  <wgt id="759">8.5662e-12</wgt>
  <wgt id="760">7.81908e-12</wgt>
  <wgt id="761">8.36017e-12</wgt>
  <wgt id="762">8.3822e-12</wgt>
  <wgt id="763">7.87885e-12</wgt>
  <wgt id="764">8.20856e-12</wgt>
  <wgt id="765">8.09645e-12</wgt>
  <wgt id="766">7.90477e-12</wgt>
  <wgt id="767">8.0356e-12</wgt>
  <wgt id="768">7.4019e-12</wgt>
  <wgt id="769">8.33191e-12</wgt>
  <wgt id="770">7.79129e-12</wgt>
  <wgt id="771">9.17972e-12</wgt>
  <wgt id="772">7.61654e-12</wgt>
  <wgt id="773">7.84758e-12</wgt>
  <wgt id="774">6.80421e-12</wgt>
  <wgt id="775">8.25535e-12</wgt>
  <wgt id="776">8.51695e-12</wgt>
  <wgt id="777">7.40702e-12</wgt>
  <wgt id="778">5.74753e-12</wgt>
  <wgt id="779">4.46305e-12</wgt>
  <wgt id="780">3.44756e-12</wgt>
  <wgt id="781">6.55253e-12</wgt>
  <wgt id="782">6.28556e-12</wgt>
  <wgt id="783">4.41801e-12</wgt>
  <wgt id="784">4.81069e-12</wgt>
  <wgt id="785">7.34311e-12</wgt>
  <wgt id="786">4.33298e-12</wgt>
  <wgt id="787">6.66404e-12</wgt>
  <wgt id="788">3.08828e-12</wgt>
  <wgt id="789">4.88508e-12</wgt>
  <wgt id="790">4.21657e-12</wgt>
  <wgt id="791">5.88788e-12</wgt>
  <wgt id="792">7.66206e-12</wgt>
  <wgt id="793">5.68873e-12</wgt>
  <wgt id="794">4.05488e-12</wgt>
  <wgt id="795">6.88828e-12</wgt>
  <wgt id="796">7.61357e-12</wgt>
  <wgt id="797">6.95386e-12</wgt>
  <wgt id="798">4.96127e-12</wgt>
  <wgt id="799">6.54789e-12</wgt>
  <wgt id="800">4.86229e-12</wgt>
  <wgt id="801">5.28895e-12</wgt>
  <wgt id="802">4.05814e-12</wgt>
  <wgt id="803">8.17954e-12</wgt>
  <wgt id="804">7.00154e-12</wgt>
  <wgt id="805">6.81332e-12</wgt>
  <wgt id="806">6.28092e-12</wgt>
  <wgt id="807">5.51049e-12</wgt>
  <wgt id="808">5.46007e-12</wgt>
  <wgt id="809">5.41226e-12</wgt>
  <wgt id="810">6.24892e-12</wgt>
  <wgt id="811">6.08549e-12</wgt>
  <wgt id="812">4.18578e-12</wgt>
  <wgt id="813">4.33757e-12</wgt>
  <wgt id="814">4.67299e-12</wgt>
  <wgt id="815">4.4242e-12</wgt>
  <wgt id="816">4.2333e-12</wgt>
  <wgt id="817">5.82973e-12</wgt>
  <wgt id="818">6.24734e-12</wgt>
  <wgt id="819">4.46967e-12</wgt>
  <wgt id="820">5.63367e-12</wgt>
  <wgt id="821">6.50569e-12</wgt>
  <wgt id="822">4.68245e-12</wgt>
  <wgt id="823">6.71923e-12</wgt>
  <wgt id="824">7.83195e-12</wgt>
  <wgt id="825">3.95604e-12</wgt>
  <wgt id="826">6.3296e-12</wgt>
  <wgt id="827">3.40104e-12</wgt>
  <wgt id="828">7.26716e-12</wgt>
  <wgt id="829">5.88236e-12</wgt>
  <wgt id="830">3.78821e-12</wgt>
  <wgt id="831">6.28051e-12</wgt>
  <wgt id="832">9.40848e-12</wgt>
  <wgt id="833">5.10979e-12</wgt>
  <wgt id="834">9.03272e-12</wgt>
  <wgt id="835">4.68392e-12</wgt>
  <wgt id="836">5.38812e-12</wgt>
  <wgt id="837">6.44206e-12</wgt>
  <wgt id="838">5.17372e-12</wgt>
  <wgt id="839">6.23747e-12</wgt>
  <wgt id="840">5.22564e-12</wgt>
  <wgt id="841">7.24664e-12</wgt>
  <wgt id="842">5.38207e-12</wgt>
  <wgt id="843">5.909e-12</wgt>
  <wgt id="844">6.03778e-12</wgt>
  <wgt id="845">8.87708e-12</wgt>
  <wgt id="846">6.03078e-12</wgt>
  <wgt id="847">5.98163e-12</wgt>
  <wgt id="848">4.58393e-12</wgt>
  <wgt id="849">5.94213e-12</wgt>
  <wgt id="850">7.61901e-12</wgt>
  <wgt id="851">6.37515e-12</wgt>
  <wgt id="852">4.34885e-12</wgt>
  <wgt id="853">6.48032e-12</wgt>
  <wgt id="854">7.16301e-12</wgt>
  <wgt id="855">6.51845e-12</wgt>
  <wgt id="856">3.81539e-12</wgt>
  <wgt id="857">5.48599e-12</wgt>
  <wgt id="858">5.39746e-12</wgt>
  <wgt id="859">5.4778e-12</wgt>
  <wgt id="860">6.5234e-12</wgt>
  <wgt id="861">5.0342e-12</wgt>
  <wgt id="862">5.75685e-12</wgt>
  <wgt id="863">6.19985e-12</wgt>
  <wgt id="864">6.05184e-12</wgt>
  <wgt id="865">8.11925e-12</wgt>
  <wgt id="866">9.12712e-12</wgt>
  <wgt id="867">5.80451e-12</wgt>
  <wgt id="868">5.6e-12</wgt>
  <wgt id="869">4.22488e-12</wgt>
  <wgt id="870">4.50778e-12</wgt>
  <wgt id="871">4.39875e-12</wgt>
  <wgt id="872">7.09381e-12</wgt>
  <wgt id="873">4.86409e-12</wgt>
  <wgt id="874">6.09238e-12</wgt>
  <wgt id="875">4.90933e-12</wgt>
  <wgt id="876">6.95628e-12</wgt>
  <wgt id="877">6.39556e-12</wgt>
  <wgt id="878">4.77455e-12</wgt>
  <wgt id="879">7.90704e-12</wgt>
  <wgt id="880">8.02998e-12</wgt>
  <wgt id="881">8.34276e-12</wgt>
  <wgt id="882">7.63181e-12</wgt>
  <wgt id="883">7.85298e-12</wgt>
  <wgt id="884">7.95992e-12</wgt>
  <wgt id="885">8.22301e-12</wgt>
  <wgt id="886">7.67805e-12</wgt>
  <wgt id="887">8.19042e-12</wgt>
  <wgt id="888">7.75887e-12</wgt>
  <wgt id="889">7.6394e-12</wgt>
  <wgt id="890">8.08654e-12</wgt>
  <wgt id="891">7.81288e-12</wgt>
  <wgt id="892">8.23186e-12</wgt>
  <wgt id="893">8.11389e-12</wgt>
  <wgt id="894">8.27382e-12</wgt>
  <wgt id="895">7.82538e-12</wgt>
  <wgt id="896">9.40125e-12</wgt>
  <wgt id="897">8.43403e-12</wgt>
  <wgt id="898">7.68312e-12</wgt>
  <wgt id="899">7.74848e-12</wgt>
  <wgt id="900">7.60659e-12</wgt>
  <wgt id="901">7.07273e-12</wgt>
  <wgt id="902">7.10437e-12</wgt>
  <wgt id="903">7.05845e-12</wgt>
  <wgt id="904">7.88665e-12</wgt>
  <wgt id="905">7.85181e-12</wgt>
  <wgt id="906">9.05631e-12</wgt>
  <wgt id="907">8.65414e-12</wgt>
  <wgt id="908">8.54246e-12</wgt>
  <wgt id="909">7.6114e-12</wgt>
  <wgt id="910">7.57481e-12</wgt>
  <wgt id="911">7.70664e-12</wgt>
  <wgt id="912">7.70591e-12</wgt>
  <wgt id="913">7.29935e-12</wgt>
  <wgt id="914">7.89336e-12</wgt>
  <wgt id="915">7.61817e-12</wgt>
  <wgt id="916">8.49558e-12</wgt>
  <wgt id="917">7.54518e-12</wgt>
  <wgt id="918">7.78792e-12</wgt>
  <wgt id="919">7.62871e-12</wgt>
  <wgt id="920">7.39817e-12</wgt>
  <wgt id="921">8.04002e-12</wgt>
  <wgt id="922">7.24246e-12</wgt>
  <wgt id="923">7.71157e-12</wgt>
  <wgt id="924">7.07794e-12</wgt>
  <wgt id="925">6.93323e-12</wgt>
  <wgt id="926">8.4638e-12</wgt>
  <wgt id="927">8.32562e-12</wgt>
  <wgt id="928">8.2067e-12</wgt>
  <wgt id="929">7.88554e-12</wgt>
  <wgt id="930">7.7975e-12</wgt>
  <wgt id="931">7.65453e-12</wgt>
  <wgt id="932">7.71175e-12</wgt>
  <wgt id="933">8.43495e-12</wgt>
  <wgt id="934">7.73324e-12</wgt>
  <wgt id="935">8.73424e-12</wgt>
  <wgt id="936">7.68232e-12</wgt>
  <wgt id="937">8.04297e-12</wgt>
  <wgt id="938">8.05879e-12</wgt>
  <wgt id="939">7.62501e-12</wgt>
  <wgt id="940">7.88889e-12</wgt>
  <wgt id="941">7.61502e-12</wgt>
  <wgt id="942">8.20331e-12</wgt>
  <wgt id="943">8.77395e-12</wgt>
  <wgt id="944">7.39103e-12</wgt>
  <wgt id="945">7.81366e-12</wgt>
  <wgt id="946">7.53827e-12</wgt>
  <wgt id="947">7.73881e-12</wgt>
  <wgt id="948">8.22701e-12</wgt>
  <wgt id="949">8.39841e-12</wgt>
  <wgt id="950">7.00062e-12</wgt>
  <wgt id="951">7.83934e-12</wgt>
  <wgt id="952">8.14651e-12</wgt>
  <wgt id="953">8.39646e-12</wgt>
  <wgt id="954">7.98838e-12</wgt>
  <wgt id="955">7.27846e-12</wgt>
  <wgt id="956">7.413e-12</wgt>
  <wgt id="957">8.2465e-12</wgt>
  <wgt id="958">7.85207e-12</wgt>
  <wgt id="959">7.82573e-12</wgt>
  <wgt id="960">7.21657e-12</wgt>
  <wgt id="961">7.7881e-12</wgt>
  <wgt id="962">8.5662e-12</wgt>
  <wgt id="963">7.81908e-12</wgt>
  <wgt id="964">8.36017e-12</wgt>
  <wgt id="965">8.3822e-12</wgt>
  <wgt id="966">7.87885e-12</wgt>
  <wgt id="967">8.20856e-12</wgt>
  <wgt id="968">8.09645e-12</wgt>
  <wgt id="969">7.90477e-12</wgt>
  <wgt id="970">8.0356e-12</wgt>
  <wgt id="971">7.4019e-12</wgt>
  <wgt id="972">8.33191e-12</wgt>
  <wgt id="973">7.79129e-12</wgt>
  <wgt id="974">9.17972e-12</wgt>
  <wgt id="975">7.61654e-12</wgt>
  <wgt id="976">7.84758e-12</wgt>
  <wgt id="977">6.80421e-12</wgt>
  <wgt id="978">8.25535e-12</wgt>
  <wgt id="979">8.51695e-12</wgt>
  <wgt id="980">7.88136e-12</wgt>
  <wgt id="981">7.96052e-12</wgt>
  <wgt id="982">7.65823e-12</wgt>
</rwgt>
</event>
<event>
 5   1  0.5790000E-11  0.2188457E+04  0.7818608E-02  0.7753230E-01
       21   -1    0    0  502  501  0.00000000000E+00  0.00000000000E+00  0.80731575255E+03  0.80731575255E+03  0.00000000000E+00 0.  1.
       21   -1    0    0  501  502 -0.00000000000E+00 -0.00000000000E+00 -0.14831079846E+04  0.14831079846E+04  0.00000000000E+00 0. -1.
       39    2    1    2    0    0  0.00000000000E+00  0.00000000000E+00 -0.67579223207E+03  0.22904237372E+04  0.21884573916E+04 0.  0.
       25    1    3    3    0    0  0.95297013569E+03  0.50979357162E+03 -0.46026189764E+03  0.11813160371E+04  0.12500000000E+03 0.  0.
       25    1    3    3    0    0 -0.95297013569E+03 -0.50979357162E+03 -0.21553033443E+03  0.11091077000E+04  0.12500000000E+03 0.  0.
<mgrwt>
<rscale>  0 0.21884574E+04</rscale>
<asrwt>0</asrwt>
<pdfrwt beam="1">  1       21 0.12420242E+00 0.21884574E+04</pdfrwt>
<pdfrwt beam="2">  1       21 0.22817046E+00 0.21884574E+04</pdfrwt>
<totfact> 0.17176149E+01</totfact>
</mgrwt>
<rwgt>
  <wgt id="1">5.79e-12</wgt>
  <wgt id="2">5.05059e-12</wgt>
  <wgt id="3">6.70574e-12</wgt>
  <wgt id="4">5.79e-12</wgt>
  <wgt id="5">5.05059e-12</wgt>
  <wgt id="6">6.70574e-12</wgt>
  <wgt id="7">5.79e-12</wgt>
  <wgt id="8">5.05059e-12</wgt>
  <wgt id="9">6.70574e-12</wgt>
  <wgt id="10">5.98107e-12</wgt>
  <wgt id="11">5.97672e-12</wgt>
  <wgt id="12">5.97107e-12</wgt>
  <wgt id="13">5.96191e-12</wgt>
  <wgt id="14">6.00265e-12</wgt>
  <wgt id="15">5.99084e-12</wgt>
  <wgt id="16">5.97107e-12</wgt>
  <wgt id="17">5.99628e-12</wgt>
  <wgt id="18">5.97194e-12</wgt>
  <wgt id="19">5.99364e-12</wgt>
  <wgt id="20">5.96594e-12</wgt>
  <wgt id="21">5.94264e-12</wgt>
  <wgt id="22">5.95502e-12</wgt>
  <wgt id="23">5.92323e-12</wgt>
  <wgt id="24">5.95052e-12</wgt>
  <wgt id="25">5.96542e-12</wgt>
  <wgt id="26">6.00189e-12</wgt>
  <wgt id="27">5.9787e-12</wgt>
  <wgt id="28">5.95169e-12</wgt>
  <wgt id="29">5.9856e-12</wgt>
  <wgt id="30">5.95781e-12</wgt>
  <wgt id="31">6.0013e-12</wgt>
  <wgt id="32">5.96454e-12</wgt>
  <wgt id="33">5.99331e-12</wgt>
  <wgt id="34">5.95875e-12</wgt>
  <wgt id="35">5.96956e-12</wgt>
  <wgt id="36">5.99868e-12</wgt>
  <wgt id="37">5.9653e-12</wgt>
  <wgt id="38">5.96478e-12</wgt>
  <wgt id="39">6.0497e-12</wgt>
  <wgt id="40">5.99052e-12</wgt>
  <wgt id="41">5.97884e-12</wgt>
  <wgt id="42">5.99353e-12</wgt>
  <wgt id="43">5.98186e-12</wgt>
  <wgt id="44">5.9701e-12</wgt>
  <wgt id="45">5.99134e-12</wgt>
  <wgt id="46">5.98366e-12</wgt>
  <wgt id="47">5.97107e-12</wgt>
  <wgt id="48">5.98151e-12</wgt>
  <wgt id="49">5.98116e-12</wgt>
  <wgt id="50">5.9972e-12</wgt>
  <wgt id="51">5.99315e-12</wgt>
  <wgt id="52">5.97895e-12</wgt>
  <wgt id="53">5.95162e-12</wgt>
  <wgt id="54">5.97468e-12</wgt>
  <wgt id="55">5.9801e-12</wgt>
  <wgt id="56">6.00401e-12</wgt>
  <wgt id="57">5.99712e-12</wgt>
  <wgt id="58">5.95023e-12</wgt>
  <wgt id="59">5.96482e-12</wgt>
  <wgt id="60">5.9857e-12</wgt>
  <wgt id="61">5.95836e-12</wgt>
  <wgt id="62">5.96886e-12</wgt>
  <wgt id="63">5.97855e-12</wgt>
  <wgt id="64">5.98537e-12</wgt>
  <wgt id="65">5.9896e-12</wgt>
  <wgt id="66">5.97393e-12</wgt>
  <wgt id="67">5.95944e-12</wgt>
  <wgt id="68">5.97725e-12</wgt>
  <wgt id="69">5.98219e-12</wgt>
  <wgt id="70">5.98122e-12</wgt>
  <wgt id="71">5.97962e-12</wgt>
  <wgt id="72">5.96969e-12</wgt>
  <wgt id="73">5.98564e-12</wgt>
  <wgt id="74">5.9831e-12</wgt>
  <wgt id="75">5.97415e-12</wgt>
  <wgt id="76">5.99429e-12</wgt>
  <wgt id="77">5.97944e-12</wgt>
  <wgt id="78">5.9812e-12</wgt>
  <wgt id="79">5.99435e-12</wgt>
  <wgt id="80">5.95915e-12</wgt>
  <wgt id="81">5.97617e-12</wgt>
  <wgt id="82">5.9812e-12</wgt>
  <wgt id="83">5.95988e-12</wgt>
  <wgt id="84">5.97331e-12</wgt>
  <wgt id="85">5.96803e-12</wgt>
  <wgt id="86">5.99823e-12</wgt>
  <wgt id="87">5.95073e-12</wgt>
  <wgt id="88">5.98697e-12</wgt>
  <wgt id="89">5.9861e-12</wgt>
  <wgt id="90">5.99299e-12</wgt>
  <wgt id="91">5.987e-12</wgt>
  <wgt id="92">5.99241e-12</wgt>
  <wgt id="93">5.98344e-12</wgt>
  <wgt id="94">5.97584e-12</wgt>
  <wgt id="95">5.989e-12</wgt>
  <wgt id="96">5.98498e-12</wgt>
  <wgt id="97">5.97066e-12</wgt>
  <wgt id="98">5.98352e-12</wgt>
  <wgt id="99">5.97269e-12</wgt>
  <wgt id="100">5.98657e-12</wgt>
  <wgt id="101">5.9818e-12</wgt>
  <wgt id="102">5.97652e-12</wgt>
  <wgt id="103">5.98871e-12</wgt>
  <wgt id="104">5.97913e-12</wgt>
  <wgt id="105">5.98913e-12</wgt>
  <wgt id="106">5.97238e-12</wgt>
  <wgt id="107">5.99741e-12</wgt>
  <wgt id="108">5.97513e-12</wgt>
  <wgt id="109">5.98103e-12</wgt>
  <wgt id="110">5.98175e-12</wgt>
  <wgt id="111">6.03698e-12</wgt>
  <wgt id="112">5.98845e-12</wgt>
  <wgt id="113">8.00143e-12</wgt>
  <wgt id="114">8.17106e-12</wgt>
  <wgt id="115">8.04944e-12</wgt>
  <wgt id="116">1.10055e-11</wgt>
  <wgt id="117">6.5938e-12</wgt>
  <wgt id="118">6.61547e-12</wgt>
  <wgt id="119">6.58115e-12</wgt>
  <wgt id="120">6.59446e-12</wgt>
  <wgt id="121">6.5935e-12</wgt>
  <wgt id="122">6.58191e-12</wgt>
  <wgt id="123">6.6097e-12</wgt>
  <wgt id="124">6.58416e-12</wgt>
  <wgt id="125">6.59965e-12</wgt>
  <wgt id="126">6.60442e-12</wgt>
  <wgt id="127">6.58654e-12</wgt>
  <wgt id="128">6.61432e-12</wgt>
  <wgt id="129">6.57338e-12</wgt>
  <wgt id="130">6.63077e-12</wgt>
  <wgt id="131">6.55586e-12</wgt>
  <wgt id="132">6.42517e-12</wgt>
  <wgt id="133">6.79254e-12</wgt>
  <wgt id="134">6.5253e-12</wgt>
  <wgt id="135">6.64725e-12</wgt>
  <wgt id="136">6.67624e-12</wgt>
  <wgt id="137">6.49362e-12</wgt>
  <wgt id="138">6.84344e-12</wgt>
  <wgt id="139">6.35211e-12</wgt>
  <wgt id="140">6.55073e-12</wgt>
  <wgt id="141">6.62716e-12</wgt>
  <wgt id="142">6.59432e-12</wgt>
  <wgt id="143">6.60365e-12</wgt>
  <wgt id="144">6.41551e-12</wgt>
  <wgt id="145">6.75856e-12</wgt>
  <wgt id="146">6.64973e-12</wgt>
  <wgt id="147">6.54925e-12</wgt>
  <wgt id="148">6.61351e-12</wgt>
  <wgt id="149">6.59227e-12</wgt>
  <wgt id="150">6.6493e-12</wgt>
  <wgt id="151">6.5679e-12</wgt>
  <wgt id="152">6.59643e-12</wgt>
  <wgt id="153">6.59268e-12</wgt>
  <wgt id="154">6.64511e-12</wgt>
  <wgt id="155">6.53137e-12</wgt>
  <wgt id="156">6.71913e-12</wgt>
  <wgt id="157">6.46023e-12</wgt>
  <wgt id="158">7.93326e-12</wgt>
  <wgt id="159">7.96656e-12</wgt>
  <wgt id="160">7.90671e-12</wgt>
  <wgt id="161">7.91472e-12</wgt>
  <wgt id="162">7.95445e-12</wgt>
  <wgt id="163">7.92503e-12</wgt>
  <wgt id="164">7.94545e-12</wgt>
  <wgt id="165">7.9366e-12</wgt>
  <wgt id="166">7.93078e-12</wgt>
  <wgt id="167">7.92741e-12</wgt>
  <wgt id="168">7.94168e-12</wgt>
  <wgt id="169">7.89912e-12</wgt>
  <wgt id="170">7.95439e-12</wgt>
  <wgt id="171">7.92537e-12</wgt>
  <wgt id="172">7.94428e-12</wgt>
  <wgt id="173">7.93207e-12</wgt>
  <wgt id="174">7.93369e-12</wgt>
  <wgt id="175">7.71751e-12</wgt>
  <wgt id="176">8.21425e-12</wgt>
  <wgt id="177">7.97294e-12</wgt>
  <wgt id="178">7.89691e-12</wgt>
  <wgt id="179">8.25778e-12</wgt>
  <wgt id="180">7.42084e-12</wgt>
  <wgt id="181">7.70848e-12</wgt>
  <wgt id="182">8.08151e-12</wgt>
  <wgt id="183">7.79595e-12</wgt>
  <wgt id="184">8.00129e-12</wgt>
  <wgt id="185">7.86839e-12</wgt>
  <wgt id="186">8.01041e-12</wgt>
  <wgt id="187">7.86153e-12</wgt>
  <wgt id="188">8.06145e-12</wgt>
  <wgt id="189">7.88331e-12</wgt>
  <wgt id="190">7.95355e-12</wgt>
  <wgt id="191">7.95451e-12</wgt>
  <wgt id="192">7.92053e-12</wgt>
  <wgt id="193">8.04239e-12</wgt>
  <wgt id="194">7.8792e-12</wgt>
  <wgt id="195">7.75205e-12</wgt>
  <wgt id="196">8.26275e-12</wgt>
  <wgt id="197">7.97154e-12</wgt>
  <wgt id="198">7.92423e-12</wgt>
  <wgt id="199">7.93326e-12</wgt>
  <wgt id="200">7.99977e-12</wgt>
  <wgt id="201">7.97571e-12</wgt>
  <wgt id="202">7.95208e-12</wgt>
  <wgt id="203">7.91678e-12</wgt>
  <wgt id="204">7.9e-12</wgt>
  <wgt id="205">7.88611e-12</wgt>
  <wgt id="206">7.72906e-12</wgt>
  <wgt id="207">7.77393e-12</wgt>
  <wgt id="208">7.6851e-12</wgt>
  <wgt id="209">7.75088e-12</wgt>
  <wgt id="210">7.71389e-12</wgt>
  <wgt id="211">7.7271e-12</wgt>
  <wgt id="212">7.73091e-12</wgt>
  <wgt id="213">7.72863e-12</wgt>
  <wgt id="214">7.73012e-12</wgt>
  <wgt id="215">7.73445e-12</wgt>
  <wgt id="216">7.72574e-12</wgt>
  <wgt id="217">7.74968e-12</wgt>
  <wgt id="218">7.71339e-12</wgt>
  <wgt id="219">7.71952e-12</wgt>
  <wgt id="220">7.73539e-12</wgt>
  <wgt id="221">7.72679e-12</wgt>
  <wgt id="222">7.7351e-12</wgt>
  <wgt id="223">7.33223e-12</wgt>
  <wgt id="224">8.09032e-12</wgt>
  <wgt id="225">7.64074e-12</wgt>
  <wgt id="226">7.84065e-12</wgt>
  <wgt id="227">7.65897e-12</wgt>
  <wgt id="228">7.76015e-12</wgt>
  <wgt id="229">7.6255e-12</wgt>
  <wgt id="230">7.78095e-12</wgt>
  <wgt id="231">7.94588e-12</wgt>
  <wgt id="232">7.55083e-12</wgt>
  <wgt id="233">7.69023e-12</wgt>
  <wgt id="234">7.79072e-12</wgt>
  <wgt id="235">7.57409e-12</wgt>
  <wgt id="236">7.87432e-12</wgt>
  <wgt id="237">7.62437e-12</wgt>
  <wgt id="238">7.76516e-12</wgt>
  <wgt id="239">7.684e-12</wgt>
  <wgt id="240">7.8119e-12</wgt>
  <wgt id="241">7.65289e-12</wgt>
  <wgt id="242">7.8208e-12</wgt>
  <wgt id="243">7.81313e-12</wgt>
  <wgt id="244">7.77085e-12</wgt>
  <wgt id="245">7.72352e-12</wgt>
  <wgt id="246">7.78584e-12</wgt>
  <wgt id="247">7.72906e-12</wgt>
  <wgt id="248">7.79589e-12</wgt>
  <wgt id="249">7.7706e-12</wgt>
  <wgt id="250">7.74686e-12</wgt>
  <wgt id="251">7.71178e-12</wgt>
  <wgt id="252">7.69503e-12</wgt>
  <wgt id="253">7.68306e-12</wgt>
  <wgt id="254">7.55273e-12</wgt>
  <wgt id="255">7.55953e-12</wgt>
  <wgt id="256">7.54505e-12</wgt>
  <wgt id="257">7.55842e-12</wgt>
  <wgt id="258">7.54837e-12</wgt>
  <wgt id="259">7.60263e-12</wgt>
  <wgt id="260">7.50417e-12</wgt>
  <wgt id="261">7.56132e-12</wgt>
  <wgt id="262">7.54215e-12</wgt>
  <wgt id="263">7.54926e-12</wgt>
  <wgt id="264">7.55624e-12</wgt>
  <wgt id="265">7.54458e-12</wgt>
  <wgt id="266">7.56899e-12</wgt>
  <wgt id="267">7.55475e-12</wgt>
  <wgt id="268">7.54936e-12</wgt>
  <wgt id="269">7.57487e-12</wgt>
  <wgt id="270">7.53743e-12</wgt>
  <wgt id="271">7.53922e-12</wgt>
  <wgt id="272">7.56792e-12</wgt>
  <wgt id="273">7.53052e-12</wgt>
  <wgt id="274">7.56933e-12</wgt>
  <wgt id="275">7.52189e-12</wgt>
  <wgt id="276">7.58445e-12</wgt>
  <wgt id="277">7.51079e-12</wgt>
  <wgt id="278">7.59127e-12</wgt>
  <wgt id="279">7.41532e-12</wgt>
  <wgt id="280">7.72481e-12</wgt>
  <wgt id="281">7.52161e-12</wgt>
  <wgt id="282">7.55416e-12</wgt>
  <wgt id="283">7.34437e-12</wgt>
  <wgt id="284">7.80868e-12</wgt>
  <wgt id="285">7.2056e-12</wgt>
  <wgt id="286">7.83894e-12</wgt>
  <wgt id="287">7.57567e-12</wgt>
  <wgt id="288">7.52315e-12</wgt>
  <wgt id="289">7.6037e-12</wgt>
  <wgt id="290">7.43365e-12</wgt>
  <wgt id="291">7.53267e-12</wgt>
  <wgt id="292">7.55698e-12</wgt>
  <wgt id="293">7.49673e-12</wgt>
  <wgt id="294">7.60827e-12</wgt>
  <wgt id="295">7.41455e-12</wgt>
  <wgt id="296">7.72086e-12</wgt>
  <wgt id="297">7.55305e-12</wgt>
  <wgt id="298">7.57811e-12</wgt>
  <wgt id="299">7.52963e-12</wgt>
  <wgt id="300">7.61342e-12</wgt>
  <wgt id="301">7.45998e-12</wgt>
  <wgt id="302">7.79447e-12</wgt>
  <wgt id="303">7.49994e-12</wgt>
  <wgt id="304">7.58289e-12</wgt>
  <wgt id="305">7.57578e-12</wgt>
  <wgt id="306">7.58329e-12</wgt>
  <wgt id="307">7.56726e-12</wgt>
  <wgt id="308">7.58247e-12</wgt>
  <wgt id="309">7.57142e-12</wgt>
  <wgt id="310">7.62796e-12</wgt>
  <wgt id="311">7.52721e-12</wgt>
  <wgt id="312">7.58223e-12</wgt>
  <wgt id="313">7.56908e-12</wgt>
  <wgt id="314">7.57228e-12</wgt>
  <wgt id="315">7.57858e-12</wgt>
  <wgt id="316">7.56774e-12</wgt>
  <wgt id="317">7.59244e-12</wgt>
  <wgt id="318">7.58069e-12</wgt>
  <wgt id="319">7.56666e-12</wgt>
  <wgt id="320">7.59907e-12</wgt>
  <wgt id="321">7.56243e-12</wgt>
  <wgt id="322">7.55815e-12</wgt>
  <wgt id="323">7.59556e-12</wgt>
  <wgt id="324">7.55751e-12</wgt>
  <wgt id="325">7.59126e-12</wgt>
  <wgt id="326">7.55066e-12</wgt>
  <wgt id="327">7.60762e-12</wgt>
  <wgt id="328">7.53687e-12</wgt>
  <wgt id="329">7.5975e-12</wgt>
  <wgt id="330">7.78883e-12</wgt>
  <wgt id="331">7.37204e-12</wgt>
  <wgt id="332">7.54964e-12</wgt>
  <wgt id="333">7.57599e-12</wgt>
  <wgt id="334">7.41229e-12</wgt>
  <wgt id="335">7.77824e-12</wgt>
  <wgt id="336">7.32352e-12</wgt>
  <wgt id="337">7.88162e-12</wgt>
  <wgt id="338">7.65694e-12</wgt>
  <wgt id="339">7.50019e-12</wgt>
  <wgt id="340">7.62355e-12</wgt>
  <wgt id="341">7.45125e-12</wgt>
  <wgt id="342">7.56213e-12</wgt>
  <wgt id="343">7.56815e-12</wgt>
  <wgt id="344">7.52494e-12</wgt>
  <wgt id="345">7.63437e-12</wgt>
  <wgt id="346">7.43218e-12</wgt>
  <wgt id="347">7.74042e-12</wgt>
  <wgt id="348">7.57967e-12</wgt>
  <wgt id="349">7.59645e-12</wgt>
  <wgt id="350">7.54654e-12</wgt>
  <wgt id="351">7.64922e-12</wgt>
  <wgt id="352">7.47427e-12</wgt>
  <wgt id="353">7.82791e-12</wgt>
  <wgt id="354">7.496e-12</wgt>
  <wgt id="355">7.62491e-12</wgt>
  <wgt id="356">7.55273e-12</wgt>
  <wgt id="357">7.6065e-12</wgt>
  <wgt id="358">7.57578e-12</wgt>
  <wgt id="359">7.57887e-12</wgt>
  <wgt id="360">7.60164e-12</wgt>
  <wgt id="361">7.5756e-12</wgt>
  <wgt id="362">7.70179e-12</wgt>
  <wgt id="363">7.68434e-12</wgt>
  <wgt id="364">7.65881e-12</wgt>
  <wgt id="365">7.63428e-12</wgt>
  <wgt id="366">7.60637e-12</wgt>
  <wgt id="367">7.54998e-12</wgt>
  <wgt id="368">7.51818e-12</wgt>
  <wgt id="369">7.48378e-12</wgt>
  <wgt id="370">7.5756e-12</wgt>
  <wgt id="371">7.60905e-12</wgt>
  <wgt id="372">7.59081e-12</wgt>
  <wgt id="373">7.56338e-12</wgt>
  <wgt id="374">7.56152e-12</wgt>
  <wgt id="375">8.09154e-12</wgt>
  <wgt id="376">8.09245e-12</wgt>
  <wgt id="377">8.09026e-12</wgt>
  <wgt id="378">8.12091e-12</wgt>
  <wgt id="379">8.06251e-12</wgt>
  <wgt id="380">8.11364e-12</wgt>
  <wgt id="381">8.08294e-12</wgt>
  <wgt id="382">8.13062e-12</wgt>
  <wgt id="383">8.05277e-12</wgt>
  <wgt id="384">8.09676e-12</wgt>
  <wgt id="385">8.08652e-12</wgt>
  <wgt id="386">8.12123e-12</wgt>
  <wgt id="387">8.07874e-12</wgt>
  <wgt id="388">8.08415e-12</wgt>
  <wgt id="389">8.10022e-12</wgt>
  <wgt id="390">8.11198e-12</wgt>
  <wgt id="391">8.07006e-12</wgt>
  <wgt id="392">8.03379e-12</wgt>
  <wgt id="393">8.12454e-12</wgt>
  <wgt id="394">8.10225e-12</wgt>
  <wgt id="395">8.07703e-12</wgt>
  <wgt id="396">8.09606e-12</wgt>
  <wgt id="397">8.08836e-12</wgt>
  <wgt id="398">8.06256e-12</wgt>
  <wgt id="399">8.11977e-12</wgt>
  <wgt id="400">8.07959e-12</wgt>
  <wgt id="401">8.11852e-12</wgt>
  <wgt id="402">8.029e-12</wgt>
  <wgt id="403">8.11905e-12</wgt>
  <wgt id="404">8.27141e-12</wgt>
  <wgt id="405">7.65678e-12</wgt>
  <wgt id="406">7.96135e-12</wgt>
  <wgt id="407">8.37369e-12</wgt>
  <wgt id="408">8.1581e-12</wgt>
  <wgt id="409">7.96393e-12</wgt>
  <wgt id="410">7.87818e-12</wgt>
  <wgt id="411">8.19041e-12</wgt>
  <wgt id="412">8.07733e-12</wgt>
  <wgt id="413">8.11143e-12</wgt>
  <wgt id="414">8.00626e-12</wgt>
  <wgt id="415">8.15805e-12</wgt>
  <wgt id="416">8.29481e-12</wgt>
  <wgt id="417">7.81034e-12</wgt>
  <wgt id="418">8.10222e-12</wgt>
  <wgt id="419">8.03308e-12</wgt>
  <wgt id="420">8.1995e-12</wgt>
  <wgt id="421">8.03135e-12</wgt>
  <wgt id="422">8.08221e-12</wgt>
  <wgt id="423">8.09763e-12</wgt>
  <wgt id="424">8.24297e-12</wgt>
  <wgt id="425">7.99657e-12</wgt>
  <wgt id="426">8.09154e-12</wgt>
  <wgt id="427">8.02101e-12</wgt>
  <wgt id="428">8.29303e-12</wgt>
  <wgt id="429">8.16012e-12</wgt>
  <wgt id="430">8.37968e-12</wgt>
  <wgt id="431">8.33606e-12</wgt>
  <wgt id="432">8.29468e-12</wgt>
  <wgt id="433">8.25457e-12</wgt>
  <wgt id="434">8.20583e-12</wgt>
  <wgt id="435">8.10345e-12</wgt>
  <wgt id="436">8.05079e-12</wgt>
  <wgt id="437">8.00072e-12</wgt>
  <wgt id="438">8.16012e-12</wgt>
  <wgt id="439">8.18673e-12</wgt>
  <wgt id="440">8.17119e-12</wgt>
  <wgt id="441">8.152e-12</wgt>
  <wgt id="442">8.14517e-12</wgt>
  <wgt id="443">7.88713e-12</wgt>
  <wgt id="444">7.93124e-12</wgt>
  <wgt id="445">7.87624e-12</wgt>
  <wgt id="446">7.83647e-12</wgt>
  <wgt id="447">7.86855e-12</wgt>
  <wgt id="448">7.69268e-12</wgt>
  <wgt id="449">8.00581e-12</wgt>
  <wgt id="450">7.87915e-12</wgt>
  <wgt id="451">7.87412e-12</wgt>
  <wgt id="452">8.05101e-12</wgt>
  <wgt id="453">7.95271e-12</wgt>
  <wgt id="454">7.57387e-12</wgt>
  <wgt id="455">7.90512e-12</wgt>
  <wgt id="456">7.83338e-12</wgt>
  <wgt id="457">7.91405e-12</wgt>
  <wgt id="458">7.98137e-12</wgt>
  <wgt id="459">7.94161e-12</wgt>
  <wgt id="460">7.94735e-12</wgt>
  <wgt id="461">7.74881e-12</wgt>
  <wgt id="462">7.83334e-12</wgt>
  <wgt id="463">7.80085e-12</wgt>
  <wgt id="464">7.84975e-12</wgt>
  <wgt id="465">7.96222e-12</wgt>
  <wgt id="466">7.79478e-12</wgt>
  <wgt id="467">7.81954e-12</wgt>
  <wgt id="468">7.86886e-12</wgt>
  <wgt id="469">7.87088e-12</wgt>
  <wgt id="470">7.81386e-12</wgt>
  <wgt id="471">7.82177e-12</wgt>
  <wgt id="472">7.92041e-12</wgt>
  <wgt id="473">7.66439e-12</wgt>
  <wgt id="474">5.79e-12</wgt>
  <wgt id="475">6.04757e-12</wgt>
  <wgt id="476">5.68868e-12</wgt>
  <wgt id="477">5.63072e-12</wgt>
  <wgt id="478">5.83411e-12</wgt>
  <wgt id="479">5.69462e-12</wgt>
  <wgt id="480">5.99917e-12</wgt>
  <wgt id="481">5.70847e-12</wgt>
  <wgt id="482">5.635e-12</wgt>
  <wgt id="483">5.64998e-12</wgt>
  <wgt id="484">6.06451e-12</wgt>
  <wgt id="485">5.72724e-12</wgt>
  <wgt id="486">5.97402e-12</wgt>
  <wgt id="487">5.8335e-12</wgt>
  <wgt id="488">5.88752e-12</wgt>
  <wgt id="489">5.52869e-12</wgt>
  <wgt id="490">5.599e-12</wgt>
  <wgt id="491">5.75344e-12</wgt>
  <wgt id="492">5.65516e-12</wgt>
  <wgt id="493">5.57317e-12</wgt>
  <wgt id="494">5.61227e-12</wgt>
  <wgt id="495">5.83702e-12</wgt>
  <wgt id="496">5.60388e-12</wgt>
  <wgt id="497">5.56944e-12</wgt>
  <wgt id="498">5.90733e-12</wgt>
  <wgt id="499">5.6896e-12</wgt>
  <wgt id="500">5.67682e-12</wgt>
  <wgt id="501">6.02426e-12</wgt>
  <wgt id="502">5.70088e-12</wgt>
  <wgt id="503">5.79123e-12</wgt>
  <wgt id="504">5.8564e-12</wgt>
  <wgt id="505">5.71027e-12</wgt>
  <wgt id="506">5.80564e-12</wgt>
  <wgt id="507">5.76791e-12</wgt>
  <wgt id="508">5.93955e-12</wgt>
  <wgt id="509">5.53297e-12</wgt>
  <wgt id="510">5.9202e-12</wgt>
  <wgt id="511">5.63497e-12</wgt>
  <wgt id="512">5.91476e-12</wgt>
  <wgt id="513">5.98249e-12</wgt>
  <wgt id="514">5.80853e-12</wgt>
  <wgt id="515">5.75015e-12</wgt>
  <wgt id="516">6.02693e-12</wgt>
  <wgt id="517">5.92495e-12</wgt>
  <wgt id="518">5.94825e-12</wgt>
  <wgt id="519">5.64501e-12</wgt>
  <wgt id="520">5.87091e-12</wgt>
  <wgt id="521">5.96108e-12</wgt>
  <wgt id="522">6.02921e-12</wgt>
  <wgt id="523">5.81058e-12</wgt>
  <wgt id="524">5.81001e-12</wgt>
  <wgt id="525">5.9402e-12</wgt>
  <wgt id="526">5.8333e-12</wgt>
  <wgt id="527">5.8616e-12</wgt>
  <wgt id="528">5.80963e-12</wgt>
  <wgt id="529">5.7223e-12</wgt>
  <wgt id="530">5.88789e-12</wgt>
  <wgt id="531">5.70234e-12</wgt>
  <wgt id="532">6.12622e-12</wgt>
  <wgt id="533">5.50739e-12</wgt>
  <wgt id="534">5.77933e-12</wgt>
  <wgt id="535">5.8328e-12</wgt>
  <wgt id="536">5.75762e-12</wgt>
  <wgt id="537">5.78947e-12</wgt>
  <wgt id="538">5.86806e-12</wgt>
  <wgt id="539">5.68097e-12</wgt>
  <wgt id="540">5.74669e-12</wgt>
  <wgt id="541">5.63577e-12</wgt>
  <wgt id="542">5.70486e-12</wgt>
  <wgt id="543">5.77638e-12</wgt>
  <wgt id="544">6.05009e-12</wgt>
  <wgt id="545">5.68927e-12</wgt>
  <wgt id="546">5.65885e-12</wgt>
  <wgt id="547">5.64539e-12</wgt>
  <wgt id="548">5.55874e-12</wgt>
  <wgt id="549">5.70315e-12</wgt>
  <wgt id="550">5.70648e-12</wgt>
  <wgt id="551">5.87085e-12</wgt>
  <wgt id="552">5.65423e-12</wgt>
  <wgt id="553">5.74703e-12</wgt>
  <wgt id="554">6.20118e-12</wgt>
  <wgt id="555">5.95317e-12</wgt>
  <wgt id="556">5.599e-12</wgt>
  <wgt id="557">5.9156e-12</wgt>
  <wgt id="558">5.63931e-12</wgt>
  <wgt id="559">5.68143e-12</wgt>
  <wgt id="560">6.30666e-12</wgt>
  <wgt id="561">5.70238e-12</wgt>
  <wgt id="562">5.92265e-12</wgt>
  <wgt id="563">5.73776e-12</wgt>
  <wgt id="564">5.8815e-12</wgt>
  <wgt id="565">5.64307e-12</wgt>
  <wgt id="566">5.86137e-12</wgt>
  <wgt id="567">5.73047e-12</wgt>
  <wgt id="568">5.77824e-12</wgt>
  <wgt id="569">5.87027e-12</wgt>
  <wgt id="570">5.59551e-12</wgt>
  <wgt id="571">6.39809e-12</wgt>
  <wgt id="572">5.68791e-12</wgt>
  <wgt id="573">5.57312e-12</wgt>
  <wgt id="574">5.61166e-12</wgt>
  <wgt id="575">6.35579e-12</wgt>
  <wgt id="576">6.37446e-12</wgt>
  <wgt id="577">6.56016e-12</wgt>
  <wgt id="578">6.52457e-12</wgt>
  <wgt id="579">6.48304e-12</wgt>
  <wgt id="580">6.52782e-12</wgt>
  <wgt id="581">6.80128e-12</wgt>
  <wgt id="582">6.36582e-12</wgt>
  <wgt id="583">6.40993e-12</wgt>
  <wgt id="584">6.34317e-12</wgt>
  <wgt id="585">6.29422e-12</wgt>
  <wgt id="586">6.17629e-12</wgt>
  <wgt id="587">6.44342e-12</wgt>
  <wgt id="588">6.36272e-12</wgt>
  <wgt id="589">6.5145e-12</wgt>
  <wgt id="590">6.40197e-12</wgt>
  <wgt id="591">6.59734e-12</wgt>
  <wgt id="592">6.11723e-12</wgt>
  <wgt id="593">6.30766e-12</wgt>
  <wgt id="594">6.54852e-12</wgt>
  <wgt id="595">6.366e-12</wgt>
  <wgt id="596">6.5196e-12</wgt>
  <wgt id="597">6.20506e-12</wgt>
  <wgt id="598">6.17476e-12</wgt>
  <wgt id="599">6.6061e-12</wgt>
  <wgt id="600">6.34796e-12</wgt>
  <wgt id="601">6.17345e-12</wgt>
  <wgt id="602">6.19178e-12</wgt>
  <wgt id="603">6.2208e-12</wgt>
  <wgt id="604">6.45046e-12</wgt>
  <wgt id="605">6.59518e-12</wgt>
  <wgt id="606">6.2884e-12</wgt>
  <wgt id="607">6.32794e-12</wgt>
  <wgt id="608">6.41928e-12</wgt>
  <wgt id="609">6.05904e-12</wgt>
  <wgt id="610">6.12943e-12</wgt>
  <wgt id="611">6.38332e-12</wgt>
  <wgt id="612">6.81716e-12</wgt>
  <wgt id="613">6.32474e-12</wgt>
  <wgt id="614">6.39644e-12</wgt>
  <wgt id="615">6.26847e-12</wgt>
  <wgt id="616">6.66647e-12</wgt>
  <wgt id="617">6.52045e-12</wgt>
  <wgt id="618">6.63178e-12</wgt>
  <wgt id="619">6.30107e-12</wgt>
  <wgt id="620">6.56502e-12</wgt>
  <wgt id="621">6.39227e-12</wgt>
  <wgt id="622">6.44342e-12</wgt>
  <wgt id="623">6.51299e-12</wgt>
  <wgt id="624">6.33897e-12</wgt>
  <wgt id="625">6.25163e-12</wgt>
  <wgt id="626">6.14847e-12</wgt>
  <wgt id="627">6.09043e-12</wgt>
  <wgt id="628">6.53574e-12</wgt>
  <wgt id="629">6.26231e-12</wgt>
  <wgt id="630">6.16118e-12</wgt>
  <wgt id="631">6.38482e-12</wgt>
  <wgt id="632">6.09987e-12</wgt>
  <wgt id="633">6.30571e-12</wgt>
  <wgt id="634">6.31153e-12</wgt>
  <wgt id="635">6.17251e-12</wgt>
  <wgt id="636">6.42202e-12</wgt>
  <wgt id="637">6.37395e-12</wgt>
  <wgt id="638">6.14722e-12</wgt>
  <wgt id="639">6.27117e-12</wgt>
  <wgt id="640">6.36012e-12</wgt>
  <wgt id="641">6.43962e-12</wgt>
  <wgt id="642">6.12724e-12</wgt>
  <wgt id="643">6.32063e-12</wgt>
  <wgt id="644">6.00664e-12</wgt>
  <wgt id="645">6.39079e-12</wgt>
  <wgt id="646">6.36675e-12</wgt>
  <wgt id="647">6.27919e-12</wgt>
  <wgt id="648">6.43213e-12</wgt>
  <wgt id="649">6.42376e-12</wgt>
  <wgt id="650">6.2078e-12</wgt>
  <wgt id="651">6.48888e-12</wgt>
  <wgt id="652">6.30118e-12</wgt>
  <wgt id="653">6.17745e-12</wgt>
  <wgt id="654">6.27851e-12</wgt>
  <wgt id="655">6.25034e-12</wgt>
  <wgt id="656">6.34151e-12</wgt>
  <wgt id="657">6.64962e-12</wgt>
  <wgt id="658">6.38944e-12</wgt>
  <wgt id="659">6.10561e-12</wgt>
  <wgt id="660">6.44015e-12</wgt>
  <wgt id="661">6.26884e-12</wgt>
  <wgt id="662">6.3251e-12</wgt>
  <wgt id="663">6.36989e-12</wgt>
  <wgt id="664">6.29042e-12</wgt>
  <wgt id="665">6.34844e-12</wgt>
  <wgt id="666">6.31109e-12</wgt>
  <wgt id="667">6.58139e-12</wgt>
  <wgt id="668">6.34291e-12</wgt>
  <wgt id="669">6.49956e-12</wgt>
  <wgt id="670">6.49527e-12</wgt>
  <wgt id="671">6.30242e-12</wgt>
  <wgt id="672">6.09976e-12</wgt>
  <wgt id="673">6.40917e-12</wgt>
  <wgt id="674">6.21714e-12</wgt>
  <wgt id="675">6.25772e-12</wgt>
  <wgt id="676">7.97904e-12</wgt>
  <wgt id="677">8.08235e-12</wgt>
  <wgt id="678">8.38511e-12</wgt>
  <wgt id="679">7.60272e-12</wgt>
  <wgt id="680">7.80498e-12</wgt>
  <wgt id="681">8.11989e-12</wgt>
  <wgt id="682">8.17584e-12</wgt>
  <wgt id="683">7.84463e-12</wgt>
  <wgt id="684">8.30763e-12</wgt>
  <wgt id="685">7.66737e-12</wgt>
  <wgt id="686">7.84433e-12</wgt>
  <wgt id="687">8.29735e-12</wgt>
  <wgt id="688">7.88143e-12</wgt>
  <wgt id="689">8.44242e-12</wgt>
  <wgt id="690">8.34159e-12</wgt>
  <wgt id="691">8.36249e-12</wgt>
  <wgt id="692">7.91887e-12</wgt>
  <wgt id="693">9.35971e-12</wgt>
  <wgt id="694">8.47285e-12</wgt>
  <wgt id="695">7.72373e-12</wgt>
  <wgt id="696">7.67475e-12</wgt>
  <wgt id="697">7.67526e-12</wgt>
  <wgt id="698">7.31577e-12</wgt>
  <wgt id="699">7.24162e-12</wgt>
  <wgt id="700">7.07243e-12</wgt>
  <wgt id="701">7.98416e-12</wgt>
  <wgt id="702">7.77939e-12</wgt>
  <wgt id="703">9.11824e-12</wgt>
  <wgt id="704">8.70795e-12</wgt>
  <wgt id="705">8.43849e-12</wgt>
  <wgt id="706">7.53352e-12</wgt>
  <wgt id="707">7.65865e-12</wgt>
  <wgt id="708">7.85057e-12</wgt>
  <wgt id="709">7.82441e-12</wgt>
  <wgt id="710">7.27568e-12</wgt>
  <wgt id="711">7.95803e-12</wgt>
  <wgt id="712">7.79362e-12</wgt>
  <wgt id="713">8.54509e-12</wgt>
  <wgt id="714">7.79611e-12</wgt>
  <wgt id="715">7.87232e-12</wgt>
  <wgt id="716">7.69823e-12</wgt>
  <wgt id="717">7.55289e-12</wgt>
  <wgt id="718">7.98439e-12</wgt>
  <wgt id="719">7.28679e-12</wgt>
  <wgt id="720">7.64036e-12</wgt>
  <wgt id="721">7.3512e-12</wgt>
  <wgt id="722">7.08833e-12</wgt>
  <wgt id="723">8.49518e-12</wgt>
  <wgt id="724">8.35012e-12</wgt>
  <wgt id="725">8.38251e-12</wgt>
  <wgt id="726">8.02653e-12</wgt>
  <wgt id="727">7.82693e-12</wgt>
  <wgt id="728">7.81573e-12</wgt>
  <wgt id="729">7.547e-12</wgt>
  <wgt id="730">8.50201e-12</wgt>
  <wgt id="731">7.86446e-12</wgt>
  <wgt id="732">8.76986e-12</wgt>
  <wgt id="733">7.86206e-12</wgt>
  <wgt id="734">8.15623e-12</wgt>
  <wgt id="735">8.02045e-12</wgt>
  <wgt id="736">7.79276e-12</wgt>
  <wgt id="737">8.06299e-12</wgt>
  <wgt id="738">7.66355e-12</wgt>
  <wgt id="739">8.12974e-12</wgt>
  <wgt id="740">8.85967e-12</wgt>
  <wgt id="741">7.23113e-12</wgt>
  <wgt id="742">7.8825e-12</wgt>
  <wgt id="743">7.63003e-12</wgt>
  <wgt id="744">7.81419e-12</wgt>
  <wgt id="745">8.31213e-12</wgt>
  <wgt id="746">8.44917e-12</wgt>
  <wgt id="747">7.21621e-12</wgt>
  <wgt id="748">7.86846e-12</wgt>
  <wgt id="749">8.3533e-12</wgt>
  <wgt id="750">8.24221e-12</wgt>
  <wgt id="751">8.17812e-12</wgt>
  <wgt id="752">7.35147e-12</wgt>
  <wgt id="753">7.53613e-12</wgt>
  <wgt id="754">8.24039e-12</wgt>
  <wgt id="755">7.98503e-12</wgt>
  <wgt id="756">7.96499e-12</wgt>
  <wgt id="757">7.35041e-12</wgt>
  <wgt id="758">7.99523e-12</wgt>
  <wgt id="759">8.28536e-12</wgt>
  <wgt id="760">8.0301e-12</wgt>
  <wgt id="761">8.42501e-12</wgt>
  <wgt id="762">8.44411e-12</wgt>
  <wgt id="763">7.97246e-12</wgt>
  <wgt id="764">8.28086e-12</wgt>
  <wgt id="765">8.05441e-12</wgt>
  <wgt id="766">7.96676e-12</wgt>
  <wgt id="767">8.13949e-12</wgt>
  <wgt id="768">7.52904e-12</wgt>
  <wgt id="769">8.43365e-12</wgt>
  <wgt id="770">7.83668e-12</wgt>
  <wgt id="771">9.35216e-12</wgt>
  <wgt id="772">7.57838e-12</wgt>
  <wgt id="773">7.92718e-12</wgt>
  <wgt id="774">7.03679e-12</wgt>
  <wgt id="775">8.33221e-12</wgt>
  <wgt id="776">8.64318e-12</wgt>
  <wgt id="777">7.59616e-12</wgt>
  <wgt id="778">5.88353e-12</wgt>
  <wgt id="779">4.79803e-12</wgt>
  <wgt id="780">3.88569e-12</wgt>
  <wgt id="781">6.31115e-12</wgt>
  <wgt id="782">6.29974e-12</wgt>
  <wgt id="783">4.84472e-12</wgt>
  <wgt id="784">5.09204e-12</wgt>
  <wgt id="785">7.26662e-12</wgt>
  <wgt id="786">4.51399e-12</wgt>
  <wgt id="787">6.70935e-12</wgt>
  <wgt id="788">3.57189e-12</wgt>
  <wgt id="789">4.87162e-12</wgt>
  <wgt id="790">4.44691e-12</wgt>
  <wgt id="791">5.69501e-12</wgt>
  <wgt id="792">7.77498e-12</wgt>
  <wgt id="793">5.78959e-12</wgt>
  <wgt id="794">4.43225e-12</wgt>
  <wgt id="795">6.90358e-12</wgt>
  <wgt id="796">7.67157e-12</wgt>
  <wgt id="797">6.89089e-12</wgt>
  <wgt id="798">5.32463e-12</wgt>
  <wgt id="799">6.67934e-12</wgt>
  <wgt id="800">4.88391e-12</wgt>
  <wgt id="801">5.48153e-12</wgt>
  <wgt id="802">4.4441e-12</wgt>
  <wgt id="803">7.97787e-12</wgt>
  <wgt id="804">6.86491e-12</wgt>
  <wgt id="805">6.92889e-12</wgt>
  <wgt id="806">6.5037e-12</wgt>
  <wgt id="807">5.63101e-12</wgt>
  <wgt id="808">5.68898e-12</wgt>
  <wgt id="809">5.46015e-12</wgt>
  <wgt id="810">6.59276e-12</wgt>
  <wgt id="811">6.34773e-12</wgt>
  <wgt id="812">4.45012e-12</wgt>
  <wgt id="813">4.5498e-12</wgt>
  <wgt id="814">4.86576e-12</wgt>
  <wgt id="815">4.80197e-12</wgt>
  <wgt id="816">4.36832e-12</wgt>
  <wgt id="817">6.11114e-12</wgt>
  <wgt id="818">6.00568e-12</wgt>
  <wgt id="819">4.81608e-12</wgt>
  <wgt id="820">5.85033e-12</wgt>
  <wgt id="821">6.70586e-12</wgt>
  <wgt id="822">4.89465e-12</wgt>
  <wgt id="823">6.79045e-12</wgt>
  <wgt id="824">7.89768e-12</wgt>
  <wgt id="825">4.28844e-12</wgt>
  <wgt id="826">6.27934e-12</wgt>
  <wgt id="827">3.59504e-12</wgt>
  <wgt id="828">7.50511e-12</wgt>
  <wgt id="829">6.06738e-12</wgt>
  <wgt id="830">4.07409e-12</wgt>
  <wgt id="831">6.35095e-12</wgt>
  <wgt id="832">9.55942e-12</wgt>
  <wgt id="833">5.41748e-12</wgt>
  <wgt id="834">9.06059e-12</wgt>
  <wgt id="835">4.80218e-12</wgt>
  <wgt id="836">5.70363e-12</wgt>
  <wgt id="837">6.62182e-12</wgt>
  <wgt id="838">5.4855e-12</wgt>
  <wgt id="839">6.31457e-12</wgt>
  <wgt id="840">5.46837e-12</wgt>
  <wgt id="841">7.25251e-12</wgt>
  <wgt id="842">5.41994e-12</wgt>
  <wgt id="843">5.86034e-12</wgt>
  <wgt id="844">6.13873e-12</wgt>
  <wgt id="845">8.44907e-12</wgt>
  <wgt id="846">5.81274e-12</wgt>
  <wgt id="847">5.95989e-12</wgt>
  <wgt id="848">4.98256e-12</wgt>
  <wgt id="849">6.04716e-12</wgt>
  <wgt id="850">7.67115e-12</wgt>
  <wgt id="851">6.46794e-12</wgt>
  <wgt id="852">4.82578e-12</wgt>
  <wgt id="853">6.50178e-12</wgt>
  <wgt id="854">7.19502e-12</wgt>
  <wgt id="855">6.75067e-12</wgt>
  <wgt id="856">4.15133e-12</wgt>
  <wgt id="857">5.81083e-12</wgt>
  <wgt id="858">5.67067e-12</wgt>
  <wgt id="859">5.53329e-12</wgt>
  <wgt id="860">6.42502e-12</wgt>
  <wgt id="861">5.19525e-12</wgt>
  <wgt id="862">5.95357e-12</wgt>
  <wgt id="863">6.25085e-12</wgt>
  <wgt id="864">6.19202e-12</wgt>
  <wgt id="865">8.3491e-12</wgt>
  <wgt id="866">9.17886e-12</wgt>
  <wgt id="867">5.95761e-12</wgt>
  <wgt id="868">5.79633e-12</wgt>
  <wgt id="869">4.51013e-12</wgt>
  <wgt id="870">4.77188e-12</wgt>
  <wgt id="871">4.6354e-12</wgt>
  <wgt id="872">7.06822e-12</wgt>
  <wgt id="873">4.93677e-12</wgt>
  <wgt id="874">6.19989e-12</wgt>
  <wgt id="875">5.08837e-12</wgt>
  <wgt id="876">7.02116e-12</wgt>
  <wgt id="877">6.65104e-12</wgt>
  <wgt id="878">5.01614e-12</wgt>
  <wgt id="879">7.97904e-12</wgt>
  <wgt id="880">8.08235e-12</wgt>
  <wgt id="881">8.38511e-12</wgt>
  <wgt id="882">7.60272e-12</wgt>
  <wgt id="883">7.80498e-12</wgt>
  <wgt id="884">8.11989e-12</wgt>
  <wgt id="885">8.17584e-12</wgt>
  <wgt id="886">7.84463e-12</wgt>
  <wgt id="887">8.30763e-12</wgt>
  <wgt id="888">7.66737e-12</wgt>
  <wgt id="889">7.84433e-12</wgt>
  <wgt id="890">8.29735e-12</wgt>
  <wgt id="891">7.88143e-12</wgt>
  <wgt id="892">8.44242e-12</wgt>
  <wgt id="893">8.34159e-12</wgt>
  <wgt id="894">8.36249e-12</wgt>
  <wgt id="895">7.91887e-12</wgt>
  <wgt id="896">9.35971e-12</wgt>
  <wgt id="897">8.47285e-12</wgt>
  <wgt id="898">7.72373e-12</wgt>
  <wgt id="899">7.67475e-12</wgt>
  <wgt id="900">7.67526e-12</wgt>
  <wgt id="901">7.31577e-12</wgt>
  <wgt id="902">7.24162e-12</wgt>
  <wgt id="903">7.07243e-12</wgt>
  <wgt id="904">7.98416e-12</wgt>
  <wgt id="905">7.77939e-12</wgt>
  <wgt id="906">9.11824e-12</wgt>
  <wgt id="907">8.70795e-12</wgt>
  <wgt id="908">8.43849e-12</wgt>
  <wgt id="909">7.53352e-12</wgt>
  <wgt id="910">7.65865e-12</wgt>
  <wgt id="911">7.85057e-12</wgt>
  <wgt id="912">7.82441e-12</wgt>
  <wgt id="913">7.27568e-12</wgt>
  <wgt id="914">7.95803e-12</wgt>
  <wgt id="915">7.79362e-12</wgt>
  <wgt id="916">8.54509e-12</wgt>
  <wgt id="917">7.79611e-12</wgt>
  <wgt id="918">7.87232e-12</wgt>
  <wgt id="919">7.69823e-12</wgt>
  <wgt id="920">7.55289e-12</wgt>
  <wgt id="921">7.98439e-12</wgt>
  <wgt id="922">7.28679e-12</wgt>
  <wgt id="923">7.64036e-12</wgt>
  <wgt id="924">7.3512e-12</wgt>
  <wgt id="925">7.08833e-12</wgt>
  <wgt id="926">8.49518e-12</wgt>
  <wgt id="927">8.35012e-12</wgt>
  <wgt id="928">8.38251e-12</wgt>
  <wgt id="929">8.02653e-12</wgt>
  <wgt id="930">7.82693e-12</wgt>
  <wgt id="931">7.81573e-12</wgt>
  <wgt id="932">7.547e-12</wgt>
  <wgt id="933">8.50201e-12</wgt>
  <wgt id="934">7.86446e-12</wgt>
  <wgt id="935">8.76986e-12</wgt>
  <wgt id="936">7.86206e-12</wgt>
  <wgt id="937">8.15623e-12</wgt>
  <wgt id="938">8.02045e-12</wgt>
  <wgt id="939">7.79276e-12</wgt>
  <wgt id="940">8.06299e-12</wgt>
  <wgt id="941">7.66355e-12</wgt>
  <wgt id="942">8.12974e-12</wgt>
  <wgt id="943">8.85967e-12</wgt>
  <wgt id="944">7.23113e-12</wgt>
  <wgt id="945">7.8825e-12</wgt>
  <wgt id="946">7.63003e-12</wgt>
  <wgt id="947">7.81419e-12</wgt>
  <wgt id="948">8.31213e-12</wgt>
  <wgt id="949">8.44917e-12</wgt>
  <wgt id="950">7.21621e-12</wgt>
  <wgt id="951">7.86846e-12</wgt>
  <wgt id="952">8.3533e-12</wgt>
  <wgt id="953">8.24221e-12</wgt>
  <wgt id="954">8.17812e-12</wgt>
  <wgt id="955">7.35147e-12</wgt>
  <wgt id="956">7.53613e-12</wgt>
  <wgt id="957">8.24039e-12</wgt>
  <wgt id="958">7.98503e-12</wgt>
  <wgt id="959">7.96499e-12</wgt>
  <wgt id="960">7.35041e-12</wgt>
  <wgt id="961">7.99523e-12</wgt>
  <wgt id="962">8.28536e-12</wgt>
  <wgt id="963">8.0301e-12</wgt>
  <wgt id="964">8.42501e-12</wgt>
  <wgt id="965">8.44411e-12</wgt>
  <wgt id="966">7.97246e-12</wgt>
  <wgt id="967">8.28086e-12</wgt>
  <wgt id="968">8.05441e-12</wgt>
  <wgt id="969">7.96676e-12</wgt>
  <wgt id="970">8.13949e-12</wgt>
  <wgt id="971">7.52904e-12</wgt>
  <wgt id="972">8.43365e-12</wgt>
  <wgt id="973">7.83668e-12</wgt>
  <wgt id="974">9.35216e-12</wgt>
  <wgt id="975">7.57838e-12</wgt>
  <wgt id="976">7.92718e-12</wgt>
  <wgt id="977">7.03679e-12</wgt>
  <wgt id="978">8.33221e-12</wgt>
  <wgt id="979">8.64318e-12</wgt>
  <wgt id="980">7.97324e-12</wgt>
  <wgt id="981">8.01835e-12</wgt>
  <wgt id="982">7.74251e-12</wgt>
</rwgt>
</event>
<event>
 5   1  0.5790000E-11  0.2176957E+04  0.7818608E-02  0.7757604E-01
       21   -1    0    0  502  501  0.00000000000E+00  0.00000000000E+00  0.63971324652E+03  0.63971324652E+03  0.00000000000E+00 0.  1.
       21   -1    0    0  501  502 -0.00000000000E+00 -0.00000000000E+00 -0.18520574261E+04  0.18520574261E+04  0.00000000000E+00 0. -1.
       39    2    1    2    0    0  0.00000000000E+00  0.00000000000E+00 -0.12123441796E+04  0.24917706727E+04  0.21769572057E+04 0.  0.
       25    1    3    3    0    0  0.72242071078E+03 -0.79065617418E+03 -0.43589095200E+03  0.11630368830E+04  0.12500000000E+03 0.  0.
       25    1    3    3    0    0 -0.72242071078E+03  0.79065617418E+03 -0.77645322763E+03  0.13287337897E+04  0.12500000000E+03 0.  0.
<mgrwt>
<rscale>  0 0.21769572E+04</rscale>
<asrwt>0</asrwt>
<pdfrwt beam="1">  1       21 0.98417422E-01 0.21769572E+04</pdfrwt>
<pdfrwt beam="2">  1       21 0.28493191E+00 0.21769572E+04</pdfrwt>
<totfact> 0.13276904E+01</totfact>
</mgrwt>
<rwgt>
  <wgt id="1">5.79e-12</wgt>
  <wgt id="2">5.03125e-12</wgt>
  <wgt id="3">6.7334e-12</wgt>
  <wgt id="4">5.79e-12</wgt>
  <wgt id="5">5.03125e-12</wgt>
  <wgt id="6">6.7334e-12</wgt>
  <wgt id="7">5.79e-12</wgt>
  <wgt id="8">5.03125e-12</wgt>
  <wgt id="9">6.7334e-12</wgt>
  <wgt id="10">6.03118e-12</wgt>
  <wgt id="11">6.02801e-12</wgt>
  <wgt id="12">6.0207e-12</wgt>
  <wgt id="13">6.0161e-12</wgt>
  <wgt id="14">6.05285e-12</wgt>
  <wgt id="15">6.04149e-12</wgt>
  <wgt id="16">6.02148e-12</wgt>
  <wgt id="17">6.0557e-12</wgt>
  <wgt id="18">6.02222e-12</wgt>
  <wgt id="19">6.04909e-12</wgt>
  <wgt id="20">6.02367e-12</wgt>
  <wgt id="21">5.98443e-12</wgt>
  <wgt id="22">5.99203e-12</wgt>
  <wgt id="23">5.95122e-12</wgt>
  <wgt id="24">5.99069e-12</wgt>
  <wgt id="25">6.00956e-12</wgt>
  <wgt id="26">6.04927e-12</wgt>
  <wgt id="27">6.02289e-12</wgt>
  <wgt id="28">5.99497e-12</wgt>
  <wgt id="29">6.03426e-12</wgt>
  <wgt id="30">5.98987e-12</wgt>
  <wgt id="31">6.05808e-12</wgt>
  <wgt id="32">5.99881e-12</wgt>
  <wgt id="33">6.04093e-12</wgt>
  <wgt id="34">5.99652e-12</wgt>
  <wgt id="35">6.0048e-12</wgt>
  <wgt id="36">6.05758e-12</wgt>
  <wgt id="37">6.01306e-12</wgt>
  <wgt id="38">6.0087e-12</wgt>
  <wgt id="39">6.12319e-12</wgt>
  <wgt id="40">6.03451e-12</wgt>
  <wgt id="41">6.02793e-12</wgt>
  <wgt id="42">6.03932e-12</wgt>
  <wgt id="43">6.03085e-12</wgt>
  <wgt id="44">6.04988e-12</wgt>
  <wgt id="45">6.04056e-12</wgt>
  <wgt id="46">6.01851e-12</wgt>
  <wgt id="47">6.0624e-12</wgt>
  <wgt id="48">6.04566e-12</wgt>
  <wgt id="49">6.00028e-12</wgt>
  <wgt id="50">6.00252e-12</wgt>
  <wgt id="51">6.01146e-12</wgt>
  <wgt id="52">6.04913e-12</wgt>
  <wgt id="53">6.04123e-12</wgt>
  <wgt id="54">6.04626e-12</wgt>
  <wgt id="55">6.03061e-12</wgt>
  <wgt id="56">6.03637e-12</wgt>
  <wgt id="57">6.02239e-12</wgt>
  <wgt id="58">6.01912e-12</wgt>
  <wgt id="59">6.02858e-12</wgt>
  <wgt id="60">6.0145e-12</wgt>
  <wgt id="61">5.9931e-12</wgt>
  <wgt id="62">6.0094e-12</wgt>
  <wgt id="63">6.02248e-12</wgt>
  <wgt id="64">6.02957e-12</wgt>
  <wgt id="65">6.02662e-12</wgt>
  <wgt id="66">6.02834e-12</wgt>
  <wgt id="67">6.00553e-12</wgt>
  <wgt id="68">6.03052e-12</wgt>
  <wgt id="69">6.0273e-12</wgt>
  <wgt id="70">6.02711e-12</wgt>
  <wgt id="71">6.02571e-12</wgt>
  <wgt id="72">6.00318e-12</wgt>
  <wgt id="73">6.04964e-12</wgt>
  <wgt id="74">6.04142e-12</wgt>
  <wgt id="75">6.03081e-12</wgt>
  <wgt id="76">6.0581e-12</wgt>
  <wgt id="77">6.02458e-12</wgt>
  <wgt id="78">6.02643e-12</wgt>
  <wgt id="79">6.04745e-12</wgt>
  <wgt id="80">5.99485e-12</wgt>
  <wgt id="81">6.03057e-12</wgt>
  <wgt id="82">6.03409e-12</wgt>
  <wgt id="83">6.00315e-12</wgt>
  <wgt id="84">6.02041e-12</wgt>
  <wgt id="85">6.01352e-12</wgt>
  <wgt id="86">6.04947e-12</wgt>
  <wgt id="87">5.98939e-12</wgt>
  <wgt id="88">6.04119e-12</wgt>
  <wgt id="89">6.03684e-12</wgt>
  <wgt id="90">6.04913e-12</wgt>
  <wgt id="91">6.03779e-12</wgt>
  <wgt id="92">6.04415e-12</wgt>
  <wgt id="93">6.03868e-12</wgt>
  <wgt id="94">6.02152e-12</wgt>
  <wgt id="95">6.04929e-12</wgt>
  <wgt id="96">6.04097e-12</wgt>
  <wgt id="97">6.01377e-12</wgt>
  <wgt id="98">6.03182e-12</wgt>
  <wgt id="99">6.01818e-12</wgt>
  <wgt id="100">6.04484e-12</wgt>
  <wgt id="101">6.03065e-12</wgt>
  <wgt id="102">6.02631e-12</wgt>
  <wgt id="103">6.04675e-12</wgt>
  <wgt id="104">6.0226e-12</wgt>
  <wgt id="105">6.04057e-12</wgt>
  <wgt id="106">6.0191e-12</wgt>
  <wgt id="107">6.05808e-12</wgt>
  <wgt id="108">6.02143e-12</wgt>
  <wgt id="109">6.03836e-12</wgt>
  <wgt id="110">6.02839e-12</wgt>
  <wgt id="111">6.05913e-12</wgt>
  <wgt id="112">6.07934e-12</wgt>
  <wgt id="113">8.34518e-12</wgt>
  <wgt id="114">8.13648e-12</wgt>
  <wgt id="115">7.99284e-12</wgt>
  <wgt id="116">1.0862e-11</wgt>
  <wgt id="117">6.62271e-12</wgt>
  <wgt id="118">6.64528e-12</wgt>
  <wgt id="119">6.60987e-12</wgt>
  <wgt id="120">6.62317e-12</wgt>
  <wgt id="121">6.62242e-12</wgt>
  <wgt id="122">6.61159e-12</wgt>
  <wgt id="123">6.63804e-12</wgt>
  <wgt id="124">6.61346e-12</wgt>
  <wgt id="125">6.6286e-12</wgt>
  <wgt id="126">6.63237e-12</wgt>
  <wgt id="127">6.61629e-12</wgt>
  <wgt id="128">6.64304e-12</wgt>
  <wgt id="129">6.60247e-12</wgt>
  <wgt id="130">6.65696e-12</wgt>
  <wgt id="131">6.58731e-12</wgt>
  <wgt id="132">6.44773e-12</wgt>
  <wgt id="133">6.8299e-12</wgt>
  <wgt id="134">6.55343e-12</wgt>
  <wgt id="135">6.67696e-12</wgt>
  <wgt id="136">6.71422e-12</wgt>
  <wgt id="137">6.51243e-12</wgt>
  <wgt id="138">6.89646e-12</wgt>
  <wgt id="139">6.36042e-12</wgt>
  <wgt id="140">6.58543e-12</wgt>
  <wgt id="141">6.65132e-12</wgt>
  <wgt id="142">6.62201e-12</wgt>
  <wgt id="143">6.63837e-12</wgt>
  <wgt id="144">6.39763e-12</wgt>
  <wgt id="145">6.83642e-12</wgt>
  <wgt id="146">6.69364e-12</wgt>
  <wgt id="147">6.56539e-12</wgt>
  <wgt id="148">6.64479e-12</wgt>
  <wgt id="149">6.62111e-12</wgt>
  <wgt id="150">6.67803e-12</wgt>
  <wgt id="151">6.59682e-12</wgt>
  <wgt id="152">6.62481e-12</wgt>
  <wgt id="153">6.62191e-12</wgt>
  <wgt id="154">6.65563e-12</wgt>
  <wgt id="155">6.5761e-12</wgt>
  <wgt id="156">6.79555e-12</wgt>
  <wgt id="157">6.4545e-12</wgt>
  <wgt id="158">7.95619e-12</wgt>
  <wgt id="159">7.98969e-12</wgt>
  <wgt id="160">7.92909e-12</wgt>
  <wgt id="161">7.9372e-12</wgt>
  <wgt id="162">7.97744e-12</wgt>
  <wgt id="163">7.94784e-12</wgt>
  <wgt id="164">7.96861e-12</wgt>
  <wgt id="165">7.95936e-12</wgt>
  <wgt id="166">7.95388e-12</wgt>
  <wgt id="167">7.95043e-12</wgt>
  <wgt id="168">7.96423e-12</wgt>
  <wgt id="169">7.92257e-12</wgt>
  <wgt id="170">7.9771e-12</wgt>
  <wgt id="171">7.94974e-12</wgt>
  <wgt id="172">7.96537e-12</wgt>
  <wgt id="173">7.9478e-12</wgt>
  <wgt id="174">7.95906e-12</wgt>
  <wgt id="175">7.73522e-12</wgt>
  <wgt id="176">8.24479e-12</wgt>
  <wgt id="177">7.99387e-12</wgt>
  <wgt id="178">7.92163e-12</wgt>
  <wgt id="179">8.31832e-12</wgt>
  <wgt id="180">7.39126e-12</wgt>
  <wgt id="181">7.71273e-12</wgt>
  <wgt id="182">8.11774e-12</wgt>
  <wgt id="183">7.80808e-12</wgt>
  <wgt id="184">8.02968e-12</wgt>
  <wgt id="185">7.87905e-12</wgt>
  <wgt id="186">8.04847e-12</wgt>
  <wgt id="187">7.87507e-12</wgt>
  <wgt id="188">8.09984e-12</wgt>
  <wgt id="189">7.90037e-12</wgt>
  <wgt id="190">7.97891e-12</wgt>
  <wgt id="191">7.98137e-12</wgt>
  <wgt id="192">7.94142e-12</wgt>
  <wgt id="193">8.07644e-12</wgt>
  <wgt id="194">7.89593e-12</wgt>
  <wgt id="195">7.72594e-12</wgt>
  <wgt id="196">8.34822e-12</wgt>
  <wgt id="197">7.99635e-12</wgt>
  <wgt id="198">7.94644e-12</wgt>
  <wgt id="199">7.95619e-12</wgt>
  <wgt id="200">8.02803e-12</wgt>
  <wgt id="201">8.0029e-12</wgt>
  <wgt id="202">7.97852e-12</wgt>
  <wgt id="203">7.94301e-12</wgt>
  <wgt id="204">7.9255e-12</wgt>
  <wgt id="205">7.91093e-12</wgt>
  <wgt id="206">7.77532e-12</wgt>
  <wgt id="207">7.82103e-12</wgt>
  <wgt id="208">7.72999e-12</wgt>
  <wgt id="209">7.79664e-12</wgt>
  <wgt id="210">7.75977e-12</wgt>
  <wgt id="211">7.773e-12</wgt>
  <wgt id="212">7.77712e-12</wgt>
  <wgt id="213">7.77464e-12</wgt>
  <wgt id="214">7.77634e-12</wgt>
  <wgt id="215">7.78055e-12</wgt>
  <wgt id="216">7.77171e-12</wgt>
  <wgt id="217">7.79399e-12</wgt>
  <wgt id="218">7.76085e-12</wgt>
  <wgt id="219">7.76454e-12</wgt>
  <wgt id="220">7.78189e-12</wgt>
  <wgt id="221">7.77589e-12</wgt>
  <wgt id="222">7.77269e-12</wgt>
  <wgt id="223">7.35909e-12</wgt>
  <wgt id="224">8.15548e-12</wgt>
  <wgt id="225">7.68343e-12</wgt>
  <wgt id="226">7.89156e-12</wgt>
  <wgt id="227">7.70331e-12</wgt>
  <wgt id="228">7.80688e-12</wgt>
  <wgt id="229">7.66862e-12</wgt>
  <wgt id="230">7.8282e-12</wgt>
  <wgt id="231">8.01495e-12</wgt>
  <wgt id="232">7.57865e-12</wgt>
  <wgt id="233">7.73133e-12</wgt>
  <wgt id="234">7.84715e-12</wgt>
  <wgt id="235">7.53698e-12</wgt>
  <wgt id="236">7.97798e-12</wgt>
  <wgt id="237">7.62966e-12</wgt>
  <wgt id="238">7.82411e-12</wgt>
  <wgt id="239">7.71491e-12</wgt>
  <wgt id="240">7.88401e-12</wgt>
  <wgt id="241">7.69019e-12</wgt>
  <wgt id="242">7.87642e-12</wgt>
  <wgt id="243">7.88243e-12</wgt>
  <wgt id="244">7.79452e-12</wgt>
  <wgt id="245">7.77095e-12</wgt>
  <wgt id="246">7.82386e-12</wgt>
  <wgt id="247">7.77532e-12</wgt>
  <wgt id="248">7.8506e-12</wgt>
  <wgt id="249">7.82378e-12</wgt>
  <wgt id="250">7.79695e-12</wgt>
  <wgt id="251">7.75915e-12</wgt>
  <wgt id="252">7.74055e-12</wgt>
  <wgt id="253">7.7274e-12</wgt>
  <wgt id="254">7.54144e-12</wgt>
  <wgt id="255">7.54812e-12</wgt>
  <wgt id="256">7.53407e-12</wgt>
  <wgt id="257">7.54741e-12</wgt>
  <wgt id="258">7.53699e-12</wgt>
  <wgt id="259">7.59154e-12</wgt>
  <wgt id="260">7.49296e-12</wgt>
  <wgt id="261">7.55114e-12</wgt>
  <wgt id="262">7.52998e-12</wgt>
  <wgt id="263">7.53712e-12</wgt>
  <wgt id="264">7.54634e-12</wgt>
  <wgt id="265">7.53304e-12</wgt>
  <wgt id="266">7.5581e-12</wgt>
  <wgt id="267">7.54381e-12</wgt>
  <wgt id="268">7.53794e-12</wgt>
  <wgt id="269">7.56358e-12</wgt>
  <wgt id="270">7.52632e-12</wgt>
  <wgt id="271">7.52396e-12</wgt>
  <wgt id="272">7.56088e-12</wgt>
  <wgt id="273">7.52101e-12</wgt>
  <wgt id="274">7.55688e-12</wgt>
  <wgt id="275">7.50303e-12</wgt>
  <wgt id="276">7.58113e-12</wgt>
  <wgt id="277">7.49834e-12</wgt>
  <wgt id="278">7.58097e-12</wgt>
  <wgt id="279">7.40577e-12</wgt>
  <wgt id="280">7.71178e-12</wgt>
  <wgt id="281">7.50896e-12</wgt>
  <wgt id="282">7.54678e-12</wgt>
  <wgt id="283">7.31628e-12</wgt>
  <wgt id="284">7.82046e-12</wgt>
  <wgt id="285">7.16686e-12</wgt>
  <wgt id="286">7.8545e-12</wgt>
  <wgt id="287">7.5664e-12</wgt>
  <wgt id="288">7.50935e-12</wgt>
  <wgt id="289">7.59727e-12</wgt>
  <wgt id="290">7.41535e-12</wgt>
  <wgt id="291">7.51661e-12</wgt>
  <wgt id="292">7.54416e-12</wgt>
  <wgt id="293">7.48054e-12</wgt>
  <wgt id="294">7.60181e-12</wgt>
  <wgt id="295">7.39264e-12</wgt>
  <wgt id="296">7.72313e-12</wgt>
  <wgt id="297">7.53285e-12</wgt>
  <wgt id="298">7.57289e-12</wgt>
  <wgt id="299">7.51728e-12</wgt>
  <wgt id="300">7.60531e-12</wgt>
  <wgt id="301">7.42066e-12</wgt>
  <wgt id="302">7.83322e-12</wgt>
  <wgt id="303">7.47422e-12</wgt>
  <wgt id="304">7.57948e-12</wgt>
  <wgt id="305">7.51762e-12</wgt>
  <wgt id="306">7.52467e-12</wgt>
  <wgt id="307">7.50998e-12</wgt>
  <wgt id="308">7.52421e-12</wgt>
  <wgt id="309">7.51322e-12</wgt>
  <wgt id="310">7.56922e-12</wgt>
  <wgt id="311">7.46993e-12</wgt>
  <wgt id="312">7.52553e-12</wgt>
  <wgt id="313">7.50921e-12</wgt>
  <wgt id="314">7.51317e-12</wgt>
  <wgt id="315">7.52178e-12</wgt>
  <wgt id="316">7.50941e-12</wgt>
  <wgt id="317">7.53548e-12</wgt>
  <wgt id="318">7.52286e-12</wgt>
  <wgt id="319">7.50836e-12</wgt>
  <wgt id="320">7.54121e-12</wgt>
  <wgt id="321">7.50446e-12</wgt>
  <wgt id="322">7.49744e-12</wgt>
  <wgt id="323">7.54109e-12</wgt>
  <wgt id="324">7.50195e-12</wgt>
  <wgt id="325">7.53115e-12</wgt>
  <wgt id="326">7.48618e-12</wgt>
  <wgt id="327">7.55787e-12</wgt>
  <wgt id="328">7.47819e-12</wgt>
  <wgt id="329">7.53991e-12</wgt>
  <wgt id="330">7.72703e-12</wgt>
  <wgt id="331">7.31803e-12</wgt>
  <wgt id="332">7.49071e-12</wgt>
  <wgt id="333">7.52073e-12</wgt>
  <wgt id="334">7.34388e-12</wgt>
  <wgt id="335">7.73436e-12</wgt>
  <wgt id="336">7.24919e-12</wgt>
  <wgt id="337">7.84713e-12</wgt>
  <wgt id="338">7.60455e-12</wgt>
  <wgt id="339">7.43718e-12</wgt>
  <wgt id="340">7.56912e-12</wgt>
  <wgt id="341">7.38856e-12</wgt>
  <wgt id="342">7.50005e-12</wgt>
  <wgt id="343">7.50719e-12</wgt>
  <wgt id="344">7.46344e-12</wgt>
  <wgt id="345">7.58058e-12</wgt>
  <wgt id="346">7.3646e-12</wgt>
  <wgt id="347">7.6933e-12</wgt>
  <wgt id="348">7.51166e-12</wgt>
  <wgt id="349">7.54452e-12</wgt>
  <wgt id="350">7.48745e-12</wgt>
  <wgt id="351">7.59399e-12</wgt>
  <wgt id="352">7.392e-12</wgt>
  <wgt id="353">7.81015e-12</wgt>
  <wgt id="354">7.41997e-12</wgt>
  <wgt id="355">7.57644e-12</wgt>
  <wgt id="356">7.54144e-12</wgt>
  <wgt id="357">7.53517e-12</wgt>
  <wgt id="358">7.51762e-12</wgt>
  <wgt id="359">7.55353e-12</wgt>
  <wgt id="360">7.63187e-12</wgt>
  <wgt id="361">7.57273e-12</wgt>
  <wgt id="362">7.70991e-12</wgt>
  <wgt id="363">7.69171e-12</wgt>
  <wgt id="364">7.66018e-12</wgt>
  <wgt id="365">7.63353e-12</wgt>
  <wgt id="366">7.60519e-12</wgt>
  <wgt id="367">7.54937e-12</wgt>
  <wgt id="368">7.51577e-12</wgt>
  <wgt id="369">7.47952e-12</wgt>
  <wgt id="370">7.57273e-12</wgt>
  <wgt id="371">7.60464e-12</wgt>
  <wgt id="372">7.58682e-12</wgt>
  <wgt id="373">7.56122e-12</wgt>
  <wgt id="374">7.56529e-12</wgt>
  <wgt id="375">8.36738e-12</wgt>
  <wgt id="376">8.368e-12</wgt>
  <wgt id="377">8.36669e-12</wgt>
  <wgt id="378">8.39832e-12</wgt>
  <wgt id="379">8.33662e-12</wgt>
  <wgt id="380">8.39107e-12</wgt>
  <wgt id="381">8.35789e-12</wgt>
  <wgt id="382">8.40599e-12</wgt>
  <wgt id="383">8.32918e-12</wgt>
  <wgt id="384">8.37275e-12</wgt>
  <wgt id="385">8.36236e-12</wgt>
  <wgt id="386">8.39543e-12</wgt>
  <wgt id="387">8.35529e-12</wgt>
  <wgt id="388">8.36029e-12</wgt>
  <wgt id="389">8.37617e-12</wgt>
  <wgt id="390">8.38695e-12</wgt>
  <wgt id="391">8.34647e-12</wgt>
  <wgt id="392">8.30088e-12</wgt>
  <wgt id="393">8.405e-12</wgt>
  <wgt id="394">8.37533e-12</wgt>
  <wgt id="395">8.35619e-12</wgt>
  <wgt id="396">8.37736e-12</wgt>
  <wgt id="397">8.36017e-12</wgt>
  <wgt id="398">8.34791e-12</wgt>
  <wgt id="399">8.38612e-12</wgt>
  <wgt id="400">8.35566e-12</wgt>
  <wgt id="401">8.39311e-12</wgt>
  <wgt id="402">8.29785e-12</wgt>
  <wgt id="403">8.40514e-12</wgt>
  <wgt id="404">8.58013e-12</wgt>
  <wgt id="405">7.85805e-12</wgt>
  <wgt id="406">8.2132e-12</wgt>
  <wgt id="407">8.70634e-12</wgt>
  <wgt id="408">8.44721e-12</wgt>
  <wgt id="409">8.21822e-12</wgt>
  <wgt id="410">8.11666e-12</wgt>
  <wgt id="411">8.48617e-12</wgt>
  <wgt id="412">8.35008e-12</wgt>
  <wgt id="413">8.39242e-12</wgt>
  <wgt id="414">8.26703e-12</wgt>
  <wgt id="415">8.44534e-12</wgt>
  <wgt id="416">8.61426e-12</wgt>
  <wgt id="417">8.02666e-12</wgt>
  <wgt id="418">8.38182e-12</wgt>
  <wgt id="419">8.28996e-12</wgt>
  <wgt id="420">8.52302e-12</wgt>
  <wgt id="421">8.26858e-12</wgt>
  <wgt id="422">8.33729e-12</wgt>
  <wgt id="423">8.38226e-12</wgt>
  <wgt id="424">8.56868e-12</wgt>
  <wgt id="425">8.23366e-12</wgt>
  <wgt id="426">8.36738e-12</wgt>
  <wgt id="427">8.24743e-12</wgt>
  <wgt id="428">8.66135e-12</wgt>
  <wgt id="429">8.45974e-12</wgt>
  <wgt id="430">8.71019e-12</wgt>
  <wgt id="431">8.66002e-12</wgt>
  <wgt id="432">8.61342e-12</wgt>
  <wgt id="433">8.56775e-12</wgt>
  <wgt id="434">8.51067e-12</wgt>
  <wgt id="435">8.39583e-12</wgt>
  <wgt id="436">8.3371e-12</wgt>
  <wgt id="437">8.28069e-12</wgt>
  <wgt id="438">8.45974e-12</wgt>
  <wgt id="439">8.48612e-12</wgt>
  <wgt id="440">8.47002e-12</wgt>
  <wgt id="441">8.4521e-12</wgt>
  <wgt id="442">8.44595e-12</wgt>
  <wgt id="443">7.89938e-12</wgt>
  <wgt id="444">7.96607e-12</wgt>
  <wgt id="445">7.94266e-12</wgt>
  <wgt id="446">7.8418e-12</wgt>
  <wgt id="447">7.89727e-12</wgt>
  <wgt id="448">7.70638e-12</wgt>
  <wgt id="449">8.04082e-12</wgt>
  <wgt id="450">7.95847e-12</wgt>
  <wgt id="451">7.88037e-12</wgt>
  <wgt id="452">8.06891e-12</wgt>
  <wgt id="453">7.97961e-12</wgt>
  <wgt id="454">7.53535e-12</wgt>
  <wgt id="455">7.9442e-12</wgt>
  <wgt id="456">7.97232e-12</wgt>
  <wgt id="457">7.9244e-12</wgt>
  <wgt id="458">8.02428e-12</wgt>
  <wgt id="459">7.96692e-12</wgt>
  <wgt id="460">8.01638e-12</wgt>
  <wgt id="461">7.7303e-12</wgt>
  <wgt id="462">7.84728e-12</wgt>
  <wgt id="463">7.78763e-12</wgt>
  <wgt id="464">7.86209e-12</wgt>
  <wgt id="465">7.98144e-12</wgt>
  <wgt id="466">7.75726e-12</wgt>
  <wgt id="467">7.83353e-12</wgt>
  <wgt id="468">7.88638e-12</wgt>
  <wgt id="469">7.88401e-12</wgt>
  <wgt id="470">7.79777e-12</wgt>
  <wgt id="471">7.81632e-12</wgt>
  <wgt id="472">7.9429e-12</wgt>
  <wgt id="473">7.66175e-12</wgt>
  <wgt id="474">5.79e-12</wgt>
  <wgt id="475">5.84271e-12</wgt>
  <wgt id="476">5.71649e-12</wgt>
  <wgt id="477">5.74437e-12</wgt>
  <wgt id="478">5.8458e-12</wgt>
  <wgt id="479">5.59769e-12</wgt>
  <wgt id="480">6.06232e-12</wgt>
  <wgt id="481">5.80485e-12</wgt>
  <wgt id="482">5.7534e-12</wgt>
  <wgt id="483">5.7019e-12</wgt>
  <wgt id="484">5.99673e-12</wgt>
  <wgt id="485">5.48472e-12</wgt>
  <wgt id="486">6.08225e-12</wgt>
  <wgt id="487">5.72383e-12</wgt>
  <wgt id="488">5.89048e-12</wgt>
  <wgt id="489">5.37683e-12</wgt>
  <wgt id="490">5.60609e-12</wgt>
  <wgt id="491">5.75265e-12</wgt>
  <wgt id="492">5.70386e-12</wgt>
  <wgt id="493">5.46391e-12</wgt>
  <wgt id="494">5.51054e-12</wgt>
  <wgt id="495">5.79548e-12</wgt>
  <wgt id="496">5.56355e-12</wgt>
  <wgt id="497">5.48445e-12</wgt>
  <wgt id="498">5.96108e-12</wgt>
  <wgt id="499">5.77829e-12</wgt>
  <wgt id="500">5.66075e-12</wgt>
  <wgt id="501">5.99128e-12</wgt>
  <wgt id="502">5.87497e-12</wgt>
  <wgt id="503">5.75677e-12</wgt>
  <wgt id="504">5.95229e-12</wgt>
  <wgt id="505">5.85717e-12</wgt>
  <wgt id="506">5.6017e-12</wgt>
  <wgt id="507">5.78148e-12</wgt>
  <wgt id="508">6.04942e-12</wgt>
  <wgt id="509">5.44591e-12</wgt>
  <wgt id="510">5.87487e-12</wgt>
  <wgt id="511">5.5454e-12</wgt>
  <wgt id="512">6.05997e-12</wgt>
  <wgt id="513">5.99093e-12</wgt>
  <wgt id="514">5.97195e-12</wgt>
  <wgt id="515">5.84038e-12</wgt>
  <wgt id="516">6.24066e-12</wgt>
  <wgt id="517">5.92368e-12</wgt>
  <wgt id="518">5.96552e-12</wgt>
  <wgt id="519">5.59137e-12</wgt>
  <wgt id="520">5.91854e-12</wgt>
  <wgt id="521">5.80145e-12</wgt>
  <wgt id="522">6.03782e-12</wgt>
  <wgt id="523">5.60247e-12</wgt>
  <wgt id="524">5.77177e-12</wgt>
  <wgt id="525">5.83538e-12</wgt>
  <wgt id="526">5.9615e-12</wgt>
  <wgt id="527">5.76269e-12</wgt>
  <wgt id="528">5.81252e-12</wgt>
  <wgt id="529">5.65119e-12</wgt>
  <wgt id="530">6.01034e-12</wgt>
  <wgt id="531">5.62553e-12</wgt>
  <wgt id="532">6.20414e-12</wgt>
  <wgt id="533">5.65307e-12</wgt>
  <wgt id="534">5.68013e-12</wgt>
  <wgt id="535">5.78689e-12</wgt>
  <wgt id="536">5.86543e-12</wgt>
  <wgt id="537">5.64714e-12</wgt>
  <wgt id="538">5.79486e-12</wgt>
  <wgt id="539">5.67981e-12</wgt>
  <wgt id="540">5.9734e-12</wgt>
  <wgt id="541">5.71645e-12</wgt>
  <wgt id="542">5.72346e-12</wgt>
  <wgt id="543">5.69964e-12</wgt>
  <wgt id="544">5.9323e-12</wgt>
  <wgt id="545">5.57875e-12</wgt>
  <wgt id="546">5.45434e-12</wgt>
  <wgt id="547">5.64328e-12</wgt>
  <wgt id="548">5.56325e-12</wgt>
  <wgt id="549">5.6936e-12</wgt>
  <wgt id="550">5.67409e-12</wgt>
  <wgt id="551">5.85374e-12</wgt>
  <wgt id="552">5.43443e-12</wgt>
  <wgt id="553">5.59388e-12</wgt>
  <wgt id="554">6.13287e-12</wgt>
  <wgt id="555">5.93791e-12</wgt>
  <wgt id="556">5.60609e-12</wgt>
  <wgt id="557">5.94675e-12</wgt>
  <wgt id="558">5.70037e-12</wgt>
  <wgt id="559">5.72365e-12</wgt>
  <wgt id="560">6.37936e-12</wgt>
  <wgt id="561">5.82202e-12</wgt>
  <wgt id="562">6.00049e-12</wgt>
  <wgt id="563">6.14935e-12</wgt>
  <wgt id="564">6.05311e-12</wgt>
  <wgt id="565">5.8019e-12</wgt>
  <wgt id="566">5.76871e-12</wgt>
  <wgt id="567">5.76627e-12</wgt>
  <wgt id="568">5.6865e-12</wgt>
  <wgt id="569">5.87873e-12</wgt>
  <wgt id="570">5.57877e-12</wgt>
  <wgt id="571">6.3802e-12</wgt>
  <wgt id="572">5.66963e-12</wgt>
  <wgt id="573">5.62136e-12</wgt>
  <wgt id="574">5.64001e-12</wgt>
  <wgt id="575">6.37367e-12</wgt>
  <wgt id="576">6.71149e-12</wgt>
  <wgt id="577">6.6322e-12</wgt>
  <wgt id="578">6.5572e-12</wgt>
  <wgt id="579">6.60539e-12</wgt>
  <wgt id="580">6.718e-12</wgt>
  <wgt id="581">6.96652e-12</wgt>
  <wgt id="582">6.66387e-12</wgt>
  <wgt id="583">6.45114e-12</wgt>
  <wgt id="584">6.31705e-12</wgt>
  <wgt id="585">6.06341e-12</wgt>
  <wgt id="586">6.08078e-12</wgt>
  <wgt id="587">6.49279e-12</wgt>
  <wgt id="588">6.65555e-12</wgt>
  <wgt id="589">6.76682e-12</wgt>
  <wgt id="590">6.32795e-12</wgt>
  <wgt id="591">6.57625e-12</wgt>
  <wgt id="592">5.89468e-12</wgt>
  <wgt id="593">6.24415e-12</wgt>
  <wgt id="594">6.38194e-12</wgt>
  <wgt id="595">6.54508e-12</wgt>
  <wgt id="596">7.11544e-12</wgt>
  <wgt id="597">6.38754e-12</wgt>
  <wgt id="598">6.24964e-12</wgt>
  <wgt id="599">6.71066e-12</wgt>
  <wgt id="600">6.57276e-12</wgt>
  <wgt id="601">6.15266e-12</wgt>
  <wgt id="602">6.18567e-12</wgt>
  <wgt id="603">6.08189e-12</wgt>
  <wgt id="604">6.50009e-12</wgt>
  <wgt id="605">6.52171e-12</wgt>
  <wgt id="606">6.46824e-12</wgt>
  <wgt id="607">6.51918e-12</wgt>
  <wgt id="608">6.57604e-12</wgt>
  <wgt id="609">6.23739e-12</wgt>
  <wgt id="610">6.13176e-12</wgt>
  <wgt id="611">6.19114e-12</wgt>
  <wgt id="612">6.65461e-12</wgt>
  <wgt id="613">6.19779e-12</wgt>
  <wgt id="614">6.34012e-12</wgt>
  <wgt id="615">6.39334e-12</wgt>
  <wgt id="616">6.36464e-12</wgt>
  <wgt id="617">6.57697e-12</wgt>
  <wgt id="618">6.95335e-12</wgt>
  <wgt id="619">6.26795e-12</wgt>
  <wgt id="620">6.60362e-12</wgt>
  <wgt id="621">6.32679e-12</wgt>
  <wgt id="622">6.49279e-12</wgt>
  <wgt id="623">6.47305e-12</wgt>
  <wgt id="624">6.41512e-12</wgt>
  <wgt id="625">6.16042e-12</wgt>
  <wgt id="626">5.90779e-12</wgt>
  <wgt id="627">5.92648e-12</wgt>
  <wgt id="628">6.38846e-12</wgt>
  <wgt id="629">6.36919e-12</wgt>
  <wgt id="630">6.13472e-12</wgt>
  <wgt id="631">6.47374e-12</wgt>
  <wgt id="632">5.9289e-12</wgt>
  <wgt id="633">6.35094e-12</wgt>
  <wgt id="634">6.16602e-12</wgt>
  <wgt id="635">5.94679e-12</wgt>
  <wgt id="636">6.47124e-12</wgt>
  <wgt id="637">6.33527e-12</wgt>
  <wgt id="638">6.13347e-12</wgt>
  <wgt id="639">6.19381e-12</wgt>
  <wgt id="640">6.30293e-12</wgt>
  <wgt id="641">6.60797e-12</wgt>
  <wgt id="642">5.95457e-12</wgt>
  <wgt id="643">6.26639e-12</wgt>
  <wgt id="644">5.76021e-12</wgt>
  <wgt id="645">6.3796e-12</wgt>
  <wgt id="646">6.05392e-12</wgt>
  <wgt id="647">6.37863e-12</wgt>
  <wgt id="648">6.58039e-12</wgt>
  <wgt id="649">6.4018e-12</wgt>
  <wgt id="650">6.12321e-12</wgt>
  <wgt id="651">6.73301e-12</wgt>
  <wgt id="652">6.18304e-12</wgt>
  <wgt id="653">6.14209e-12</wgt>
  <wgt id="654">6.30851e-12</wgt>
  <wgt id="655">6.2341e-12</wgt>
  <wgt id="656">6.38977e-12</wgt>
  <wgt id="657">6.92231e-12</wgt>
  <wgt id="658">6.37118e-12</wgt>
  <wgt id="659">6.10698e-12</wgt>
  <wgt id="660">6.31184e-12</wgt>
  <wgt id="661">6.25683e-12</wgt>
  <wgt id="662">6.30576e-12</wgt>
  <wgt id="663">6.45713e-12</wgt>
  <wgt id="664">6.39457e-12</wgt>
  <wgt id="665">6.35121e-12</wgt>
  <wgt id="666">6.26039e-12</wgt>
  <wgt id="667">6.67145e-12</wgt>
  <wgt id="668">6.33453e-12</wgt>
  <wgt id="669">6.43842e-12</wgt>
  <wgt id="670">6.63259e-12</wgt>
  <wgt id="671">6.40998e-12</wgt>
  <wgt id="672">6.14774e-12</wgt>
  <wgt id="673">6.62993e-12</wgt>
  <wgt id="674">6.19884e-12</wgt>
  <wgt id="675">6.24845e-12</wgt>
  <wgt id="676">8.1535e-12</wgt>
  <wgt id="677">8.25932e-12</wgt>
  <wgt id="678">8.75593e-12</wgt>
  <wgt id="679">8.02774e-12</wgt>
  <wgt id="680">8.15798e-12</wgt>
  <wgt id="681">8.09231e-12</wgt>
  <wgt id="682">8.51192e-12</wgt>
  <wgt id="683">7.75751e-12</wgt>
  <wgt id="684">8.51186e-12</wgt>
  <wgt id="685">8.04495e-12</wgt>
  <wgt id="686">8.01632e-12</wgt>
  <wgt id="687">8.41266e-12</wgt>
  <wgt id="688">7.96612e-12</wgt>
  <wgt id="689">8.50816e-12</wgt>
  <wgt id="690">8.3733e-12</wgt>
  <wgt id="691">8.4477e-12</wgt>
  <wgt id="692">8.01637e-12</wgt>
  <wgt id="693">1.0198e-11</wgt>
  <wgt id="694">8.82872e-12</wgt>
  <wgt id="695">7.79754e-12</wgt>
  <wgt id="696">7.89928e-12</wgt>
  <wgt id="697">7.62316e-12</wgt>
  <wgt id="698">7.02874e-12</wgt>
  <wgt id="699">7.08594e-12</wgt>
  <wgt id="700">7.21077e-12</wgt>
  <wgt id="701">8.14225e-12</wgt>
  <wgt id="702">7.99935e-12</wgt>
  <wgt id="703">9.70043e-12</wgt>
  <wgt id="704">9.07725e-12</wgt>
  <wgt id="705">8.98776e-12</wgt>
  <wgt id="706">7.73653e-12</wgt>
  <wgt id="707">7.72801e-12</wgt>
  <wgt id="708">7.9032e-12</wgt>
  <wgt id="709">7.9312e-12</wgt>
  <wgt id="710">7.26017e-12</wgt>
  <wgt id="711">8.33498e-12</wgt>
  <wgt id="712">7.75763e-12</wgt>
  <wgt id="713">8.78531e-12</wgt>
  <wgt id="714">7.58699e-12</wgt>
  <wgt id="715">7.92005e-12</wgt>
  <wgt id="716">7.86376e-12</wgt>
  <wgt id="717">7.38285e-12</wgt>
  <wgt id="718">8.32227e-12</wgt>
  <wgt id="719">7.4222e-12</wgt>
  <wgt id="720">8.09845e-12</wgt>
  <wgt id="721">7.11159e-12</wgt>
  <wgt id="722">6.81093e-12</wgt>
  <wgt id="723">8.93165e-12</wgt>
  <wgt id="724">8.70916e-12</wgt>
  <wgt id="725">8.50254e-12</wgt>
  <wgt id="726">8.12771e-12</wgt>
  <wgt id="727">8.0992e-12</wgt>
  <wgt id="728">7.90121e-12</wgt>
  <wgt id="729">7.79953e-12</wgt>
  <wgt id="730">8.86385e-12</wgt>
  <wgt id="731">7.99196e-12</wgt>
  <wgt id="732">9.24676e-12</wgt>
  <wgt id="733">7.76494e-12</wgt>
  <wgt id="734">8.36521e-12</wgt>
  <wgt id="735">8.25754e-12</wgt>
  <wgt id="736">7.72485e-12</wgt>
  <wgt id="737">7.96214e-12</wgt>
  <wgt id="738">7.79864e-12</wgt>
  <wgt id="739">8.64086e-12</wgt>
  <wgt id="740">9.32627e-12</wgt>
  <wgt id="741">7.95653e-12</wgt>
  <wgt id="742">8.00093e-12</wgt>
  <wgt id="743">7.57907e-12</wgt>
  <wgt id="744">7.99133e-12</wgt>
  <wgt id="745">8.68543e-12</wgt>
  <wgt id="746">8.90288e-12</wgt>
  <wgt id="747">6.99915e-12</wgt>
  <wgt id="748">7.98469e-12</wgt>
  <wgt id="749">8.44013e-12</wgt>
  <wgt id="750">8.73796e-12</wgt>
  <wgt id="751">8.22488e-12</wgt>
  <wgt id="752">7.41732e-12</wgt>
  <wgt id="753">7.47791e-12</wgt>
  <wgt id="754">8.5182e-12</wgt>
  <wgt id="755">8.04784e-12</wgt>
  <wgt id="756">8.00271e-12</wgt>
  <wgt id="757">7.26329e-12</wgt>
  <wgt id="758">7.99219e-12</wgt>
  <wgt id="759">8.91668e-12</wgt>
  <wgt id="760">7.96602e-12</wgt>
  <wgt id="761">8.80453e-12</wgt>
  <wgt id="762">8.83972e-12</wgt>
  <wgt id="763">8.19585e-12</wgt>
  <wgt id="764">8.57885e-12</wgt>
  <wgt id="765">8.2834e-12</wgt>
  <wgt id="766">8.19564e-12</wgt>
  <wgt id="767">8.30215e-12</wgt>
  <wgt id="768">7.53092e-12</wgt>
  <wgt id="769">8.6126e-12</wgt>
  <wgt id="770">7.88124e-12</wgt>
  <wgt id="771">9.75189e-12</wgt>
  <wgt id="772">7.88936e-12</wgt>
  <wgt id="773">8.11755e-12</wgt>
  <wgt id="774">6.72115e-12</wgt>
  <wgt id="775">8.53424e-12</wgt>
  <wgt id="776">9.01883e-12</wgt>
  <wgt id="777">7.46582e-12</wgt>
  <wgt id="778">5.66178e-12</wgt>
  <wgt id="779">3.98627e-12</wgt>
  <wgt id="780">2.77517e-12</wgt>
  <wgt id="781">6.52634e-12</wgt>
  <wgt id="782">6.57562e-12</wgt>
  <wgt id="783">3.83259e-12</wgt>
  <wgt id="784">4.41476e-12</wgt>
  <wgt id="785">7.87457e-12</wgt>
  <wgt id="786">3.79573e-12</wgt>
  <wgt id="787">6.91545e-12</wgt>
  <wgt id="788">2.21004e-12</wgt>
  <wgt id="789">4.42416e-12</wgt>
  <wgt id="790">3.72313e-12</wgt>
  <wgt id="791">6.12964e-12</wgt>
  <wgt id="792">7.61533e-12</wgt>
  <wgt id="793">5.51687e-12</wgt>
  <wgt id="794">3.51269e-12</wgt>
  <wgt id="795">7.27653e-12</wgt>
  <wgt id="796">7.71767e-12</wgt>
  <wgt id="797">7.15151e-12</wgt>
  <wgt id="798">4.64386e-12</wgt>
  <wgt id="799">6.77319e-12</wgt>
  <wgt id="800">4.58324e-12</wgt>
  <wgt id="801">5.26372e-12</wgt>
  <wgt id="802">3.44251e-12</wgt>
  <wgt id="803">8.64502e-12</wgt>
  <wgt id="804">7.3043e-12</wgt>
  <wgt id="805">7.15216e-12</wgt>
  <wgt id="806">6.16782e-12</wgt>
  <wgt id="807">5.46176e-12</wgt>
  <wgt id="808">5.38213e-12</wgt>
  <wgt id="809">5.2102e-12</wgt>
  <wgt id="810">6.29566e-12</wgt>
  <wgt id="811">5.98785e-12</wgt>
  <wgt id="812">3.74243e-12</wgt>
  <wgt id="813">3.95729e-12</wgt>
  <wgt id="814">4.27479e-12</wgt>
  <wgt id="815">3.86788e-12</wgt>
  <wgt id="816">3.90593e-12</wgt>
  <wgt id="817">5.72968e-12</wgt>
  <wgt id="818">6.76213e-12</wgt>
  <wgt id="819">3.96586e-12</wgt>
  <wgt id="820">5.46001e-12</wgt>
  <wgt id="821">6.66513e-12</wgt>
  <wgt id="822">4.5573e-12</wgt>
  <wgt id="823">6.93329e-12</wgt>
  <wgt id="824">8.3294e-12</wgt>
  <wgt id="825">3.3506e-12</wgt>
  <wgt id="826">6.63653e-12</wgt>
  <wgt id="827">2.89515e-12</wgt>
  <wgt id="828">7.25581e-12</wgt>
  <wgt id="829">5.83011e-12</wgt>
  <wgt id="830">3.17808e-12</wgt>
  <wgt id="831">6.42892e-12</wgt>
  <wgt id="832">9.76748e-12</wgt>
  <wgt id="833">4.77942e-12</wgt>
  <wgt id="834">9.45051e-12</wgt>
  <wgt id="835">4.29797e-12</wgt>
  <wgt id="836">4.98289e-12</wgt>
  <wgt id="837">6.54178e-12</wgt>
  <wgt id="838">4.8407e-12</wgt>
  <wgt id="839">6.38604e-12</wgt>
  <wgt id="840">4.9711e-12</wgt>
  <wgt id="841">7.60524e-12</wgt>
  <wgt id="842">5.42231e-12</wgt>
  <wgt id="843">5.98727e-12</wgt>
  <wgt id="844">6.12456e-12</wgt>
  <wgt id="845">9.39652e-12</wgt>
  <wgt id="846">5.90859e-12</wgt>
  <wgt id="847">5.96299e-12</wgt>
  <wgt id="848">4.02197e-12</wgt>
  <wgt id="849">6.00523e-12</wgt>
  <wgt id="850">8.13453e-12</wgt>
  <wgt id="851">6.50069e-12</wgt>
  <wgt id="852">3.64788e-12</wgt>
  <wgt id="853">6.70758e-12</wgt>
  <wgt id="854">7.4981e-12</wgt>
  <wgt id="855">6.76625e-12</wgt>
  <wgt id="856">3.17774e-12</wgt>
  <wgt id="857">5.20231e-12</wgt>
  <wgt id="858">5.26975e-12</wgt>
  <wgt id="859">5.41481e-12</wgt>
  <wgt id="860">6.88297e-12</wgt>
  <wgt id="861">4.83593e-12</wgt>
  <wgt id="862">5.73525e-12</wgt>
  <wgt id="863">6.34673e-12</wgt>
  <wgt id="864">5.92015e-12</wgt>
  <wgt id="865">8.66213e-12</wgt>
  <wgt id="866">9.64384e-12</wgt>
  <wgt id="867">5.76135e-12</wgt>
  <wgt id="868">5.70252e-12</wgt>
  <wgt id="869">3.7053e-12</wgt>
  <wgt id="870">4.13914e-12</wgt>
  <wgt id="871">4.06293e-12</wgt>
  <wgt id="872">7.57587e-12</wgt>
  <wgt id="873">4.63156e-12</wgt>
  <wgt id="874">6.1599e-12</wgt>
  <wgt id="875">4.61609e-12</wgt>
  <wgt id="876">7.34523e-12</wgt>
  <wgt id="877">6.42021e-12</wgt>
  <wgt id="878">4.56769e-12</wgt>
  <wgt id="879">8.1535e-12</wgt>
  <wgt id="880">8.25932e-12</wgt>
  <wgt id="881">8.75593e-12</wgt>
  <wgt id="882">8.02774e-12</wgt>
  <wgt id="883">8.15798e-12</wgt>
  <wgt id="884">8.09231e-12</wgt>
  <wgt id="885">8.51192e-12</wgt>
  <wgt id="886">7.75751e-12</wgt>
  <wgt id="887">8.51186e-12</wgt>
  <wgt id="888">8.04495e-12</wgt>
  <wgt id="889">8.01632e-12</wgt>
  <wgt id="890">8.41266e-12</wgt>
  <wgt id="891">7.96612e-12</wgt>
  <wgt id="892">8.50816e-12</wgt>
  <wgt id="893">8.3733e-12</wgt>
  <wgt id="894">8.4477e-12</wgt>
  <wgt id="895">8.01637e-12</wgt>
  <wgt id="896">1.0198e-11</wgt>
  <wgt id="897">8.82872e-12</wgt>
  <wgt id="898">7.79754e-12</wgt>
  <wgt id="899">7.89928e-12</wgt>
  <wgt id="900">7.62316e-12</wgt>
  <wgt id="901">7.02874e-12</wgt>
  <wgt id="902">7.08594e-12</wgt>
  <wgt id="903">7.21077e-12</wgt>
  <wgt id="904">8.14225e-12</wgt>
  <wgt id="905">7.99935e-12</wgt>
  <wgt id="906">9.70043e-12</wgt>
  <wgt id="907">9.07725e-12</wgt>
  <wgt id="908">8.98776e-12</wgt>
  <wgt id="909">7.73653e-12</wgt>
  <wgt id="910">7.72801e-12</wgt>
  <wgt id="911">7.9032e-12</wgt>
  <wgt id="912">7.9312e-12</wgt>
  <wgt id="913">7.26017e-12</wgt>
  <wgt id="914">8.33498e-12</wgt>
  <wgt id="915">7.75763e-12</wgt>
  <wgt id="916">8.78531e-12</wgt>
  <wgt id="917">7.58699e-12</wgt>
  <wgt id="918">7.92005e-12</wgt>
  <wgt id="919">7.86376e-12</wgt>
  <wgt id="920">7.38285e-12</wgt>
  <wgt id="921">8.32227e-12</wgt>
  <wgt id="922">7.4222e-12</wgt>
  <wgt id="923">8.09845e-12</wgt>
  <wgt id="924">7.11159e-12</wgt>
  <wgt id="925">6.81093e-12</wgt>
  <wgt id="926">8.93165e-12</wgt>
  <wgt id="927">8.70916e-12</wgt>
  <wgt id="928">8.50254e-12</wgt>
  <wgt id="929">8.12771e-12</wgt>
  <wgt id="930">8.0992e-12</wgt>
  <wgt id="931">7.90121e-12</wgt>
  <wgt id="932">7.79953e-12</wgt>
  <wgt id="933">8.86385e-12</wgt>
  <wgt id="934">7.99196e-12</wgt>
  <wgt id="935">9.24676e-12</wgt>
  <wgt id="936">7.76494e-12</wgt>
  <wgt id="937">8.36521e-12</wgt>
  <wgt id="938">8.25754e-12</wgt>
  <wgt id="939">7.72485e-12</wgt>
  <wgt id="940">7.96214e-12</wgt>
  <wgt id="941">7.79864e-12</wgt>
  <wgt id="942">8.64086e-12</wgt>
  <wgt id="943">9.32627e-12</wgt>
  <wgt id="944">7.95653e-12</wgt>
  <wgt id="945">8.00093e-12</wgt>
  <wgt id="946">7.57907e-12</wgt>
  <wgt id="947">7.99133e-12</wgt>
  <wgt id="948">8.68543e-12</wgt>
  <wgt id="949">8.90288e-12</wgt>
  <wgt id="950">6.99915e-12</wgt>
  <wgt id="951">7.98469e-12</wgt>
  <wgt id="952">8.44013e-12</wgt>
  <wgt id="953">8.73796e-12</wgt>
  <wgt id="954">8.22488e-12</wgt>
  <wgt id="955">7.41732e-12</wgt>
  <wgt id="956">7.47791e-12</wgt>
  <wgt id="957">8.5182e-12</wgt>
  <wgt id="958">8.04784e-12</wgt>
  <wgt id="959">8.00271e-12</wgt>
  <wgt id="960">7.26329e-12</wgt>
  <wgt id="961">7.99219e-12</wgt>
  <wgt id="962">8.91668e-12</wgt>
  <wgt id="963">7.96602e-12</wgt>
  <wgt id="964">8.80453e-12</wgt>
  <wgt id="965">8.83972e-12</wgt>
  <wgt id="966">8.19585e-12</wgt>
  <wgt id="967">8.57885e-12</wgt>
  <wgt id="968">8.2834e-12</wgt>
  <wgt id="969">8.19564e-12</wgt>
  <wgt id="970">8.30215e-12</wgt>
  <wgt id="971">7.53092e-12</wgt>
  <wgt id="972">8.6126e-12</wgt>
  <wgt id="973">7.88124e-12</wgt>
  <wgt id="974">9.75189e-12</wgt>
  <wgt id="975">7.88936e-12</wgt>
  <wgt id="976">8.11755e-12</wgt>
  <wgt id="977">6.72115e-12</wgt>
  <wgt id="978">8.53424e-12</wgt>
  <wgt id="979">9.01883e-12</wgt>
  <wgt id="980">8.11047e-12</wgt>
  <wgt id="981">8.26374e-12</wgt>
  <wgt id="982">7.89371e-12</wgt>
</rwgt>
</event>
<event>
 5   1  0.5790000E-11  0.2202635E+04  0.7818608E-02  0.7747877E-01
       21   -1    0    0  502  501  0.00000000000E+00  0.00000000000E+00  0.84576692518E+03  0.84576692518E+03  0.00000000000E+00 0. -1.
       21   -1    0    0  501  502 -0.00000000000E+00 -0.00000000000E+00 -0.14340834658E+04  0.14340834658E+04  0.00000000000E+00 0.  1.
       39    2    1    2    0    0  0.00000000000E+00  0.00000000000E+00 -0.58831654061E+03  0.22798503910E+04  0.22026351158E+04 0.  0.
       25    1    3    3    0    0 -0.10173879914E+04 -0.29650097550E+03 -0.12052451839E+02  0.10671276471E+04  0.12500000000E+03 0.  0.
       25    1    3    3    0    0  0.10173879914E+04  0.29650097550E+03 -0.57626408877E+03  0.12127227439E+04  0.12500000000E+03 0.  0.
<mgrwt>
<rscale>  0 0.22026351E+04</rscale>
<asrwt>0</asrwt>
<pdfrwt beam="1">  1       21 0.13011799E+00 0.22026351E+04</pdfrwt>
<pdfrwt beam="2">  1       21 0.22062823E+00 0.22026351E+04</pdfrwt>
<totfact> 0.17006677E+01</totfact>
</mgrwt>
<rwgt>
  <wgt id="1">5.79e-12</wgt>
  <wgt id="2">5.05071e-12</wgt>
  <wgt id="3">6.70561e-12</wgt>
  <wgt id="4">5.79e-12</wgt>
  <wgt id="5">5.05071e-12</wgt>
  <wgt id="6">6.70561e-12</wgt>
  <wgt id="7">5.79e-12</wgt>
  <wgt id="8">5.05071e-12</wgt>
  <wgt id="9">6.70561e-12</wgt>
  <wgt id="10">5.97738e-12</wgt>
  <wgt id="11">5.97263e-12</wgt>
  <wgt id="12">5.96696e-12</wgt>
  <wgt id="13">5.95777e-12</wgt>
  <wgt id="14">5.99885e-12</wgt>
  <wgt id="15">5.98692e-12</wgt>
  <wgt id="16">5.96674e-12</wgt>
  <wgt id="17">5.99125e-12</wgt>
  <wgt id="18">5.96843e-12</wgt>
  <wgt id="19">5.98979e-12</wgt>
  <wgt id="20">5.96135e-12</wgt>
  <wgt id="21">5.94052e-12</wgt>
  <wgt id="22">5.95341e-12</wgt>
  <wgt id="23">5.9217e-12</wgt>
  <wgt id="24">5.94816e-12</wgt>
  <wgt id="25">5.96225e-12</wgt>
  <wgt id="26">5.99921e-12</wgt>
  <wgt id="27">5.9756e-12</wgt>
  <wgt id="28">5.94855e-12</wgt>
  <wgt id="29">5.98226e-12</wgt>
  <wgt id="30">5.95661e-12</wgt>
  <wgt id="31">5.99636e-12</wgt>
  <wgt id="32">5.96243e-12</wgt>
  <wgt id="33">5.98997e-12</wgt>
  <wgt id="34">5.95651e-12</wgt>
  <wgt id="35">5.96744e-12</wgt>
  <wgt id="36">5.99428e-12</wgt>
  <wgt id="37">5.96177e-12</wgt>
  <wgt id="38">5.96146e-12</wgt>
  <wgt id="39">6.04347e-12</wgt>
  <wgt id="40">5.98822e-12</wgt>
  <wgt id="41">5.97532e-12</wgt>
  <wgt id="42">5.99115e-12</wgt>
  <wgt id="43">5.97897e-12</wgt>
  <wgt id="44">5.9628e-12</wgt>
  <wgt id="45">5.98758e-12</wgt>
  <wgt id="46">5.98153e-12</wgt>
  <wgt id="47">5.96269e-12</wgt>
  <wgt id="48">5.9775e-12</wgt>
  <wgt id="49">5.98292e-12</wgt>
  <wgt id="50">5.99956e-12</wgt>
  <wgt id="51">5.99337e-12</wgt>
  <wgt id="52">5.97115e-12</wgt>
  <wgt id="53">5.9451e-12</wgt>
  <wgt id="54">5.96901e-12</wgt>
  <wgt id="55">5.9763e-12</wgt>
  <wgt id="56">5.99967e-12</wgt>
  <wgt id="57">5.995e-12</wgt>
  <wgt id="58">5.94378e-12</wgt>
  <wgt id="59">5.95992e-12</wgt>
  <wgt id="60">5.98181e-12</wgt>
  <wgt id="61">5.95834e-12</wgt>
  <wgt id="62">5.96805e-12</wgt>
  <wgt id="63">5.97722e-12</wgt>
  <wgt id="64">5.98247e-12</wgt>
  <wgt id="65">5.98562e-12</wgt>
  <wgt id="66">5.97006e-12</wgt>
  <wgt id="67">5.95889e-12</wgt>
  <wgt id="68">5.97292e-12</wgt>
  <wgt id="69">5.97804e-12</wgt>
  <wgt id="70">5.9766e-12</wgt>
  <wgt id="71">5.97585e-12</wgt>
  <wgt id="72">5.96741e-12</wgt>
  <wgt id="73">5.98149e-12</wgt>
  <wgt id="74">5.97948e-12</wgt>
  <wgt id="75">5.97133e-12</wgt>
  <wgt id="76">5.9905e-12</wgt>
  <wgt id="77">5.97605e-12</wgt>
  <wgt id="78">5.97806e-12</wgt>
  <wgt id="79">5.98977e-12</wgt>
  <wgt id="80">5.9556e-12</wgt>
  <wgt id="81">5.97182e-12</wgt>
  <wgt id="82">5.97747e-12</wgt>
  <wgt id="83">5.9564e-12</wgt>
  <wgt id="84">5.96891e-12</wgt>
  <wgt id="85">5.96511e-12</wgt>
  <wgt id="86">5.99353e-12</wgt>
  <wgt id="87">5.94804e-12</wgt>
  <wgt id="88">5.98326e-12</wgt>
  <wgt id="89">5.9825e-12</wgt>
  <wgt id="90">5.98819e-12</wgt>
  <wgt id="91">5.98285e-12</wgt>
  <wgt id="92">5.98832e-12</wgt>
  <wgt id="93">5.97899e-12</wgt>
  <wgt id="94">5.97227e-12</wgt>
  <wgt id="95">5.984e-12</wgt>
  <wgt id="96">5.98096e-12</wgt>
  <wgt id="97">5.96792e-12</wgt>
  <wgt id="98">5.97983e-12</wgt>
  <wgt id="99">5.97039e-12</wgt>
  <wgt id="100">5.98245e-12</wgt>
  <wgt id="101">5.97753e-12</wgt>
  <wgt id="102">5.97256e-12</wgt>
  <wgt id="103">5.98475e-12</wgt>
  <wgt id="104">5.97531e-12</wgt>
  <wgt id="105">5.98475e-12</wgt>
  <wgt id="106">5.9691e-12</wgt>
  <wgt id="107">5.99309e-12</wgt>
  <wgt id="108">5.9717e-12</wgt>
  <wgt id="109">5.97729e-12</wgt>
  <wgt id="110">5.97796e-12</wgt>
  <wgt id="111">6.03666e-12</wgt>
  <wgt id="112">5.98031e-12</wgt>
  <wgt id="113">7.97742e-12</wgt>
  <wgt id="114">8.19468e-12</wgt>
  <wgt id="115">8.07568e-12</wgt>
  <wgt id="116">1.10693e-11</wgt>
  <wgt id="117">6.5929e-12</wgt>
  <wgt id="118">6.61468e-12</wgt>
  <wgt id="119">6.58028e-12</wgt>
  <wgt id="120">6.5936e-12</wgt>
  <wgt id="121">6.59263e-12</wgt>
  <wgt id="122">6.58101e-12</wgt>
  <wgt id="123">6.60889e-12</wgt>
  <wgt id="124">6.58324e-12</wgt>
  <wgt id="125">6.59883e-12</wgt>
  <wgt id="126">6.60377e-12</wgt>
  <wgt id="127">6.58554e-12</wgt>
  <wgt id="128">6.61348e-12</wgt>
  <wgt id="129">6.5725e-12</wgt>
  <wgt id="130">6.63028e-12</wgt>
  <wgt id="131">6.55464e-12</wgt>
  <wgt id="132">6.42457e-12</wgt>
  <wgt id="133">6.79143e-12</wgt>
  <wgt id="134">6.5243e-12</wgt>
  <wgt id="135">6.64648e-12</wgt>
  <wgt id="136">6.67488e-12</wgt>
  <wgt id="137">6.49337e-12</wgt>
  <wgt id="138">6.84123e-12</wgt>
  <wgt id="139">6.35242e-12</wgt>
  <wgt id="140">6.54932e-12</wgt>
  <wgt id="141">6.62675e-12</wgt>
  <wgt id="142">6.59357e-12</wgt>
  <wgt id="143">6.60227e-12</wgt>
  <wgt id="144">6.41794e-12</wgt>
  <wgt id="145">6.75439e-12</wgt>
  <wgt id="146">6.64798e-12</wgt>
  <wgt id="147">6.54917e-12</wgt>
  <wgt id="148">6.61249e-12</wgt>
  <wgt id="149">6.59139e-12</wgt>
  <wgt id="150">6.64858e-12</wgt>
  <wgt id="151">6.56694e-12</wgt>
  <wgt id="152">6.59564e-12</wgt>
  <wgt id="153">6.59182e-12</wgt>
  <wgt id="154">6.64593e-12</wgt>
  <wgt id="155">6.52911e-12</wgt>
  <wgt id="156">6.71489e-12</wgt>
  <wgt id="157">6.46181e-12</wgt>
  <wgt id="158">7.9325e-12</wgt>
  <wgt id="159">7.96574e-12</wgt>
  <wgt id="160">7.90591e-12</wgt>
  <wgt id="161">7.9138e-12</wgt>
  <wgt id="162">7.95379e-12</wgt>
  <wgt id="163">7.92429e-12</wgt>
  <wgt id="164">7.94477e-12</wgt>
  <wgt id="165">7.93582e-12</wgt>
  <wgt id="166">7.93003e-12</wgt>
  <wgt id="167">7.92665e-12</wgt>
  <wgt id="168">7.94089e-12</wgt>
  <wgt id="169">7.89838e-12</wgt>
  <wgt id="170">7.95364e-12</wgt>
  <wgt id="171">7.92445e-12</wgt>
  <wgt id="172">7.94382e-12</wgt>
  <wgt id="173">7.93198e-12</wgt>
  <wgt id="174">7.93265e-12</wgt>
  <wgt id="175">7.71642e-12</wgt>
  <wgt id="176">8.21394e-12</wgt>
  <wgt id="177">7.97252e-12</wgt>
  <wgt id="178">7.89574e-12</wgt>
  <wgt id="179">8.25472e-12</wgt>
  <wgt id="180">7.42322e-12</wgt>
  <wgt id="181">7.70858e-12</wgt>
  <wgt id="182">8.08009e-12</wgt>
  <wgt id="183">7.79565e-12</wgt>
  <wgt id="184">8.0003e-12</wgt>
  <wgt id="185">7.86869e-12</wgt>
  <wgt id="186">8.00844e-12</wgt>
  <wgt id="187">7.86162e-12</wgt>
  <wgt id="188">8.05949e-12</wgt>
  <wgt id="189">7.88302e-12</wgt>
  <wgt id="190">7.95265e-12</wgt>
  <wgt id="191">7.95349e-12</wgt>
  <wgt id="192">7.91997e-12</wgt>
  <wgt id="193">8.04114e-12</wgt>
  <wgt id="194">7.87875e-12</wgt>
  <wgt id="195">7.75405e-12</wgt>
  <wgt id="196">8.25883e-12</wgt>
  <wgt id="197">7.97072e-12</wgt>
  <wgt id="198">7.92345e-12</wgt>
  <wgt id="199">7.9325e-12</wgt>
  <wgt id="200">7.99868e-12</wgt>
  <wgt id="201">7.97466e-12</wgt>
  <wgt id="202">7.95099e-12</wgt>
  <wgt id="203">7.91565e-12</wgt>
  <wgt id="204">7.89885e-12</wgt>
  <wgt id="205">7.88503e-12</wgt>
  <wgt id="206">7.72364e-12</wgt>
  <wgt id="207">7.76847e-12</wgt>
  <wgt id="208">7.67965e-12</wgt>
  <wgt id="209">7.74565e-12</wgt>
  <wgt id="210">7.70824e-12</wgt>
  <wgt id="211">7.72161e-12</wgt>
  <wgt id="212">7.72554e-12</wgt>
  <wgt id="213">7.72321e-12</wgt>
  <wgt id="214">7.7247e-12</wgt>
  <wgt id="215">7.72903e-12</wgt>
  <wgt id="216">7.72022e-12</wgt>
  <wgt id="217">7.74451e-12</wgt>
  <wgt id="218">7.70766e-12</wgt>
  <wgt id="219">7.71438e-12</wgt>
  <wgt id="220">7.72977e-12</wgt>
  <wgt id="221">7.72095e-12</wgt>
  <wgt id="222">7.73061e-12</wgt>
  <wgt id="223">7.32729e-12</wgt>
  <wgt id="224">8.08424e-12</wgt>
  <wgt id="225">7.63524e-12</wgt>
  <wgt id="226">7.83513e-12</wgt>
  <wgt id="227">7.6534e-12</wgt>
  <wgt id="228">7.75476e-12</wgt>
  <wgt id="229">7.61995e-12</wgt>
  <wgt id="230">7.77556e-12</wgt>
  <wgt id="231">7.9389e-12</wgt>
  <wgt id="232">7.54663e-12</wgt>
  <wgt id="233">7.68507e-12</wgt>
  <wgt id="234">7.78443e-12</wgt>
  <wgt id="235">7.57552e-12</wgt>
  <wgt id="236">7.86429e-12</wgt>
  <wgt id="237">7.6222e-12</wgt>
  <wgt id="238">7.75868e-12</wgt>
  <wgt id="239">7.6797e-12</wgt>
  <wgt id="240">7.80438e-12</wgt>
  <wgt id="241">7.64799e-12</wgt>
  <wgt id="242">7.8148e-12</wgt>
  <wgt id="243">7.80662e-12</wgt>
  <wgt id="244">7.76746e-12</wgt>
  <wgt id="245">7.71794e-12</wgt>
  <wgt id="246">7.78125e-12</wgt>
  <wgt id="247">7.72364e-12</wgt>
  <wgt id="248">7.78974e-12</wgt>
  <wgt id="249">7.76451e-12</wgt>
  <wgt id="250">7.74105e-12</wgt>
  <wgt id="251">7.70612e-12</wgt>
  <wgt id="252">7.68954e-12</wgt>
  <wgt id="253">7.67764e-12</wgt>
  <wgt id="254">7.55373e-12</wgt>
  <wgt id="255">7.5606e-12</wgt>
  <wgt id="256">7.546e-12</wgt>
  <wgt id="257">7.55942e-12</wgt>
  <wgt id="258">7.5494e-12</wgt>
  <wgt id="259">7.60368e-12</wgt>
  <wgt id="260">7.50518e-12</wgt>
  <wgt id="261">7.56244e-12</wgt>
  <wgt id="262">7.54304e-12</wgt>
  <wgt id="263">7.55038e-12</wgt>
  <wgt id="264">7.55714e-12</wgt>
  <wgt id="265">7.54557e-12</wgt>
  <wgt id="266">7.57005e-12</wgt>
  <wgt id="267">7.5558e-12</wgt>
  <wgt id="268">7.55039e-12</wgt>
  <wgt id="269">7.57611e-12</wgt>
  <wgt id="270">7.53831e-12</wgt>
  <wgt id="271">7.54058e-12</wgt>
  <wgt id="272">7.56848e-12</wgt>
  <wgt id="273">7.53127e-12</wgt>
  <wgt id="274">7.57059e-12</wgt>
  <wgt id="275">7.52356e-12</wgt>
  <wgt id="276">7.58482e-12</wgt>
  <wgt id="277">7.51185e-12</wgt>
  <wgt id="278">7.59225e-12</wgt>
  <wgt id="279">7.41541e-12</wgt>
  <wgt id="280">7.72695e-12</wgt>
  <wgt id="281">7.52246e-12</wgt>
  <wgt id="282">7.55491e-12</wgt>
  <wgt id="283">7.34622e-12</wgt>
  <wgt id="284">7.80856e-12</wgt>
  <wgt id="285">7.20814e-12</wgt>
  <wgt id="286">7.83846e-12</wgt>
  <wgt id="287">7.57656e-12</wgt>
  <wgt id="288">7.52438e-12</wgt>
  <wgt id="289">7.60442e-12</wgt>
  <wgt id="290">7.43499e-12</wgt>
  <wgt id="291">7.53415e-12</wgt>
  <wgt id="292">7.55807e-12</wgt>
  <wgt id="293">7.49807e-12</wgt>
  <wgt id="294">7.60894e-12</wgt>
  <wgt id="295">7.41621e-12</wgt>
  <wgt id="296">7.72104e-12</wgt>
  <wgt id="297">7.55478e-12</wgt>
  <wgt id="298">7.57881e-12</wgt>
  <wgt id="299">7.53067e-12</wgt>
  <wgt id="300">7.61439e-12</wgt>
  <wgt id="301">7.4626e-12</wgt>
  <wgt id="302">7.79298e-12</wgt>
  <wgt id="303">7.50182e-12</wgt>
  <wgt id="304">7.58345e-12</wgt>
  <wgt id="305">7.58092e-12</wgt>
  <wgt id="306">7.58858e-12</wgt>
  <wgt id="307">7.57239e-12</wgt>
  <wgt id="308">7.5876e-12</wgt>
  <wgt id="309">7.57665e-12</wgt>
  <wgt id="310">7.63322e-12</wgt>
  <wgt id="311">7.53234e-12</wgt>
  <wgt id="312">7.58754e-12</wgt>
  <wgt id="313">7.57422e-12</wgt>
  <wgt id="314">7.57762e-12</wgt>
  <wgt id="315">7.58372e-12</wgt>
  <wgt id="316">7.57294e-12</wgt>
  <wgt id="317">7.59767e-12</wgt>
  <wgt id="318">7.58597e-12</wgt>
  <wgt id="319">7.57187e-12</wgt>
  <wgt id="320">7.60445e-12</wgt>
  <wgt id="321">7.56759e-12</wgt>
  <wgt id="322">7.56369e-12</wgt>
  <wgt id="323">7.6005e-12</wgt>
  <wgt id="324">7.56239e-12</wgt>
  <wgt id="325">7.59682e-12</wgt>
  <wgt id="326">7.55644e-12</wgt>
  <wgt id="327">7.61211e-12</wgt>
  <wgt id="328">7.54229e-12</wgt>
  <wgt id="329">7.60265e-12</wgt>
  <wgt id="330">7.79534e-12</wgt>
  <wgt id="331">7.37594e-12</wgt>
  <wgt id="332">7.55475e-12</wgt>
  <wgt id="333">7.581e-12</wgt>
  <wgt id="334">7.41787e-12</wgt>
  <wgt id="335">7.7829e-12</wgt>
  <wgt id="336">7.32951e-12</wgt>
  <wgt id="337">7.88558e-12</wgt>
  <wgt id="338">7.6617e-12</wgt>
  <wgt id="339">7.50576e-12</wgt>
  <wgt id="340">7.62863e-12</wgt>
  <wgt id="341">7.45653e-12</wgt>
  <wgt id="342">7.56766e-12</wgt>
  <wgt id="343">7.57352e-12</wgt>
  <wgt id="344">7.53027e-12</wgt>
  <wgt id="345">7.63939e-12</wgt>
  <wgt id="346">7.43792e-12</wgt>
  <wgt id="347">7.74502e-12</wgt>
  <wgt id="348">7.58561e-12</wgt>
  <wgt id="349">7.60127e-12</wgt>
  <wgt id="350">7.55172e-12</wgt>
  <wgt id="351">7.65446e-12</wgt>
  <wgt id="352">7.48049e-12</wgt>
  <wgt id="353">7.83166e-12</wgt>
  <wgt id="354">7.50215e-12</wgt>
  <wgt id="355">7.6296e-12</wgt>
  <wgt id="356">7.55373e-12</wgt>
  <wgt id="357">7.61292e-12</wgt>
  <wgt id="358">7.58092e-12</wgt>
  <wgt id="359">7.58112e-12</wgt>
  <wgt id="360">7.59918e-12</wgt>
  <wgt id="361">7.57597e-12</wgt>
  <wgt id="362">7.70162e-12</wgt>
  <wgt id="363">7.68413e-12</wgt>
  <wgt id="364">7.6591e-12</wgt>
  <wgt id="365">7.63463e-12</wgt>
  <wgt id="366">7.60668e-12</wgt>
  <wgt id="367">7.54992e-12</wgt>
  <wgt id="368">7.51819e-12</wgt>
  <wgt id="369">7.48393e-12</wgt>
  <wgt id="370">7.57597e-12</wgt>
  <wgt id="371">7.60959e-12</wgt>
  <wgt id="372">7.59122e-12</wgt>
  <wgt id="373">7.56366e-12</wgt>
  <wgt id="374">7.56116e-12</wgt>
  <wgt id="375">8.06842e-12</wgt>
  <wgt id="376">8.06936e-12</wgt>
  <wgt id="377">8.06707e-12</wgt>
  <wgt id="378">8.09761e-12</wgt>
  <wgt id="379">8.03941e-12</wgt>
  <wgt id="380">8.0903e-12</wgt>
  <wgt id="381">8.05982e-12</wgt>
  <wgt id="382">8.10772e-12</wgt>
  <wgt id="383">8.02938e-12</wgt>
  <wgt id="384">8.07363e-12</wgt>
  <wgt id="385">8.06343e-12</wgt>
  <wgt id="386">8.09844e-12</wgt>
  <wgt id="387">8.05537e-12</wgt>
  <wgt id="388">8.06099e-12</wgt>
  <wgt id="389">8.07708e-12</wgt>
  <wgt id="390">8.089e-12</wgt>
  <wgt id="391">8.04673e-12</wgt>
  <wgt id="392">8.01107e-12</wgt>
  <wgt id="393">8.10113e-12</wgt>
  <wgt id="394">8.07941e-12</wgt>
  <wgt id="395">8.05347e-12</wgt>
  <wgt id="396">8.07246e-12</wgt>
  <wgt id="397">8.06556e-12</wgt>
  <wgt id="398">8.03795e-12</wgt>
  <wgt id="399">8.09799e-12</wgt>
  <wgt id="400">8.05615e-12</wgt>
  <wgt id="401">8.09589e-12</wgt>
  <wgt id="402">8.00615e-12</wgt>
  <wgt id="403">8.09523e-12</wgt>
  <wgt id="404">8.24626e-12</wgt>
  <wgt id="405">7.63841e-12</wgt>
  <wgt id="406">7.93987e-12</wgt>
  <wgt id="407">8.34651e-12</wgt>
  <wgt id="408">8.13412e-12</wgt>
  <wgt id="409">7.94224e-12</wgt>
  <wgt id="410">7.85755e-12</wgt>
  <wgt id="411">8.16584e-12</wgt>
  <wgt id="412">8.05447e-12</wgt>
  <wgt id="413">8.08786e-12</wgt>
  <wgt id="414">7.98413e-12</wgt>
  <wgt id="415">8.1341e-12</wgt>
  <wgt id="416">8.26879e-12</wgt>
  <wgt id="417">7.79115e-12</wgt>
  <wgt id="418">8.07885e-12</wgt>
  <wgt id="419">8.0116e-12</wgt>
  <wgt id="420">8.17344e-12</wgt>
  <wgt id="421">8.0108e-12</wgt>
  <wgt id="422">8.06051e-12</wgt>
  <wgt id="423">8.07388e-12</wgt>
  <wgt id="424">8.21671e-12</wgt>
  <wgt id="425">7.97605e-12</wgt>
  <wgt id="426">8.06842e-12</wgt>
  <wgt id="427">8.00164e-12</wgt>
  <wgt id="428">8.26323e-12</wgt>
  <wgt id="429">8.13539e-12</wgt>
  <wgt id="430">8.35321e-12</wgt>
  <wgt id="431">8.30985e-12</wgt>
  <wgt id="432">8.26877e-12</wgt>
  <wgt id="433">8.22891e-12</wgt>
  <wgt id="434">8.18066e-12</wgt>
  <wgt id="435">8.0791e-12</wgt>
  <wgt id="436">8.02678e-12</wgt>
  <wgt id="437">7.97704e-12</wgt>
  <wgt id="438">8.13539e-12</wgt>
  <wgt id="439">8.16205e-12</wgt>
  <wgt id="440">8.1465e-12</wgt>
  <wgt id="441">8.12718e-12</wgt>
  <wgt id="442">8.12023e-12</wgt>
  <wgt id="443">7.8957e-12</wgt>
  <wgt id="444">7.93771e-12</wgt>
  <wgt id="445">7.87883e-12</wgt>
  <wgt id="446">7.84582e-12</wgt>
  <wgt id="447">7.87462e-12</wgt>
  <wgt id="448">7.7003e-12</wgt>
  <wgt id="449">8.01287e-12</wgt>
  <wgt id="450">7.88033e-12</wgt>
  <wgt id="451">7.88324e-12</wgt>
  <wgt id="452">8.05984e-12</wgt>
  <wgt id="453">7.96101e-12</wgt>
  <wgt id="454">7.58633e-12</wgt>
  <wgt id="455">7.91096e-12</wgt>
  <wgt id="456">7.82716e-12</wgt>
  <wgt id="457">7.92329e-12</wgt>
  <wgt id="458">7.98682e-12</wgt>
  <wgt id="459">7.94858e-12</wgt>
  <wgt id="460">7.9502e-12</wgt>
  <wgt id="461">7.75992e-12</wgt>
  <wgt id="462">7.84086e-12</wgt>
  <wgt id="463">7.81201e-12</wgt>
  <wgt id="464">7.85782e-12</wgt>
  <wgt id="465">7.97043e-12</wgt>
  <wgt id="466">7.80707e-12</wgt>
  <wgt id="467">7.82769e-12</wgt>
  <wgt id="468">7.87699e-12</wgt>
  <wgt id="469">7.87868e-12</wgt>
  <wgt id="470">7.82501e-12</wgt>
  <wgt id="471">7.83146e-12</wgt>
  <wgt id="472">7.9286e-12</wgt>
  <wgt id="473">7.67152e-12</wgt>
  <wgt id="474">5.79e-12</wgt>
  <wgt id="475">6.07754e-12</wgt>
  <wgt id="476">5.68448e-12</wgt>
  <wgt id="477">5.63247e-12</wgt>
  <wgt id="478">5.83105e-12</wgt>
  <wgt id="479">5.6998e-12</wgt>
  <wgt id="480">5.99175e-12</wgt>
  <wgt id="481">5.69322e-12</wgt>
  <wgt id="482">5.61574e-12</wgt>
  <wgt id="483">5.64732e-12</wgt>
  <wgt id="484">6.0965e-12</wgt>
  <wgt id="485">5.75029e-12</wgt>
  <wgt id="486">5.95418e-12</wgt>
  <wgt id="487">5.84726e-12</wgt>
  <wgt id="488">5.88151e-12</wgt>
  <wgt id="489">5.54407e-12</wgt>
  <wgt id="490">5.6043e-12</wgt>
  <wgt id="491">5.74724e-12</wgt>
  <wgt id="492">5.64379e-12</wgt>
  <wgt id="493">5.57933e-12</wgt>
  <wgt id="494">5.61576e-12</wgt>
  <wgt id="495">5.85086e-12</wgt>
  <wgt id="496">5.60277e-12</wgt>
  <wgt id="497">5.57384e-12</wgt>
  <wgt id="498">5.89548e-12</wgt>
  <wgt id="499">5.67724e-12</wgt>
  <wgt id="500">5.6808e-12</wgt>
  <wgt id="501">6.02947e-12</wgt>
  <wgt id="502">5.68202e-12</wgt>
  <wgt id="503">5.78801e-12</wgt>
  <wgt id="504">5.84248e-12</wgt>
  <wgt id="505">5.7233e-12</wgt>
  <wgt id="506">5.83037e-12</wgt>
  <wgt id="507">5.75796e-12</wgt>
  <wgt id="508">5.92312e-12</wgt>
  <wgt id="509">5.58174e-12</wgt>
  <wgt id="510">5.9249e-12</wgt>
  <wgt id="511">5.6451e-12</wgt>
  <wgt id="512">5.89955e-12</wgt>
  <wgt id="513">5.99031e-12</wgt>
  <wgt id="514">5.79029e-12</wgt>
  <wgt id="515">5.74086e-12</wgt>
  <wgt id="516">6.00305e-12</wgt>
  <wgt id="517">5.92307e-12</wgt>
  <wgt id="518">5.94517e-12</wgt>
  <wgt id="519">5.64703e-12</wgt>
  <wgt id="520">5.85877e-12</wgt>
  <wgt id="521">5.97286e-12</wgt>
  <wgt id="522">6.02407e-12</wgt>
  <wgt id="523">5.8382e-12</wgt>
  <wgt id="524">5.83165e-12</wgt>
  <wgt id="525">5.94267e-12</wgt>
  <wgt id="526">5.82099e-12</wgt>
  <wgt id="527">5.87092e-12</wgt>
  <wgt id="528">5.80598e-12</wgt>
  <wgt id="529">5.72092e-12</wgt>
  <wgt id="530">5.8715e-12</wgt>
  <wgt id="531">5.70778e-12</wgt>
  <wgt id="532">6.11785e-12</wgt>
  <wgt id="533">5.4899e-12</wgt>
  <wgt id="534">5.78638e-12</wgt>
  <wgt id="535">5.84721e-12</wgt>
  <wgt id="536">5.76154e-12</wgt>
  <wgt id="537">5.79731e-12</wgt>
  <wgt id="538">5.87255e-12</wgt>
  <wgt id="539">5.67717e-12</wgt>
  <wgt id="540">5.73456e-12</wgt>
  <wgt id="541">5.64587e-12</wgt>
  <wgt id="542">5.69617e-12</wgt>
  <wgt id="543">5.77827e-12</wgt>
  <wgt id="544">6.05761e-12</wgt>
  <wgt id="545">5.69751e-12</wgt>
  <wgt id="546">5.67995e-12</wgt>
  <wgt id="547">5.63875e-12</wgt>
  <wgt id="548">5.55795e-12</wgt>
  <wgt id="549">5.70213e-12</wgt>
  <wgt id="550">5.72684e-12</wgt>
  <wgt id="551">5.86774e-12</wgt>
  <wgt id="552">5.67851e-12</wgt>
  <wgt id="553">5.7568e-12</wgt>
  <wgt id="554">6.20706e-12</wgt>
  <wgt id="555">5.95215e-12</wgt>
  <wgt id="556">5.6043e-12</wgt>
  <wgt id="557">5.90622e-12</wgt>
  <wgt id="558">5.62947e-12</wgt>
  <wgt id="559">5.69418e-12</wgt>
  <wgt id="560">6.29324e-12</wgt>
  <wgt id="561">5.69035e-12</wgt>
  <wgt id="562">5.90825e-12</wgt>
  <wgt id="563">5.706e-12</wgt>
  <wgt id="564">5.85597e-12</wgt>
  <wgt id="565">5.62949e-12</wgt>
  <wgt id="566">5.86209e-12</wgt>
  <wgt id="567">5.72346e-12</wgt>
  <wgt id="568">5.78204e-12</wgt>
  <wgt id="569">5.86471e-12</wgt>
  <wgt id="570">5.60857e-12</wgt>
  <wgt id="571">6.40039e-12</wgt>
  <wgt id="572">5.68197e-12</wgt>
  <wgt id="573">5.56276e-12</wgt>
  <wgt id="574">5.60538e-12</wgt>
  <wgt id="575">6.35457e-12</wgt>
  <wgt id="576">6.3414e-12</wgt>
  <wgt id="577">6.56022e-12</wgt>
  <wgt id="578">6.51306e-12</wgt>
  <wgt id="579">6.46634e-12</wgt>
  <wgt id="580">6.50609e-12</wgt>
  <wgt id="581">6.78165e-12</wgt>
  <wgt id="582">6.33133e-12</wgt>
  <wgt id="583">6.41046e-12</wgt>
  <wgt id="584">6.34733e-12</wgt>
  <wgt id="585">6.32283e-12</wgt>
  <wgt id="586">6.18562e-12</wgt>
  <wgt id="587">6.43808e-12</wgt>
  <wgt id="588">6.34514e-12</wgt>
  <wgt id="589">6.49127e-12</wgt>
  <wgt id="590">6.4159e-12</wgt>
  <wgt id="591">6.59846e-12</wgt>
  <wgt id="592">6.15088e-12</wgt>
  <wgt id="593">6.31236e-12</wgt>
  <wgt id="594">6.56186e-12</wgt>
  <wgt id="595">6.34982e-12</wgt>
  <wgt id="596">6.49215e-12</wgt>
  <wgt id="597">6.1835e-12</wgt>
  <wgt id="598">6.19532e-12</wgt>
  <wgt id="599">6.6105e-12</wgt>
  <wgt id="600">6.33031e-12</wgt>
  <wgt id="601">6.17347e-12</wgt>
  <wgt id="602">6.20181e-12</wgt>
  <wgt id="603">6.23302e-12</wgt>
  <wgt id="604">6.44599e-12</wgt>
  <wgt id="605">6.59962e-12</wgt>
  <wgt id="606">6.26307e-12</wgt>
  <wgt id="607">6.30944e-12</wgt>
  <wgt id="608">6.39903e-12</wgt>
  <wgt id="609">6.0381e-12</wgt>
  <wgt id="610">6.12471e-12</wgt>
  <wgt id="611">6.40224e-12</wgt>
  <wgt id="612">6.82506e-12</wgt>
  <wgt id="613">6.33408e-12</wgt>
  <wgt id="614">6.40638e-12</wgt>
  <wgt id="615">6.25566e-12</wgt>
  <wgt id="616">6.69305e-12</wgt>
  <wgt id="617">6.53128e-12</wgt>
  <wgt id="618">6.57302e-12</wgt>
  <wgt id="619">6.30337e-12</wgt>
  <wgt id="620">6.566e-12</wgt>
  <wgt id="621">6.40568e-12</wgt>
  <wgt id="622">6.43808e-12</wgt>
  <wgt id="623">6.51445e-12</wgt>
  <wgt id="624">6.33136e-12</wgt>
  <wgt id="625">6.25977e-12</wgt>
  <wgt id="626">6.16846e-12</wgt>
  <wgt id="627">6.10129e-12</wgt>
  <wgt id="628">6.58048e-12</wgt>
  <wgt id="629">6.24919e-12</wgt>
  <wgt id="630">6.1648e-12</wgt>
  <wgt id="631">6.37731e-12</wgt>
  <wgt id="632">6.11782e-12</wgt>
  <wgt id="633">6.29719e-12</wgt>
  <wgt id="634">6.32923e-12</wgt>
  <wgt id="635">6.20238e-12</wgt>
  <wgt id="636">6.41313e-12</wgt>
  <wgt id="637">6.37243e-12</wgt>
  <wgt id="638">6.14276e-12</wgt>
  <wgt id="639">6.27484e-12</wgt>
  <wgt id="640">6.36199e-12</wgt>
  <wgt id="641">6.41971e-12</wgt>
  <wgt id="642">6.14924e-12</wgt>
  <wgt id="643">6.32316e-12</wgt>
  <wgt id="644">6.04245e-12</wgt>
  <wgt id="645">6.39182e-12</wgt>
  <wgt id="646">6.39809e-12</wgt>
  <wgt id="647">6.27096e-12</wgt>
  <wgt id="648">6.41677e-12</wgt>
  <wgt id="649">6.42975e-12</wgt>
  <wgt id="650">6.2165e-12</wgt>
  <wgt id="651">6.46407e-12</wgt>
  <wgt id="652">6.31151e-12</wgt>
  <wgt id="653">6.18024e-12</wgt>
  <wgt id="654">6.28938e-12</wgt>
  <wgt id="655">6.24386e-12</wgt>
  <wgt id="656">6.3422e-12</wgt>
  <wgt id="657">6.61125e-12</wgt>
  <wgt id="658">6.39944e-12</wgt>
  <wgt id="659">6.10848e-12</wgt>
  <wgt id="660">6.44975e-12</wgt>
  <wgt id="661">6.26613e-12</wgt>
  <wgt id="662">6.32628e-12</wgt>
  <wgt id="663">6.36026e-12</wgt>
  <wgt id="664">6.27914e-12</wgt>
  <wgt id="665">6.34359e-12</wgt>
  <wgt id="666">6.31606e-12</wgt>
  <wgt id="667">6.57188e-12</wgt>
  <wgt id="668">6.33899e-12</wgt>
  <wgt id="669">6.50255e-12</wgt>
  <wgt id="670">6.47902e-12</wgt>
  <wgt id="671">6.29013e-12</wgt>
  <wgt id="672">6.09597e-12</wgt>
  <wgt id="673">6.38789e-12</wgt>
  <wgt id="674">6.21943e-12</wgt>
  <wgt id="675">6.25032e-12</wgt>
  <wgt id="676">7.96544e-12</wgt>
  <wgt id="677">8.0688e-12</wgt>
  <wgt id="678">8.35711e-12</wgt>
  <wgt id="679">7.57602e-12</wgt>
  <wgt id="680">7.76911e-12</wgt>
  <wgt id="681">8.12808e-12</wgt>
  <wgt id="682">8.14676e-12</wgt>
  <wgt id="683">7.85008e-12</wgt>
  <wgt id="684">8.29761e-12</wgt>
  <wgt id="685">7.62543e-12</wgt>
  <wgt id="686">7.86073e-12</wgt>
  <wgt id="687">8.2947e-12</wgt>
  <wgt id="688">7.88036e-12</wgt>
  <wgt id="689">8.46083e-12</wgt>
  <wgt id="690">8.34834e-12</wgt>
  <wgt id="691">8.36045e-12</wgt>
  <wgt id="692">7.91065e-12</wgt>
  <wgt id="693">9.29775e-12</wgt>
  <wgt id="694">8.44487e-12</wgt>
  <wgt id="695">7.71225e-12</wgt>
  <wgt id="696">7.64073e-12</wgt>
  <wgt id="697">7.67911e-12</wgt>
  <wgt id="698">7.34464e-12</wgt>
  <wgt id="699">7.26725e-12</wgt>
  <wgt id="700">7.06107e-12</wgt>
  <wgt id="701">7.97438e-12</wgt>
  <wgt id="702">7.73738e-12</wgt>
  <wgt id="703">9.07991e-12</wgt>
  <wgt id="704">8.66857e-12</wgt>
  <wgt id="705">8.38036e-12</wgt>
  <wgt id="706">7.50004e-12</wgt>
  <wgt id="707">7.65178e-12</wgt>
  <wgt id="708">7.84721e-12</wgt>
  <wgt id="709">7.81779e-12</wgt>
  <wgt id="710">7.24339e-12</wgt>
  <wgt id="711">7.94254e-12</wgt>
  <wgt id="712">7.80279e-12</wgt>
  <wgt id="713">8.52696e-12</wgt>
  <wgt id="714">7.82037e-12</wgt>
  <wgt id="715">7.86726e-12</wgt>
  <wgt id="716">7.68303e-12</wgt>
  <wgt id="717">7.57022e-12</wgt>
  <wgt id="718">7.94257e-12</wgt>
  <wgt id="719">7.27755e-12</wgt>
  <wgt id="720">7.60145e-12</wgt>
  <wgt id="721">7.38686e-12</wgt>
  <wgt id="722">7.11018e-12</wgt>
  <wgt id="723">8.46383e-12</wgt>
  <wgt id="724">8.32183e-12</wgt>
  <wgt id="725">8.38e-12</wgt>
  <wgt id="726">8.02356e-12</wgt>
  <wgt id="727">7.80475e-12</wgt>
  <wgt id="728">7.8197e-12</wgt>
  <wgt id="729">7.46431e-12</wgt>
  <wgt id="730">8.48644e-12</wgt>
  <wgt id="731">7.86018e-12</wgt>
  <wgt id="732">8.73351e-12</wgt>
  <wgt id="733">7.87989e-12</wgt>
  <wgt id="734">8.14394e-12</wgt>
  <wgt id="735">7.98548e-12</wgt>
  <wgt id="736">7.8016e-12</wgt>
  <wgt id="737">8.06522e-12</wgt>
  <wgt id="738">7.64844e-12</wgt>
  <wgt id="739">8.07594e-12</wgt>
  <wgt id="740">8.82986e-12</wgt>
  <wgt id="741">7.18091e-12</wgt>
  <wgt id="742">7.86418e-12</wgt>
  <wgt id="743">7.64127e-12</wgt>
  <wgt id="744">7.80253e-12</wgt>
  <wgt id="745">8.28907e-12</wgt>
  <wgt id="746">8.41711e-12</wgt>
  <wgt id="747">7.24053e-12</wgt>
  <wgt id="748">7.85314e-12</wgt>
  <wgt id="749">8.35643e-12</wgt>
  <wgt id="750">8.16726e-12</wgt>
  <wgt id="751">8.18583e-12</wgt>
  <wgt id="752">7.34423e-12</wgt>
  <wgt id="753">7.54411e-12</wgt>
  <wgt id="754">8.22041e-12</wgt>
  <wgt id="755">7.98281e-12</wgt>
  <wgt id="756">7.96773e-12</wgt>
  <wgt id="757">7.3566e-12</wgt>
  <wgt id="758">8.0039e-12</wgt>
  <wgt id="759">8.19589e-12</wgt>
  <wgt id="760">8.04083e-12</wgt>
  <wgt id="761">8.4006e-12</wgt>
  <wgt id="762">8.41855e-12</wgt>
  <wgt id="763">7.96132e-12</wgt>
  <wgt id="764">8.26104e-12</wgt>
  <wgt id="765">8.03861e-12</wgt>
  <wgt id="766">7.94955e-12</wgt>
  <wgt id="767">8.13189e-12</wgt>
  <wgt id="768">7.53128e-12</wgt>
  <wgt id="769">8.41945e-12</wgt>
  <wgt id="770">7.81209e-12</wgt>
  <wgt id="771">9.33002e-12</wgt>
  <wgt id="772">7.54901e-12</wgt>
  <wgt id="773">7.91675e-12</wgt>
  <wgt id="774">7.0733e-12</wgt>
  <wgt id="775">8.3208e-12</wgt>
  <wgt id="776">8.64281e-12</wgt>
  <wgt id="777">7.61271e-12</wgt>
  <wgt id="778">5.9003e-12</wgt>
  <wgt id="779">4.87106e-12</wgt>
  <wgt id="780">3.98919e-12</wgt>
  <wgt id="781">6.21993e-12</wgt>
  <wgt id="782">6.28985e-12</wgt>
  <wgt id="783">4.93131e-12</wgt>
  <wgt id="784">5.14649e-12</wgt>
  <wgt id="785">7.21969e-12</wgt>
  <wgt id="786">4.55537e-12</wgt>
  <wgt id="787">6.69386e-12</wgt>
  <wgt id="788">3.68223e-12</wgt>
  <wgt id="789">4.86831e-12</wgt>
  <wgt id="790">4.49983e-12</wgt>
  <wgt id="791">5.64628e-12</wgt>
  <wgt id="792">7.75867e-12</wgt>
  <wgt id="793">5.79018e-12</wgt>
  <wgt id="794">4.50945e-12</wgt>
  <wgt id="795">6.87452e-12</wgt>
  <wgt id="796">7.68179e-12</wgt>
  <wgt id="797">6.85493e-12</wgt>
  <wgt id="798">5.38705e-12</wgt>
  <wgt id="799">6.67947e-12</wgt>
  <wgt id="800">4.88314e-12</wgt>
  <wgt id="801">5.51388e-12</wgt>
  <wgt id="802">4.52959e-12</wgt>
  <wgt id="803">7.87298e-12</wgt>
  <wgt id="804">6.83358e-12</wgt>
  <wgt id="805">6.91649e-12</wgt>
  <wgt id="806">6.54794e-12</wgt>
  <wgt id="807">5.64871e-12</wgt>
  <wgt id="808">5.72124e-12</wgt>
  <wgt id="809">5.47041e-12</wgt>
  <wgt id="810">6.64248e-12</wgt>
  <wgt id="811">6.37862e-12</wgt>
  <wgt id="812">4.50994e-12</wgt>
  <wgt id="813">4.59955e-12</wgt>
  <wgt id="814">4.91904e-12</wgt>
  <wgt id="815">4.88037e-12</wgt>
  <wgt id="816">4.40421e-12</wgt>
  <wgt id="817">6.15164e-12</wgt>
  <wgt id="818">5.94368e-12</wgt>
  <wgt id="819">4.88894e-12</wgt>
  <wgt id="820">5.88286e-12</wgt>
  <wgt id="821">6.71584e-12</wgt>
  <wgt id="822">4.94493e-12</wgt>
  <wgt id="823">6.7808e-12</wgt>
  <wgt id="824">7.88161e-12</wgt>
  <wgt id="825">4.35949e-12</wgt>
  <wgt id="826">6.25063e-12</wgt>
  <wgt id="827">3.65283e-12</wgt>
  <wgt id="828">7.52862e-12</wgt>
  <wgt id="829">6.08815e-12</wgt>
  <wgt id="830">4.14212e-12</wgt>
  <wgt id="831">6.34686e-12</wgt>
  <wgt id="832">9.54848e-12</wgt>
  <wgt id="833">5.47532e-12</wgt>
  <wgt id="834">9.02442e-12</wgt>
  <wgt id="835">4.82722e-12</wgt>
  <wgt id="836">5.77966e-12</wgt>
  <wgt id="837">6.63256e-12</wgt>
  <wgt id="838">5.54768e-12</wgt>
  <wgt id="839">6.31217e-12</wgt>
  <wgt id="840">5.51334e-12</wgt>
  <wgt id="841">7.22208e-12</wgt>
  <wgt id="842">5.42523e-12</wgt>
  <wgt id="843">5.84019e-12</wgt>
  <wgt id="844">6.14249e-12</wgt>
  <wgt id="845">8.34836e-12</wgt>
  <wgt id="846">5.73203e-12</wgt>
  <wgt id="847">5.95011e-12</wgt>
  <wgt id="848">5.06289e-12</wgt>
  <wgt id="849">6.05414e-12</wgt>
  <wgt id="850">7.6396e-12</wgt>
  <wgt id="851">6.46736e-12</wgt>
  <wgt id="852">4.935e-12</wgt>
  <wgt id="853">6.48398e-12</wgt>
  <wgt id="854">7.17443e-12</wgt>
  <wgt id="855">6.75723e-12</wgt>
  <wgt id="856">4.2286e-12</wgt>
  <wgt id="857">5.86445e-12</wgt>
  <wgt id="858">5.73022e-12</wgt>
  <wgt id="859">5.53653e-12</wgt>
  <wgt id="860">6.38171e-12</wgt>
  <wgt id="861">5.22988e-12</wgt>
  <wgt id="862">5.97778e-12</wgt>
  <wgt id="863">6.24244e-12</wgt>
  <wgt id="864">6.21138e-12</wgt>
  <wgt id="865">8.33625e-12</wgt>
  <wgt id="866">9.15066e-12</wgt>
  <wgt id="867">5.97269e-12</wgt>
  <wgt id="868">5.81253e-12</wgt>
  <wgt id="869">4.57286e-12</wgt>
  <wgt id="870">4.82681e-12</wgt>
  <wgt id="871">4.6893e-12</wgt>
  <wgt id="872">7.03062e-12</wgt>
  <wgt id="873">4.9439e-12</wgt>
  <wgt id="874">6.20133e-12</wgt>
  <wgt id="875">5.12227e-12</wgt>
  <wgt id="876">7.00142e-12</wgt>
  <wgt id="877">6.67182e-12</wgt>
  <wgt id="878">5.06903e-12</wgt>
  <wgt id="879">7.96544e-12</wgt>
  <wgt id="880">8.0688e-12</wgt>
  <wgt id="881">8.35711e-12</wgt>
  <wgt id="882">7.57602e-12</wgt>
  <wgt id="883">7.76911e-12</wgt>
  <wgt id="884">8.12808e-12</wgt>
  <wgt id="885">8.14676e-12</wgt>
  <wgt id="886">7.85008e-12</wgt>
  <wgt id="887">8.29761e-12</wgt>
  <wgt id="888">7.62543e-12</wgt>
  <wgt id="889">7.86073e-12</wgt>
  <wgt id="890">8.2947e-12</wgt>
  <wgt id="891">7.88036e-12</wgt>
  <wgt id="892">8.46083e-12</wgt>
  <wgt id="893">8.34834e-12</wgt>
  <wgt id="894">8.36045e-12</wgt>
  <wgt id="895">7.91065e-12</wgt>
  <wgt id="896">9.29775e-12</wgt>
  <wgt id="897">8.44487e-12</wgt>
  <wgt id="898">7.71225e-12</wgt>
  <wgt id="899">7.64073e-12</wgt>
  <wgt id="900">7.67911e-12</wgt>
  <wgt id="901">7.34464e-12</wgt>
  <wgt id="902">7.26725e-12</wgt>
  <wgt id="903">7.06107e-12</wgt>
  <wgt id="904">7.97438e-12</wgt>
  <wgt id="905">7.73738e-12</wgt>
  <wgt id="906">9.07991e-12</wgt>
  <wgt id="907">8.66857e-12</wgt>
  <wgt id="908">8.38036e-12</wgt>
  <wgt id="909">7.50004e-12</wgt>
  <wgt id="910">7.65178e-12</wgt>
  <wgt id="911">7.84721e-12</wgt>
  <wgt id="912">7.81779e-12</wgt>
  <wgt id="913">7.24339e-12</wgt>
  <wgt id="914">7.94254e-12</wgt>
  <wgt id="915">7.80279e-12</wgt>
  <wgt id="916">8.52696e-12</wgt>
  <wgt id="917">7.82037e-12</wgt>
  <wgt id="918">7.86726e-12</wgt>
  <wgt id="919">7.68303e-12</wgt>
  <wgt id="920">7.57022e-12</wgt>
  <wgt id="921">7.94257e-12</wgt>
  <wgt id="922">7.27755e-12</wgt>
  <wgt id="923">7.60145e-12</wgt>
  <wgt id="924">7.38686e-12</wgt>
  <wgt id="925">7.11018e-12</wgt>
  <wgt id="926">8.46383e-12</wgt>
  <wgt id="927">8.32183e-12</wgt>
  <wgt id="928">8.38e-12</wgt>
  <wgt id="929">8.02356e-12</wgt>
  <wgt id="930">7.80475e-12</wgt>
  <wgt id="931">7.8197e-12</wgt>
  <wgt id="932">7.46431e-12</wgt>
  <wgt id="933">8.48644e-12</wgt>
  <wgt id="934">7.86018e-12</wgt>
  <wgt id="935">8.73351e-12</wgt>
  <wgt id="936">7.87989e-12</wgt>
  <wgt id="937">8.14394e-12</wgt>
  <wgt id="938">7.98548e-12</wgt>
  <wgt id="939">7.8016e-12</wgt>
  <wgt id="940">8.06522e-12</wgt>
  <wgt id="941">7.64844e-12</wgt>
  <wgt id="942">8.07594e-12</wgt>
  <wgt id="943">8.82986e-12</wgt>
  <wgt id="944">7.18091e-12</wgt>
  <wgt id="945">7.86418e-12</wgt>
  <wgt id="946">7.64127e-12</wgt>
  <wgt id="947">7.80253e-12</wgt>
  <wgt id="948">8.28907e-12</wgt>
  <wgt id="949">8.41711e-12</wgt>
  <wgt id="950">7.24053e-12</wgt>
  <wgt id="951">7.85314e-12</wgt>
  <wgt id="952">8.35643e-12</wgt>
  <wgt id="953">8.16726e-12</wgt>
  <wgt id="954">8.18583e-12</wgt>
  <wgt id="955">7.34423e-12</wgt>
  <wgt id="956">7.54411e-12</wgt>
  <wgt id="957">8.22041e-12</wgt>
  <wgt id="958">7.98281e-12</wgt>
  <wgt id="959">7.96773e-12</wgt>
  <wgt id="960">7.3566e-12</wgt>
  <wgt id="961">8.0039e-12</wgt>
  <wgt id="962">8.19589e-12</wgt>
  <wgt id="963">8.04083e-12</wgt>
  <wgt id="964">8.4006e-12</wgt>
  <wgt id="965">8.41855e-12</wgt>
  <wgt id="966">7.96132e-12</wgt>
  <wgt id="967">8.26104e-12</wgt>
  <wgt id="968">8.03861e-12</wgt>
  <wgt id="969">7.94955e-12</wgt>
  <wgt id="970">8.13189e-12</wgt>
  <wgt id="971">7.53128e-12</wgt>
  <wgt id="972">8.41945e-12</wgt>
  <wgt id="973">7.81209e-12</wgt>
  <wgt id="974">9.33002e-12</wgt>
  <wgt id="975">7.54901e-12</wgt>
  <wgt id="976">7.91675e-12</wgt>
  <wgt id="977">7.0733e-12</wgt>
  <wgt id="978">8.3208e-12</wgt>
  <wgt id="979">8.64281e-12</wgt>
  <wgt id="980">7.96454e-12</wgt>
  <wgt id="981">8.0014e-12</wgt>
  <wgt id="982">7.73327e-12</wgt>
</rwgt>
</event>
<event>
 5   1  0.5790000E-11  0.2003028E+04  0.7818608E-02  0.7827386E-01
       21   -1    0    0  502  501  0.00000000000E+00  0.00000000000E+00  0.93806396933E+03  0.93806396933E+03  0.00000000000E+00 0.  1.
       21   -1    0    0  501  502 -0.00000000000E+00 -0.00000000000E+00 -0.10692561649E+04  0.10692561649E+04  0.00000000000E+00 0. -1.
       39    2    1    2    0    0  0.00000000000E+00  0.00000000000E+00 -0.13119219555E+03  0.20073201342E+04  0.20030283895E+04 0.  0.
       25    1    3    3    0    0  0.75063140013E+03 -0.41971549124E+03 -0.56445489682E+03  0.10362639254E+04  0.12500000000E+03 0.  0.
       25    1    3    3    0    0 -0.75063140013E+03  0.41971549124E+03  0.43326270127E+03  0.97105620886E+03  0.12500000000E+03 0.  0.
<mgrwt>
<rscale>  0 0.20030284E+04</rscale>
<asrwt>0</asrwt>
<pdfrwt beam="1">  1       21 0.14431753E+00 0.20030284E+04</pdfrwt>
<pdfrwt beam="2">  1       21 0.16450095E+00 0.20030284E+04</pdfrwt>
<totfact> 0.35263391E+01</totfact>
</mgrwt>
<rwgt>
  <wgt id="1">5.79e-12</wgt>
  <wgt id="2">5.08084e-12</wgt>
  <wgt id="3">6.66252e-12</wgt>
  <wgt id="4">5.79e-12</wgt>
  <wgt id="5">5.08084e-12</wgt>
  <wgt id="6">6.66252e-12</wgt>
  <wgt id="7">5.79e-12</wgt>
  <wgt id="8">5.08084e-12</wgt>
  <wgt id="9">6.66252e-12</wgt>
  <wgt id="10">5.90805e-12</wgt>
  <wgt id="11">5.90269e-12</wgt>
  <wgt id="12">5.89702e-12</wgt>
  <wgt id="13">5.88838e-12</wgt>
  <wgt id="14">5.92794e-12</wgt>
  <wgt id="15">5.91585e-12</wgt>
  <wgt id="16">5.89382e-12</wgt>
  <wgt id="17">5.91829e-12</wgt>
  <wgt id="18">5.90374e-12</wgt>
  <wgt id="19">5.91852e-12</wgt>
  <wgt id="20">5.89148e-12</wgt>
  <wgt id="21">5.88008e-12</wgt>
  <wgt id="22">5.89237e-12</wgt>
  <wgt id="23">5.86093e-12</wgt>
  <wgt id="24">5.88288e-12</wgt>
  <wgt id="25">5.89273e-12</wgt>
  <wgt id="26">5.93121e-12</wgt>
  <wgt id="27">5.90646e-12</wgt>
  <wgt id="28">5.87926e-12</wgt>
  <wgt id="29">5.91515e-12</wgt>
  <wgt id="30">5.89104e-12</wgt>
  <wgt id="31">5.92391e-12</wgt>
  <wgt id="32">5.89058e-12</wgt>
  <wgt id="33">5.91788e-12</wgt>
  <wgt id="34">5.89173e-12</wgt>
  <wgt id="35">5.89501e-12</wgt>
  <wgt id="36">5.9159e-12</wgt>
  <wgt id="37">5.89304e-12</wgt>
  <wgt id="38">5.89771e-12</wgt>
  <wgt id="39">5.96884e-12</wgt>
  <wgt id="40">5.925e-12</wgt>
  <wgt id="41">5.90609e-12</wgt>
  <wgt id="42">5.93377e-12</wgt>
  <wgt id="43">5.9182e-12</wgt>
  <wgt id="44">5.87767e-12</wgt>
  <wgt id="45">5.91179e-12</wgt>
  <wgt id="46">5.91009e-12</wgt>
  <wgt id="47">5.88104e-12</wgt>
  <wgt id="48">5.91079e-12</wgt>
  <wgt id="49">5.94193e-12</wgt>
  <wgt id="50">5.9476e-12</wgt>
  <wgt id="51">5.92793e-12</wgt>
  <wgt id="52">5.87164e-12</wgt>
  <wgt id="53">5.88645e-12</wgt>
  <wgt id="54">5.89934e-12</wgt>
  <wgt id="55">5.90527e-12</wgt>
  <wgt id="56">5.92143e-12</wgt>
  <wgt id="57">5.92776e-12</wgt>
  <wgt id="58">5.87107e-12</wgt>
  <wgt id="59">5.89189e-12</wgt>
  <wgt id="60">5.90831e-12</wgt>
  <wgt id="61">5.91191e-12</wgt>
  <wgt id="62">5.91153e-12</wgt>
  <wgt id="63">5.9182e-12</wgt>
  <wgt id="64">5.9146e-12</wgt>
  <wgt id="65">5.91113e-12</wgt>
  <wgt id="66">5.90291e-12</wgt>
  <wgt id="67">5.90712e-12</wgt>
  <wgt id="68">5.90298e-12</wgt>
  <wgt id="69">5.90431e-12</wgt>
  <wgt id="70">5.90476e-12</wgt>
  <wgt id="71">5.90157e-12</wgt>
  <wgt id="72">5.90217e-12</wgt>
  <wgt id="73">5.9137e-12</wgt>
  <wgt id="74">5.90909e-12</wgt>
  <wgt id="75">5.91237e-12</wgt>
  <wgt id="76">5.9197e-12</wgt>
  <wgt id="77">5.90699e-12</wgt>
  <wgt id="78">5.90975e-12</wgt>
  <wgt id="79">5.91557e-12</wgt>
  <wgt id="80">5.88871e-12</wgt>
  <wgt id="81">5.90204e-12</wgt>
  <wgt id="82">5.90841e-12</wgt>
  <wgt id="83">5.893e-12</wgt>
  <wgt id="84">5.89898e-12</wgt>
  <wgt id="85">5.90248e-12</wgt>
  <wgt id="86">5.91518e-12</wgt>
  <wgt id="87">5.88978e-12</wgt>
  <wgt id="88">5.91199e-12</wgt>
  <wgt id="89">5.91183e-12</wgt>
  <wgt id="90">5.91316e-12</wgt>
  <wgt id="91">5.91118e-12</wgt>
  <wgt id="92">5.91575e-12</wgt>
  <wgt id="93">5.90809e-12</wgt>
  <wgt id="94">5.90536e-12</wgt>
  <wgt id="95">5.91097e-12</wgt>
  <wgt id="96">5.91051e-12</wgt>
  <wgt id="97">5.90268e-12</wgt>
  <wgt id="98">5.91096e-12</wgt>
  <wgt id="99">5.90506e-12</wgt>
  <wgt id="100">5.91351e-12</wgt>
  <wgt id="101">5.90805e-12</wgt>
  <wgt id="102">5.9049e-12</wgt>
  <wgt id="103">5.91297e-12</wgt>
  <wgt id="104">5.90499e-12</wgt>
  <wgt id="105">5.91188e-12</wgt>
  <wgt id="106">5.90302e-12</wgt>
  <wgt id="107">5.9196e-12</wgt>
  <wgt id="108">5.9033e-12</wgt>
  <wgt id="109">5.91108e-12</wgt>
  <wgt id="110">5.9067e-12</wgt>
  <wgt id="111">5.99163e-12</wgt>
  <wgt id="112">5.8844e-12</wgt>
  <wgt id="113">7.57995e-12</wgt>
  <wgt id="114">7.95908e-12</wgt>
  <wgt id="115">7.85281e-12</wgt>
  <wgt id="116">1.04046e-11</wgt>
  <wgt id="117">6.41038e-12</wgt>
  <wgt id="118">6.4288e-12</wgt>
  <wgt id="119">6.40001e-12</wgt>
  <wgt id="120">6.4114e-12</wgt>
  <wgt id="121">6.40995e-12</wgt>
  <wgt id="122">6.39847e-12</wgt>
  <wgt id="123">6.42686e-12</wgt>
  <wgt id="124">6.40084e-12</wgt>
  <wgt id="125">6.41663e-12</wgt>
  <wgt id="126">6.41993e-12</wgt>
  <wgt id="127">6.40411e-12</wgt>
  <wgt id="128">6.4306e-12</wgt>
  <wgt id="129">6.39047e-12</wgt>
  <wgt id="130">6.44672e-12</wgt>
  <wgt id="131">6.37317e-12</wgt>
  <wgt id="132">6.25625e-12</wgt>
  <wgt id="133">6.59089e-12</wgt>
  <wgt id="134">6.34841e-12</wgt>
  <wgt id="135">6.45858e-12</wgt>
  <wgt id="136">6.48113e-12</wgt>
  <wgt id="137">6.32473e-12</wgt>
  <wgt id="138">6.62584e-12</wgt>
  <wgt id="139">6.19971e-12</wgt>
  <wgt id="140">6.3649e-12</wgt>
  <wgt id="141">6.44634e-12</wgt>
  <wgt id="142">6.41162e-12</wgt>
  <wgt id="143">6.41609e-12</wgt>
  <wgt id="144">6.28611e-12</wgt>
  <wgt id="145">6.52153e-12</wgt>
  <wgt id="146">6.44931e-12</wgt>
  <wgt id="147">6.38084e-12</wgt>
  <wgt id="148">6.42692e-12</wgt>
  <wgt id="149">6.40924e-12</wgt>
  <wgt id="150">6.46234e-12</wgt>
  <wgt id="151">6.38626e-12</wgt>
  <wgt id="152">6.41249e-12</wgt>
  <wgt id="153">6.40962e-12</wgt>
  <wgt id="154">6.47415e-12</wgt>
  <wgt id="155">6.33736e-12</wgt>
  <wgt id="156">6.48665e-12</wgt>
  <wgt id="157">6.31475e-12</wgt>
  <wgt id="158">7.71923e-12</wgt>
  <wgt id="159">7.75085e-12</wgt>
  <wgt id="160">7.6935e-12</wgt>
  <wgt id="161">7.70261e-12</wgt>
  <wgt id="162">7.73745e-12</wgt>
  <wgt id="163">7.71213e-12</wgt>
  <wgt id="164">7.72978e-12</wgt>
  <wgt id="165">7.72237e-12</wgt>
  <wgt id="166">7.71686e-12</wgt>
  <wgt id="167">7.71348e-12</wgt>
  <wgt id="168">7.72733e-12</wgt>
  <wgt id="169">7.68557e-12</wgt>
  <wgt id="170">7.74005e-12</wgt>
  <wgt id="171">7.71189e-12</wgt>
  <wgt id="172">7.72957e-12</wgt>
  <wgt id="173">7.72276e-12</wgt>
  <wgt id="174">7.71766e-12</wgt>
  <wgt id="175">7.52265e-12</wgt>
  <wgt id="176">7.97336e-12</wgt>
  <wgt id="177">7.75468e-12</wgt>
  <wgt id="178">7.68597e-12</wgt>
  <wgt id="179">7.99334e-12</wgt>
  <wgt id="180">7.28101e-12</wgt>
  <wgt id="181">7.52445e-12</wgt>
  <wgt id="182">7.84701e-12</wgt>
  <wgt id="183">7.59955e-12</wgt>
  <wgt id="184">7.77839e-12</wgt>
  <wgt id="185">7.66481e-12</wgt>
  <wgt id="186">7.78079e-12</wgt>
  <wgt id="187">7.65663e-12</wgt>
  <wgt id="188">7.83142e-12</wgt>
  <wgt id="189">7.67761e-12</wgt>
  <wgt id="190">7.73603e-12</wgt>
  <wgt id="191">7.73666e-12</wgt>
  <wgt id="192">7.70883e-12</wgt>
  <wgt id="193">7.81127e-12</wgt>
  <wgt id="194">7.67348e-12</wgt>
  <wgt id="195">7.60424e-12</wgt>
  <wgt id="196">7.96232e-12</wgt>
  <wgt id="197">7.75292e-12</wgt>
  <wgt id="198">7.71103e-12</wgt>
  <wgt id="199">7.71923e-12</wgt>
  <wgt id="200">7.77803e-12</wgt>
  <wgt id="201">7.75573e-12</wgt>
  <wgt id="202">7.73454e-12</wgt>
  <wgt id="203">7.70162e-12</wgt>
  <wgt id="204">7.68648e-12</wgt>
  <wgt id="205">7.67347e-12</wgt>
  <wgt id="206">7.5526e-12</wgt>
  <wgt id="207">7.59548e-12</wgt>
  <wgt id="208">7.5102e-12</wgt>
  <wgt id="209">7.56997e-12</wgt>
  <wgt id="210">7.53989e-12</wgt>
  <wgt id="211">7.55096e-12</wgt>
  <wgt id="212">7.55373e-12</wgt>
  <wgt id="213">7.5518e-12</wgt>
  <wgt id="214">7.55356e-12</wgt>
  <wgt id="215">7.55682e-12</wgt>
  <wgt id="216">7.54968e-12</wgt>
  <wgt id="217">7.57234e-12</wgt>
  <wgt id="218">7.53759e-12</wgt>
  <wgt id="219">7.54111e-12</wgt>
  <wgt id="220">7.55948e-12</wgt>
  <wgt id="221">7.54839e-12</wgt>
  <wgt id="222">7.56261e-12</wgt>
  <wgt id="223">7.1928e-12</wgt>
  <wgt id="224">7.87793e-12</wgt>
  <wgt id="225">7.47411e-12</wgt>
  <wgt id="226">7.65051e-12</wgt>
  <wgt id="227">7.48824e-12</wgt>
  <wgt id="228">7.58079e-12</wgt>
  <wgt id="229">7.45707e-12</wgt>
  <wgt id="230">7.59994e-12</wgt>
  <wgt id="231">7.74247e-12</wgt>
  <wgt id="232">7.39555e-12</wgt>
  <wgt id="233">7.51893e-12</wgt>
  <wgt id="234">7.60164e-12</wgt>
  <wgt id="235">7.47166e-12</wgt>
  <wgt id="236">7.64682e-12</wgt>
  <wgt id="237">7.48502e-12</wgt>
  <wgt id="238">7.57629e-12</wgt>
  <wgt id="239">7.52103e-12</wgt>
  <wgt id="240">7.6109e-12</wgt>
  <wgt id="241">7.48747e-12</wgt>
  <wgt id="242">7.6306e-12</wgt>
  <wgt id="243">7.60042e-12</wgt>
  <wgt id="244">7.6156e-12</wgt>
  <wgt id="245">7.54489e-12</wgt>
  <wgt id="246">7.6156e-12</wgt>
  <wgt id="247">7.5526e-12</wgt>
  <wgt id="248">7.61097e-12</wgt>
  <wgt id="249">7.58803e-12</wgt>
  <wgt id="250">7.5671e-12</wgt>
  <wgt id="251">7.53498e-12</wgt>
  <wgt id="252">7.52016e-12</wgt>
  <wgt id="253">7.5088e-12</wgt>
  <wgt id="254">7.40128e-12</wgt>
  <wgt id="255">7.40859e-12</wgt>
  <wgt id="256">7.39376e-12</wgt>
  <wgt id="257">7.40755e-12</wgt>
  <wgt id="258">7.39682e-12</wgt>
  <wgt id="259">7.45016e-12</wgt>
  <wgt id="260">7.35423e-12</wgt>
  <wgt id="261">7.40686e-12</wgt>
  <wgt id="262">7.39512e-12</wgt>
  <wgt id="263">7.39955e-12</wgt>
  <wgt id="264">7.40349e-12</wgt>
  <wgt id="265">7.3948e-12</wgt>
  <wgt id="266">7.41451e-12</wgt>
  <wgt id="267">7.40348e-12</wgt>
  <wgt id="268">7.39866e-12</wgt>
  <wgt id="269">7.42069e-12</wgt>
  <wgt id="270">7.3883e-12</wgt>
  <wgt id="271">7.39006e-12</wgt>
  <wgt id="272">7.41414e-12</wgt>
  <wgt id="273">7.38058e-12</wgt>
  <wgt id="274">7.41743e-12</wgt>
  <wgt id="275">7.3776e-12</wgt>
  <wgt id="276">7.42588e-12</wgt>
  <wgt id="277">7.36341e-12</wgt>
  <wgt id="278">7.4366e-12</wgt>
  <wgt id="279">7.27506e-12</wgt>
  <wgt id="280">7.55913e-12</wgt>
  <wgt id="281">7.3741e-12</wgt>
  <wgt id="282">7.40055e-12</wgt>
  <wgt id="283">7.21974e-12</wgt>
  <wgt id="284">7.62322e-12</wgt>
  <wgt id="285">7.09598e-12</wgt>
  <wgt id="286">7.65012e-12</wgt>
  <wgt id="287">7.42148e-12</wgt>
  <wgt id="288">7.37565e-12</wgt>
  <wgt id="289">7.44548e-12</wgt>
  <wgt id="290">7.29489e-12</wgt>
  <wgt id="291">7.38731e-12</wgt>
  <wgt id="292">7.40505e-12</wgt>
  <wgt id="293">7.35298e-12</wgt>
  <wgt id="294">7.44942e-12</wgt>
  <wgt id="295">7.2795e-12</wgt>
  <wgt id="296">7.54945e-12</wgt>
  <wgt id="297">7.41001e-12</wgt>
  <wgt id="298">7.41856e-12</wgt>
  <wgt id="299">7.38133e-12</wgt>
  <wgt id="300">7.45416e-12</wgt>
  <wgt id="301">7.34794e-12</wgt>
  <wgt id="302">7.57351e-12</wgt>
  <wgt id="303">7.36684e-12</wgt>
  <wgt id="304">7.42223e-12</wgt>
  <wgt id="305">7.45898e-12</wgt>
  <wgt id="306">7.46653e-12</wgt>
  <wgt id="307">7.45099e-12</wgt>
  <wgt id="308">7.46582e-12</wgt>
  <wgt id="309">7.45436e-12</wgt>
  <wgt id="310">7.50997e-12</wgt>
  <wgt id="311">7.41166e-12</wgt>
  <wgt id="312">7.46164e-12</wgt>
  <wgt id="313">7.45671e-12</wgt>
  <wgt id="314">7.45719e-12</wgt>
  <wgt id="315">7.46071e-12</wgt>
  <wgt id="316">7.45291e-12</wgt>
  <wgt id="317">7.47245e-12</wgt>
  <wgt id="318">7.46318e-12</wgt>
  <wgt id="319">7.45173e-12</wgt>
  <wgt id="320">7.47892e-12</wgt>
  <wgt id="321">7.44782e-12</wgt>
  <wgt id="322">7.44319e-12</wgt>
  <wgt id="323">7.47738e-12</wgt>
  <wgt id="324">7.44135e-12</wgt>
  <wgt id="325">7.47424e-12</wgt>
  <wgt id="326">7.43969e-12</wgt>
  <wgt id="327">7.48354e-12</wgt>
  <wgt id="328">7.42348e-12</wgt>
  <wgt id="329">7.47956e-12</wgt>
  <wgt id="330">7.6583e-12</wgt>
  <wgt id="331">7.26777e-12</wgt>
  <wgt id="332">7.43665e-12</wgt>
  <wgt id="333">7.45745e-12</wgt>
  <wgt id="334">7.31458e-12</wgt>
  <wgt id="335">7.63691e-12</wgt>
  <wgt id="336">7.23515e-12</wgt>
  <wgt id="337">7.72752e-12</wgt>
  <wgt id="338">7.53061e-12</wgt>
  <wgt id="339">7.39227e-12</wgt>
  <wgt id="340">7.50159e-12</wgt>
  <wgt id="341">7.34607e-12</wgt>
  <wgt id="342">7.4502e-12</wgt>
  <wgt id="343">7.45329e-12</wgt>
  <wgt id="344">7.41409e-12</wgt>
  <wgt id="345">7.51092e-12</wgt>
  <wgt id="346">7.33157e-12</wgt>
  <wgt id="347">7.60543e-12</wgt>
  <wgt id="348">7.47243e-12</wgt>
  <wgt id="349">7.47049e-12</wgt>
  <wgt id="350">7.43328e-12</wgt>
  <wgt id="351">7.52418e-12</wgt>
  <wgt id="352">7.39719e-12</wgt>
  <wgt id="353">7.6461e-12</wgt>
  <wgt id="354">7.40458e-12</wgt>
  <wgt id="355">7.49438e-12</wgt>
  <wgt id="356">7.40128e-12</wgt>
  <wgt id="357">7.49933e-12</wgt>
  <wgt id="358">7.45898e-12</wgt>
  <wgt id="359">7.43719e-12</wgt>
  <wgt id="360">7.41658e-12</wgt>
  <wgt id="361">7.41687e-12</wgt>
  <wgt id="362">7.52582e-12</wgt>
  <wgt id="363">7.51038e-12</wgt>
  <wgt id="364">7.49117e-12</wgt>
  <wgt id="365">7.46974e-12</wgt>
  <wgt id="366">7.4446e-12</wgt>
  <wgt id="367">7.39092e-12</wgt>
  <wgt id="368">7.36242e-12</wgt>
  <wgt id="369">7.33189e-12</wgt>
  <wgt id="370">7.41687e-12</wgt>
  <wgt id="371">7.44922e-12</wgt>
  <wgt id="372">7.43147e-12</wgt>
  <wgt id="373">7.40467e-12</wgt>
  <wgt id="374">7.39857e-12</wgt>
  <wgt id="375">7.73653e-12</wgt>
  <wgt id="376">7.73735e-12</wgt>
  <wgt id="377">7.73551e-12</wgt>
  <wgt id="378">7.76382e-12</wgt>
  <wgt id="379">7.7096e-12</wgt>
  <wgt id="380">7.75795e-12</wgt>
  <wgt id="381">7.72797e-12</wgt>
  <wgt id="382">7.77119e-12</wgt>
  <wgt id="383">7.70225e-12</wgt>
  <wgt id="384">7.7416e-12</wgt>
  <wgt id="385">7.73179e-12</wgt>
  <wgt id="386">7.76305e-12</wgt>
  <wgt id="387">7.72508e-12</wgt>
  <wgt id="388">7.73018e-12</wgt>
  <wgt id="389">7.74444e-12</wgt>
  <wgt id="390">7.7552e-12</wgt>
  <wgt id="391">7.71683e-12</wgt>
  <wgt id="392">7.69145e-12</wgt>
  <wgt id="393">7.76198e-12</wgt>
  <wgt id="394">7.74775e-12</wgt>
  <wgt id="395">7.72114e-12</wgt>
  <wgt id="396">7.73532e-12</wgt>
  <wgt id="397">7.73731e-12</wgt>
  <wgt id="398">7.70798e-12</wgt>
  <wgt id="399">7.76409e-12</wgt>
  <wgt id="400">7.72585e-12</wgt>
  <wgt id="401">7.76015e-12</wgt>
  <wgt id="402">7.68421e-12</wgt>
  <wgt id="403">7.75512e-12</wgt>
  <wgt id="404">7.88365e-12</wgt>
  <wgt id="405">7.37861e-12</wgt>
  <wgt id="406">7.62998e-12</wgt>
  <wgt id="407">7.9643e-12</wgt>
  <wgt id="408">7.79103e-12</wgt>
  <wgt id="409">7.63042e-12</wgt>
  <wgt id="410">7.55966e-12</wgt>
  <wgt id="411">7.81598e-12</wgt>
  <wgt id="412">7.72562e-12</wgt>
  <wgt id="413">7.75036e-12</wgt>
  <wgt id="414">7.66616e-12</wgt>
  <wgt id="415">7.79119e-12</wgt>
  <wgt id="416">7.89343e-12</wgt>
  <wgt id="417">7.51882e-12</wgt>
  <wgt id="418">7.74485e-12</wgt>
  <wgt id="419">7.69175e-12</wgt>
  <wgt id="420">7.79401e-12</wgt>
  <wgt id="421">7.71444e-12</wgt>
  <wgt id="422">7.74552e-12</wgt>
  <wgt id="423">7.73492e-12</wgt>
  <wgt id="424">7.83666e-12</wgt>
  <wgt id="425">7.67949e-12</wgt>
  <wgt id="426">7.73653e-12</wgt>
  <wgt id="427">7.70099e-12</wgt>
  <wgt id="428">7.86182e-12</wgt>
  <wgt id="429">7.78302e-12</wgt>
  <wgt id="430">7.96888e-12</wgt>
  <wgt id="431">7.93225e-12</wgt>
  <wgt id="432">7.89674e-12</wgt>
  <wgt id="433">7.86226e-12</wgt>
  <wgt id="434">7.82197e-12</wgt>
  <wgt id="435">7.73412e-12</wgt>
  <wgt id="436">7.68799e-12</wgt>
  <wgt id="437">7.64505e-12</wgt>
  <wgt id="438">7.78302e-12</wgt>
  <wgt id="439">7.80848e-12</wgt>
  <wgt id="440">7.79389e-12</wgt>
  <wgt id="441">7.77448e-12</wgt>
  <wgt id="442">7.76739e-12</wgt>
  <wgt id="443">7.68586e-12</wgt>
  <wgt id="444">7.71087e-12</wgt>
  <wgt id="445">7.66186e-12</wgt>
  <wgt id="446">7.64319e-12</wgt>
  <wgt id="447">7.66247e-12</wgt>
  <wgt id="448">7.51431e-12</wgt>
  <wgt id="449">7.78273e-12</wgt>
  <wgt id="450">7.65103e-12</wgt>
  <wgt id="451">7.67752e-12</wgt>
  <wgt id="452">7.82226e-12</wgt>
  <wgt id="453">7.73103e-12</wgt>
  <wgt id="454">7.41507e-12</wgt>
  <wgt id="455">7.69456e-12</wgt>
  <wgt id="456">7.54233e-12</wgt>
  <wgt id="457">7.7079e-12</wgt>
  <wgt id="458">7.75813e-12</wgt>
  <wgt id="459">7.72762e-12</wgt>
  <wgt id="460">7.72428e-12</wgt>
  <wgt id="461">7.58629e-12</wgt>
  <wgt id="462">7.64363e-12</wgt>
  <wgt id="463">7.62368e-12</wgt>
  <wgt id="464">7.65869e-12</wgt>
  <wgt id="465">7.74122e-12</wgt>
  <wgt id="466">7.623e-12</wgt>
  <wgt id="467">7.63318e-12</wgt>
  <wgt id="468">7.67076e-12</wgt>
  <wgt id="469">7.67353e-12</wgt>
  <wgt id="470">7.63054e-12</wgt>
  <wgt id="471">7.63919e-12</wgt>
  <wgt id="472">7.70999e-12</wgt>
  <wgt id="473">7.51278e-12</wgt>
  <wgt id="474">5.79e-12</wgt>
  <wgt id="475">6.15072e-12</wgt>
  <wgt id="476">5.69937e-12</wgt>
  <wgt id="477">5.77333e-12</wgt>
  <wgt id="478">5.82805e-12</wgt>
  <wgt id="479">5.76042e-12</wgt>
  <wgt id="480">5.92742e-12</wgt>
  <wgt id="481">5.62297e-12</wgt>
  <wgt id="482">5.54635e-12</wgt>
  <wgt id="483">5.65185e-12</wgt>
  <wgt id="484">6.21922e-12</wgt>
  <wgt id="485">5.82231e-12</wgt>
  <wgt id="486">5.82448e-12</wgt>
  <wgt id="487">5.83636e-12</wgt>
  <wgt id="488">5.84315e-12</wgt>
  <wgt id="489">5.5665e-12</wgt>
  <wgt id="490">5.63432e-12</wgt>
  <wgt id="491">5.7325e-12</wgt>
  <wgt id="492">5.61354e-12</wgt>
  <wgt id="493">5.61545e-12</wgt>
  <wgt id="494">5.62164e-12</wgt>
  <wgt id="495">5.85956e-12</wgt>
  <wgt id="496">5.59015e-12</wgt>
  <wgt id="497">5.61109e-12</wgt>
  <wgt id="498">5.84108e-12</wgt>
  <wgt id="499">5.64382e-12</wgt>
  <wgt id="500">5.67731e-12</wgt>
  <wgt id="501">6.00889e-12</wgt>
  <wgt id="502">5.62474e-12</wgt>
  <wgt id="503">5.75573e-12</wgt>
  <wgt id="504">5.75191e-12</wgt>
  <wgt id="505">5.97362e-12</wgt>
  <wgt id="506">5.79349e-12</wgt>
  <wgt id="507">5.71495e-12</wgt>
  <wgt id="508">5.89416e-12</wgt>
  <wgt id="509">5.83741e-12</wgt>
  <wgt id="510">5.89555e-12</wgt>
  <wgt id="511">5.6571e-12</wgt>
  <wgt id="512">5.83547e-12</wgt>
  <wgt id="513">5.93601e-12</wgt>
  <wgt id="514">5.74148e-12</wgt>
  <wgt id="515">5.72932e-12</wgt>
  <wgt id="516">5.93007e-12</wgt>
  <wgt id="517">5.92658e-12</wgt>
  <wgt id="518">5.95744e-12</wgt>
  <wgt id="519">5.69363e-12</wgt>
  <wgt id="520">5.78558e-12</wgt>
  <wgt id="521">6.00548e-12</wgt>
  <wgt id="522">5.99642e-12</wgt>
  <wgt id="523">5.87513e-12</wgt>
  <wgt id="524">5.92106e-12</wgt>
  <wgt id="525">5.88461e-12</wgt>
  <wgt id="526">5.75555e-12</wgt>
  <wgt id="527">5.91299e-12</wgt>
  <wgt id="528">5.74974e-12</wgt>
  <wgt id="529">5.75271e-12</wgt>
  <wgt id="530">5.7975e-12</wgt>
  <wgt id="531">5.70026e-12</wgt>
  <wgt id="532">6.06062e-12</wgt>
  <wgt id="533">5.45097e-12</wgt>
  <wgt id="534">5.77386e-12</wgt>
  <wgt id="535">5.85654e-12</wgt>
  <wgt id="536">5.83498e-12</wgt>
  <wgt id="537">5.80671e-12</wgt>
  <wgt id="538">5.91867e-12</wgt>
  <wgt id="539">5.63713e-12</wgt>
  <wgt id="540">5.79414e-12</wgt>
  <wgt id="541">5.76304e-12</wgt>
  <wgt id="542">5.63488e-12</wgt>
  <wgt id="543">5.77585e-12</wgt>
  <wgt id="544">6.05901e-12</wgt>
  <wgt id="545">5.70901e-12</wgt>
  <wgt id="546">5.74313e-12</wgt>
  <wgt id="547">5.62754e-12</wgt>
  <wgt id="548">5.55888e-12</wgt>
  <wgt id="549">5.71835e-12</wgt>
  <wgt id="550">5.8758e-12</wgt>
  <wgt id="551">5.87329e-12</wgt>
  <wgt id="552">5.72887e-12</wgt>
  <wgt id="553">5.77562e-12</wgt>
  <wgt id="554">6.22252e-12</wgt>
  <wgt id="555">5.96518e-12</wgt>
  <wgt id="556">5.63432e-12</wgt>
  <wgt id="557">5.86659e-12</wgt>
  <wgt id="558">5.60615e-12</wgt>
  <wgt id="559">5.72885e-12</wgt>
  <wgt id="560">6.21444e-12</wgt>
  <wgt id="561">5.63737e-12</wgt>
  <wgt id="562">5.84485e-12</wgt>
  <wgt id="563">5.68617e-12</wgt>
  <wgt id="564">5.78468e-12</wgt>
  <wgt id="565">5.65088e-12</wgt>
  <wgt id="566">5.80872e-12</wgt>
  <wgt id="567">5.69545e-12</wgt>
  <wgt id="568">5.81911e-12</wgt>
  <wgt id="569">5.7705e-12</wgt>
  <wgt id="570">5.70287e-12</wgt>
  <wgt id="571">6.37794e-12</wgt>
  <wgt id="572">5.67523e-12</wgt>
  <wgt id="573">5.53726e-12</wgt>
  <wgt id="574">5.59561e-12</wgt>
  <wgt id="575">6.3027e-12</wgt>
  <wgt id="576">6.16495e-12</wgt>
  <wgt id="577">6.57818e-12</wgt>
  <wgt id="578">6.36347e-12</wgt>
  <wgt id="579">6.31494e-12</wgt>
  <wgt id="580">6.37099e-12</wgt>
  <wgt id="581">6.63358e-12</wgt>
  <wgt id="582">6.14257e-12</wgt>
  <wgt id="583">6.35122e-12</wgt>
  <wgt id="584">6.30089e-12</wgt>
  <wgt id="585">6.34087e-12</wgt>
  <wgt id="586">6.15312e-12</wgt>
  <wgt id="587">6.34939e-12</wgt>
  <wgt id="588">6.26075e-12</wgt>
  <wgt id="589">6.32469e-12</wgt>
  <wgt id="590">6.38381e-12</wgt>
  <wgt id="591">6.56187e-12</wgt>
  <wgt id="592">6.2065e-12</wgt>
  <wgt id="593">6.26583e-12</wgt>
  <wgt id="594">6.61957e-12</wgt>
  <wgt id="595">6.24231e-12</wgt>
  <wgt id="596">6.44013e-12</wgt>
  <wgt id="597">6.03921e-12</wgt>
  <wgt id="598">6.35876e-12</wgt>
  <wgt id="599">6.58084e-12</wgt>
  <wgt id="600">6.25082e-12</wgt>
  <wgt id="601">6.11993e-12</wgt>
  <wgt id="602">6.20793e-12</wgt>
  <wgt id="603">6.25601e-12</wgt>
  <wgt id="604">6.36911e-12</wgt>
  <wgt id="605">6.55179e-12</wgt>
  <wgt id="606">6.13729e-12</wgt>
  <wgt id="607">6.21133e-12</wgt>
  <wgt id="608">6.21592e-12</wgt>
  <wgt id="609">5.9147e-12</wgt>
  <wgt id="610">6.05364e-12</wgt>
  <wgt id="611">6.44024e-12</wgt>
  <wgt id="612">6.81552e-12</wgt>
  <wgt id="613">6.32742e-12</wgt>
  <wgt id="614">6.36702e-12</wgt>
  <wgt id="615">6.18392e-12</wgt>
  <wgt id="616">6.76453e-12</wgt>
  <wgt id="617">6.49941e-12</wgt>
  <wgt id="618">6.19693e-12</wgt>
  <wgt id="619">6.30964e-12</wgt>
  <wgt id="620">6.44267e-12</wgt>
  <wgt id="621">6.39285e-12</wgt>
  <wgt id="622">6.34939e-12</wgt>
  <wgt id="623">6.43402e-12</wgt>
  <wgt id="624">6.24338e-12</wgt>
  <wgt id="625">6.2284e-12</wgt>
  <wgt id="626">6.18609e-12</wgt>
  <wgt id="627">6.10822e-12</wgt>
  <wgt id="628">6.59542e-12</wgt>
  <wgt id="629">6.18768e-12</wgt>
  <wgt id="630">6.21702e-12</wgt>
  <wgt id="631">6.2735e-12</wgt>
  <wgt id="632">6.16643e-12</wgt>
  <wgt id="633">6.21434e-12</wgt>
  <wgt id="634">6.37951e-12</wgt>
  <wgt id="635">6.32052e-12</wgt>
  <wgt id="636">6.34304e-12</wgt>
  <wgt id="637">6.37031e-12</wgt>
  <wgt id="638">6.11564e-12</wgt>
  <wgt id="639">6.25495e-12</wgt>
  <wgt id="640">6.32755e-12</wgt>
  <wgt id="641">6.29008e-12</wgt>
  <wgt id="642">6.39046e-12</wgt>
  <wgt id="643">6.2968e-12</wgt>
  <wgt id="644">6.12759e-12</wgt>
  <wgt id="645">6.31388e-12</wgt>
  <wgt id="646">6.45711e-12</wgt>
  <wgt id="647">6.1769e-12</wgt>
  <wgt id="648">6.3204e-12</wgt>
  <wgt id="649">6.39234e-12</wgt>
  <wgt id="650">6.19109e-12</wgt>
  <wgt id="651">6.41701e-12</wgt>
  <wgt id="652">6.32532e-12</wgt>
  <wgt id="653">6.15689e-12</wgt>
  <wgt id="654">6.28649e-12</wgt>
  <wgt id="655">6.13229e-12</wgt>
  <wgt id="656">6.24075e-12</wgt>
  <wgt id="657">6.35549e-12</wgt>
  <wgt id="658">6.49406e-12</wgt>
  <wgt id="659">6.10337e-12</wgt>
  <wgt id="660">6.40785e-12</wgt>
  <wgt id="661">6.22645e-12</wgt>
  <wgt id="662">6.24305e-12</wgt>
  <wgt id="663">6.26612e-12</wgt>
  <wgt id="664">6.19406e-12</wgt>
  <wgt id="665">6.27556e-12</wgt>
  <wgt id="666">6.3236e-12</wgt>
  <wgt id="667">6.49799e-12</wgt>
  <wgt id="668">6.24538e-12</wgt>
  <wgt id="669">6.45767e-12</wgt>
  <wgt id="670">6.32683e-12</wgt>
  <wgt id="671">6.15966e-12</wgt>
  <wgt id="672">6.04198e-12</wgt>
  <wgt id="673">6.24678e-12</wgt>
  <wgt id="674">6.16558e-12</wgt>
  <wgt id="675">6.12113e-12</wgt>
  <wgt id="676">7.71018e-12</wgt>
  <wgt id="677">7.83916e-12</wgt>
  <wgt id="678">8.03761e-12</wgt>
  <wgt id="679">7.48013e-12</wgt>
  <wgt id="680">7.37511e-12</wgt>
  <wgt id="681">7.97475e-12</wgt>
  <wgt id="682">7.7164e-12</wgt>
  <wgt id="683">7.68538e-12</wgt>
  <wgt id="684">8.01691e-12</wgt>
  <wgt id="685">7.33154e-12</wgt>
  <wgt id="686">7.90286e-12</wgt>
  <wgt id="687">7.99335e-12</wgt>
  <wgt id="688">7.63893e-12</wgt>
  <wgt id="689">8.14426e-12</wgt>
  <wgt id="690">8.16843e-12</wgt>
  <wgt id="691">8.0378e-12</wgt>
  <wgt id="692">7.7401e-12</wgt>
  <wgt id="693">8.68475e-12</wgt>
  <wgt id="694">8.11218e-12</wgt>
  <wgt id="695">7.44998e-12</wgt>
  <wgt id="696">7.4153e-12</wgt>
  <wgt id="697">7.42871e-12</wgt>
  <wgt id="698">7.39562e-12</wgt>
  <wgt id="699">7.27539e-12</wgt>
  <wgt id="700">7.02406e-12</wgt>
  <wgt id="701">7.7125e-12</wgt>
  <wgt id="702">7.3313e-12</wgt>
  <wgt id="703">8.58561e-12</wgt>
  <wgt id="704">8.14791e-12</wgt>
  <wgt id="705">7.95016e-12</wgt>
  <wgt id="706">7.23818e-12</wgt>
  <wgt id="707">7.44348e-12</wgt>
  <wgt id="708">7.63018e-12</wgt>
  <wgt id="709">7.59482e-12</wgt>
  <wgt id="710">6.95582e-12</wgt>
  <wgt id="711">7.74641e-12</wgt>
  <wgt id="712">7.64103e-12</wgt>
  <wgt id="713">8.10103e-12</wgt>
  <wgt id="714">7.75321e-12</wgt>
  <wgt id="715">7.62685e-12</wgt>
  <wgt id="716">7.46458e-12</wgt>
  <wgt id="717">7.46633e-12</wgt>
  <wgt id="718">7.48577e-12</wgt>
  <wgt id="719">7.1437e-12</wgt>
  <wgt id="720">7.39611e-12</wgt>
  <wgt id="721">7.53188e-12</wgt>
  <wgt id="722">7.13758e-12</wgt>
  <wgt id="723">8.05926e-12</wgt>
  <wgt id="724">7.94826e-12</wgt>
  <wgt id="725">8.14317e-12</wgt>
  <wgt id="726">7.80223e-12</wgt>
  <wgt id="727">7.55024e-12</wgt>
  <wgt id="728">7.72711e-12</wgt>
  <wgt id="729">7.06541e-12</wgt>
  <wgt id="730">8.03858e-12</wgt>
  <wgt id="731">7.65813e-12</wgt>
  <wgt id="732">8.31499e-12</wgt>
  <wgt id="733">7.69112e-12</wgt>
  <wgt id="734">7.87498e-12</wgt>
  <wgt id="735">7.67137e-12</wgt>
  <wgt id="736">7.6571e-12</wgt>
  <wgt id="737">7.82576e-12</wgt>
  <wgt id="738">7.53211e-12</wgt>
  <wgt id="739">7.58063e-12</wgt>
  <wgt id="740">8.44774e-12</wgt>
  <wgt id="741">6.90931e-12</wgt>
  <wgt id="742">7.61614e-12</wgt>
  <wgt id="743">7.60327e-12</wgt>
  <wgt id="744">7.56851e-12</wgt>
  <wgt id="745">7.91908e-12</wgt>
  <wgt id="746">7.97484e-12</wgt>
  <wgt id="747">7.26548e-12</wgt>
  <wgt id="748">7.5577e-12</wgt>
  <wgt id="749">8.15078e-12</wgt>
  <wgt id="750">7.52401e-12</wgt>
  <wgt id="751">8.00544e-12</wgt>
  <wgt id="752">7.21259e-12</wgt>
  <wgt id="753">7.36921e-12</wgt>
  <wgt id="754">7.77271e-12</wgt>
  <wgt id="755">7.77586e-12</wgt>
  <wgt id="756">7.72889e-12</wgt>
  <wgt id="757">7.27304e-12</wgt>
  <wgt id="758">7.83114e-12</wgt>
  <wgt id="759">7.54764e-12</wgt>
  <wgt id="760">7.89139e-12</wgt>
  <wgt id="761">8.10691e-12</wgt>
  <wgt id="762">8.05803e-12</wgt>
  <wgt id="763">7.78029e-12</wgt>
  <wgt id="764">7.93357e-12</wgt>
  <wgt id="765">7.68216e-12</wgt>
  <wgt id="766">7.66873e-12</wgt>
  <wgt id="767">7.84627e-12</wgt>
  <wgt id="768">7.41007e-12</wgt>
  <wgt id="769">8.09486e-12</wgt>
  <wgt id="770">7.53243e-12</wgt>
  <wgt id="771">8.85497e-12</wgt>
  <wgt id="772">7.26426e-12</wgt>
  <wgt id="773">7.71241e-12</wgt>
  <wgt id="774">7.11215e-12</wgt>
  <wgt id="775">7.95913e-12</wgt>
  <wgt id="776">8.38791e-12</wgt>
  <wgt id="777">7.63636e-12</wgt>
  <wgt id="778">5.9339e-12</wgt>
  <wgt id="779">5.2296e-12</wgt>
  <wgt id="780">4.65294e-12</wgt>
  <wgt id="781">5.84961e-12</wgt>
  <wgt id="782">6.27887e-12</wgt>
  <wgt id="783">5.37177e-12</wgt>
  <wgt id="784">5.4181e-12</wgt>
  <wgt id="785">6.95865e-12</wgt>
  <wgt id="786">4.75909e-12</wgt>
  <wgt id="787">6.45719e-12</wgt>
  <wgt id="788">4.32227e-12</wgt>
  <wgt id="789">4.91998e-12</wgt>
  <wgt id="790">4.79887e-12</wgt>
  <wgt id="791">5.49463e-12</wgt>
  <wgt id="792">7.39235e-12</wgt>
  <wgt id="793">5.6815e-12</wgt>
  <wgt id="794">4.98464e-12</wgt>
  <wgt id="795">6.50931e-12</wgt>
  <wgt id="796">7.49489e-12</wgt>
  <wgt id="797">6.54238e-12</wgt>
  <wgt id="798">5.64682e-12</wgt>
  <wgt id="799">6.51993e-12</wgt>
  <wgt id="800">4.97724e-12</wgt>
  <wgt id="801">5.70746e-12</wgt>
  <wgt id="802">5.04221e-12</wgt>
  <wgt id="803">7.70891e-12</wgt>
  <wgt id="804">6.48053e-12</wgt>
  <wgt id="805">6.60037e-12</wgt>
  <wgt id="806">6.72654e-12</wgt>
  <wgt id="807">5.77611e-12</wgt>
  <wgt id="808">5.83362e-12</wgt>
  <wgt id="809">5.52223e-12</wgt>
  <wgt id="810">6.76809e-12</wgt>
  <wgt id="811">6.35346e-12</wgt>
  <wgt id="812">4.95304e-12</wgt>
  <wgt id="813">4.95483e-12</wgt>
  <wgt id="814">4.96645e-12</wgt>
  <wgt id="815">5.25553e-12</wgt>
  <wgt id="816">4.78489e-12</wgt>
  <wgt id="817">6.26207e-12</wgt>
  <wgt id="818">5.67095e-12</wgt>
  <wgt id="819">5.28024e-12</wgt>
  <wgt id="820">5.96807e-12</wgt>
  <wgt id="821">6.52855e-12</wgt>
  <wgt id="822">5.40831e-12</wgt>
  <wgt id="823">6.50664e-12</wgt>
  <wgt id="824">7.69413e-12</wgt>
  <wgt id="825">4.78845e-12</wgt>
  <wgt id="826">6.00267e-12</wgt>
  <wgt id="827">4.16752e-12</wgt>
  <wgt id="828">7.52898e-12</wgt>
  <wgt id="829">6.028e-12</wgt>
  <wgt id="830">4.57502e-12</wgt>
  <wgt id="831">6.21187e-12</wgt>
  <wgt id="832">9.06135e-12</wgt>
  <wgt id="833">5.76438e-12</wgt>
  <wgt id="834">8.54442e-12</wgt>
  <wgt id="835">4.98189e-12</wgt>
  <wgt id="836">6.04448e-12</wgt>
  <wgt id="837">6.45305e-12</wgt>
  <wgt id="838">5.72784e-12</wgt>
  <wgt id="839">6.20424e-12</wgt>
  <wgt id="840">5.75782e-12</wgt>
  <wgt id="841">6.80232e-12</wgt>
  <wgt id="842">5.59891e-12</wgt>
  <wgt id="843">5.69277e-12</wgt>
  <wgt id="844">6.03886e-12</wgt>
  <wgt id="845">7.61169e-12</wgt>
  <wgt id="846">5.51911e-12</wgt>
  <wgt id="847">5.71735e-12</wgt>
  <wgt id="848">5.48174e-12</wgt>
  <wgt id="849">6.02592e-12</wgt>
  <wgt id="850">7.19544e-12</wgt>
  <wgt id="851">6.36463e-12</wgt>
  <wgt id="852">5.37816e-12</wgt>
  <wgt id="853">6.28962e-12</wgt>
  <wgt id="854">6.9057e-12</wgt>
  <wgt id="855">6.48142e-12</wgt>
  <wgt id="856">4.67835e-12</wgt>
  <wgt id="857">6.05535e-12</wgt>
  <wgt id="858">5.86672e-12</wgt>
  <wgt id="859">5.59347e-12</wgt>
  <wgt id="860">6.0558e-12</wgt>
  <wgt id="861">5.54824e-12</wgt>
  <wgt id="862">5.98446e-12</wgt>
  <wgt id="863">6.08031e-12</wgt>
  <wgt id="864">6.10018e-12</wgt>
  <wgt id="865">7.84267e-12</wgt>
  <wgt id="866">8.57481e-12</wgt>
  <wgt id="867">5.86918e-12</wgt>
  <wgt id="868">5.76648e-12</wgt>
  <wgt id="869">4.93156e-12</wgt>
  <wgt id="870">5.18792e-12</wgt>
  <wgt id="871">5.06558e-12</wgt>
  <wgt id="872">6.63602e-12</wgt>
  <wgt id="873">5.12835e-12</wgt>
  <wgt id="874">6.07826e-12</wgt>
  <wgt id="875">5.26758e-12</wgt>
  <wgt id="876">6.63326e-12</wgt>
  <wgt id="877">6.47026e-12</wgt>
  <wgt id="878">5.42844e-12</wgt>
  <wgt id="879">7.71018e-12</wgt>
  <wgt id="880">7.83916e-12</wgt>
  <wgt id="881">8.03761e-12</wgt>
  <wgt id="882">7.48013e-12</wgt>
  <wgt id="883">7.37511e-12</wgt>
  <wgt id="884">7.97475e-12</wgt>
  <wgt id="885">7.7164e-12</wgt>
  <wgt id="886">7.68538e-12</wgt>
  <wgt id="887">8.01691e-12</wgt>
  <wgt id="888">7.33154e-12</wgt>
  <wgt id="889">7.90286e-12</wgt>
  <wgt id="890">7.99335e-12</wgt>
  <wgt id="891">7.63893e-12</wgt>
  <wgt id="892">8.14426e-12</wgt>
  <wgt id="893">8.16843e-12</wgt>
  <wgt id="894">8.0378e-12</wgt>
  <wgt id="895">7.7401e-12</wgt>
  <wgt id="896">8.68475e-12</wgt>
  <wgt id="897">8.11218e-12</wgt>
  <wgt id="898">7.44998e-12</wgt>
  <wgt id="899">7.4153e-12</wgt>
  <wgt id="900">7.42871e-12</wgt>
  <wgt id="901">7.39562e-12</wgt>
  <wgt id="902">7.27539e-12</wgt>
  <wgt id="903">7.02406e-12</wgt>
  <wgt id="904">7.7125e-12</wgt>
  <wgt id="905">7.3313e-12</wgt>
  <wgt id="906">8.58561e-12</wgt>
  <wgt id="907">8.14791e-12</wgt>
  <wgt id="908">7.95016e-12</wgt>
  <wgt id="909">7.23818e-12</wgt>
  <wgt id="910">7.44348e-12</wgt>
  <wgt id="911">7.63018e-12</wgt>
  <wgt id="912">7.59482e-12</wgt>
  <wgt id="913">6.95582e-12</wgt>
  <wgt id="914">7.74641e-12</wgt>
  <wgt id="915">7.64103e-12</wgt>
  <wgt id="916">8.10103e-12</wgt>
  <wgt id="917">7.75321e-12</wgt>
  <wgt id="918">7.62685e-12</wgt>
  <wgt id="919">7.46458e-12</wgt>
  <wgt id="920">7.46633e-12</wgt>
  <wgt id="921">7.48577e-12</wgt>
  <wgt id="922">7.1437e-12</wgt>
  <wgt id="923">7.39611e-12</wgt>
  <wgt id="924">7.53188e-12</wgt>
  <wgt id="925">7.13758e-12</wgt>
  <wgt id="926">8.05926e-12</wgt>
  <wgt id="927">7.94826e-12</wgt>
  <wgt id="928">8.14317e-12</wgt>
  <wgt id="929">7.80223e-12</wgt>
  <wgt id="930">7.55024e-12</wgt>
  <wgt id="931">7.72711e-12</wgt>
  <wgt id="932">7.06541e-12</wgt>
  <wgt id="933">8.03858e-12</wgt>
  <wgt id="934">7.65813e-12</wgt>
  <wgt id="935">8.31499e-12</wgt>
  <wgt id="936">7.69112e-12</wgt>
  <wgt id="937">7.87498e-12</wgt>
  <wgt id="938">7.67137e-12</wgt>
  <wgt id="939">7.6571e-12</wgt>
  <wgt id="940">7.82576e-12</wgt>
  <wgt id="941">7.53211e-12</wgt>
  <wgt id="942">7.58063e-12</wgt>
  <wgt id="943">8.44774e-12</wgt>
  <wgt id="944">6.90931e-12</wgt>
  <wgt id="945">7.61614e-12</wgt>
  <wgt id="946">7.60327e-12</wgt>
  <wgt id="947">7.56851e-12</wgt>
  <wgt id="948">7.91908e-12</wgt>
  <wgt id="949">7.97484e-12</wgt>
  <wgt id="950">7.26548e-12</wgt>
  <wgt id="951">7.5577e-12</wgt>
  <wgt id="952">8.15078e-12</wgt>
  <wgt id="953">7.52401e-12</wgt>
  <wgt id="954">8.00544e-12</wgt>
  <wgt id="955">7.21259e-12</wgt>
  <wgt id="956">7.36921e-12</wgt>
  <wgt id="957">7.77271e-12</wgt>
  <wgt id="958">7.77586e-12</wgt>
  <wgt id="959">7.72889e-12</wgt>
  <wgt id="960">7.27304e-12</wgt>
  <wgt id="961">7.83114e-12</wgt>
  <wgt id="962">7.54764e-12</wgt>
  <wgt id="963">7.89139e-12</wgt>
  <wgt id="964">8.10691e-12</wgt>
  <wgt id="965">8.05803e-12</wgt>
  <wgt id="966">7.78029e-12</wgt>
  <wgt id="967">7.93357e-12</wgt>
  <wgt id="968">7.68216e-12</wgt>
  <wgt id="969">7.66873e-12</wgt>
  <wgt id="970">7.84627e-12</wgt>
  <wgt id="971">7.41007e-12</wgt>
  <wgt id="972">8.09486e-12</wgt>
  <wgt id="973">7.53243e-12</wgt>
  <wgt id="974">8.85497e-12</wgt>
  <wgt id="975">7.26426e-12</wgt>
  <wgt id="976">7.71241e-12</wgt>
  <wgt id="977">7.11215e-12</wgt>
  <wgt id="978">7.95913e-12</wgt>
  <wgt id="979">8.38791e-12</wgt>
  <wgt id="980">7.74256e-12</wgt>
  <wgt id="981">7.71571e-12</wgt>
  <wgt id="982">7.5091e-12</wgt>
</rwgt>
</event>
<event>
 5   1  0.5790000E-11  0.2202435E+04  0.7818608E-02  0.7747952E-01
       21   -1    0    0  502  501  0.00000000000E+00  0.00000000000E+00  0.12628452314E+04  0.12628452314E+04  0.00000000000E+00 0.  1.
       21   -1    0    0  501  502 -0.00000000000E+00 -0.00000000000E+00 -0.96027561762E+03  0.96027561762E+03  0.00000000000E+00 0. -1.
       39    2    1    2    0    0  0.00000000000E+00  0.00000000000E+00  0.30256961376E+03  0.22231208490E+04  0.22024345480E+04 0.  0.
       25    1    3    3    0    0  0.91134175077E+03 -0.36870312658E+03  0.63597054223E+03  0.11775267780E+04  0.12500000000E+03 0.  0.
       25    1    3    3    0    0 -0.91134175077E+03  0.36870312658E+03 -0.33340092847E+03  0.10455940710E+04  0.12500000000E+03 0.  0.
<mgrwt>
<rscale>  0 0.22024345E+04</rscale>
<asrwt>0</asrwt>
<pdfrwt beam="1">  1       21 0.19428388E+00 0.22024345E+04</pdfrwt>
<pdfrwt beam="2">  1       21 0.14773471E+00 0.22024345E+04</pdfrwt>
<totfact> 0.18390871E+01</totfact>
</mgrwt>
<rwgt>
  <wgt id="1">5.79e-12</wgt>
  <wgt id="2">5.05464e-12</wgt>
  <wgt id="3">6.70008e-12</wgt>
  <wgt id="4">5.79e-12</wgt>
  <wgt id="5">5.05464e-12</wgt>
  <wgt id="6">6.70008e-12</wgt>
  <wgt id="7">5.79e-12</wgt>
  <wgt id="8">5.05464e-12</wgt>
  <wgt id="9">6.70008e-12</wgt>
  <wgt id="10">5.95954e-12</wgt>
  <wgt id="11">5.95366e-12</wgt>
  <wgt id="12">5.94814e-12</wgt>
  <wgt id="13">5.93912e-12</wgt>
  <wgt id="14">5.98077e-12</wgt>
  <wgt id="15">5.96816e-12</wgt>
  <wgt id="16">5.94671e-12</wgt>
  <wgt id="17">5.96958e-12</wgt>
  <wgt id="18">5.9513e-12</wgt>
  <wgt id="19">5.97181e-12</wgt>
  <wgt id="20">5.9417e-12</wgt>
  <wgt id="21">5.92767e-12</wgt>
  <wgt id="22">5.94138e-12</wgt>
  <wgt id="23">5.90927e-12</wgt>
  <wgt id="24">5.93371e-12</wgt>
  <wgt id="25">5.94521e-12</wgt>
  <wgt id="26">5.98414e-12</wgt>
  <wgt id="27">5.95907e-12</wgt>
  <wgt id="28">5.93172e-12</wgt>
  <wgt id="29">5.96564e-12</wgt>
  <wgt id="30">5.94485e-12</wgt>
  <wgt id="31">5.97506e-12</wgt>
  <wgt id="32">5.94766e-12</wgt>
  <wgt id="33">5.97254e-12</wgt>
  <wgt id="34">5.94236e-12</wgt>
  <wgt id="35">5.95293e-12</wgt>
  <wgt id="36">5.97399e-12</wgt>
  <wgt id="37">5.94441e-12</wgt>
  <wgt id="38">5.94483e-12</wgt>
  <wgt id="39">6.01949e-12</wgt>
  <wgt id="40">5.97418e-12</wgt>
  <wgt id="41">5.95816e-12</wgt>
  <wgt id="42">5.97779e-12</wgt>
  <wgt id="43">5.96434e-12</wgt>
  <wgt id="44">5.93586e-12</wgt>
  <wgt id="45">5.96904e-12</wgt>
  <wgt id="46">5.96684e-12</wgt>
  <wgt id="47">5.93384e-12</wgt>
  <wgt id="48">5.95989e-12</wgt>
  <wgt id="49">5.9809e-12</wgt>
  <wgt id="50">5.99702e-12</wgt>
  <wgt id="51">5.98457e-12</wgt>
  <wgt id="52">5.94037e-12</wgt>
  <wgt id="53">5.92285e-12</wgt>
  <wgt id="54">5.94744e-12</wgt>
  <wgt id="55">5.95808e-12</wgt>
  <wgt id="56">5.97813e-12</wgt>
  <wgt id="57">5.98008e-12</wgt>
  <wgt id="58">5.91918e-12</wgt>
  <wgt id="59">5.93977e-12</wgt>
  <wgt id="60">5.96151e-12</wgt>
  <wgt id="61">5.95251e-12</wgt>
  <wgt id="62">5.95908e-12</wgt>
  <wgt id="63">5.9669e-12</wgt>
  <wgt id="64">5.96644e-12</wgt>
  <wgt id="65">5.96526e-12</wgt>
  <wgt id="66">5.95235e-12</wgt>
  <wgt id="67">5.95197e-12</wgt>
  <wgt id="68">5.95356e-12</wgt>
  <wgt id="69">5.95792e-12</wgt>
  <wgt id="70">5.95567e-12</wgt>
  <wgt id="71">5.95671e-12</wgt>
  <wgt id="72">5.95318e-12</wgt>
  <wgt id="73">5.96367e-12</wgt>
  <wgt id="74">5.96228e-12</wgt>
  <wgt id="75">5.95819e-12</wgt>
  <wgt id="76">5.9736e-12</wgt>
  <wgt id="77">5.9587e-12</wgt>
  <wgt id="78">5.96132e-12</wgt>
  <wgt id="79">5.96916e-12</wgt>
  <wgt id="80">5.93716e-12</wgt>
  <wgt id="81">5.95249e-12</wgt>
  <wgt id="82">5.95967e-12</wgt>
  <wgt id="83">5.93958e-12</wgt>
  <wgt id="84">5.94848e-12</wgt>
  <wgt id="85">5.95039e-12</wgt>
  <wgt id="86">5.97121e-12</wgt>
  <wgt id="87">5.93389e-12</wgt>
  <wgt id="88">5.96548e-12</wgt>
  <wgt id="89">5.96459e-12</wgt>
  <wgt id="90">5.96662e-12</wgt>
  <wgt id="91">5.96345e-12</wgt>
  <wgt id="92">5.96932e-12</wgt>
  <wgt id="93">5.95901e-12</wgt>
  <wgt id="94">5.95505e-12</wgt>
  <wgt id="95">5.96284e-12</wgt>
  <wgt id="96">5.96285e-12</wgt>
  <wgt id="97">5.95267e-12</wgt>
  <wgt id="98">5.9622e-12</wgt>
  <wgt id="99">5.95684e-12</wgt>
  <wgt id="100">5.9646e-12</wgt>
  <wgt id="101">5.95807e-12</wgt>
  <wgt id="102">5.95436e-12</wgt>
  <wgt id="103">5.96653e-12</wgt>
  <wgt id="104">5.95587e-12</wgt>
  <wgt id="105">5.96452e-12</wgt>
  <wgt id="106">5.95288e-12</wgt>
  <wgt id="107">5.97347e-12</wgt>
  <wgt id="108">5.9544e-12</wgt>
  <wgt id="109">5.96128e-12</wgt>
  <wgt id="110">5.9588e-12</wgt>
  <wgt id="111">6.02834e-12</wgt>
  <wgt id="112">5.94838e-12</wgt>
  <wgt id="113">7.87098e-12</wgt>
  <wgt id="114">8.18274e-12</wgt>
  <wgt id="115">8.07131e-12</wgt>
  <wgt id="116">1.10773e-11</wgt>
  <wgt id="117">6.57633e-12</wgt>
  <wgt id="118">6.59787e-12</wgt>
  <wgt id="119">6.56437e-12</wgt>
  <wgt id="120">6.57721e-12</wgt>
  <wgt id="121">6.57606e-12</wgt>
  <wgt id="122">6.56461e-12</wgt>
  <wgt id="123">6.59266e-12</wgt>
  <wgt id="124">6.56676e-12</wgt>
  <wgt id="125">6.58269e-12</wgt>
  <wgt id="126">6.58762e-12</wgt>
  <wgt id="127">6.56906e-12</wgt>
  <wgt id="128">6.59701e-12</wgt>
  <wgt id="129">6.55608e-12</wgt>
  <wgt id="130">6.61436e-12</wgt>
  <wgt id="131">6.53761e-12</wgt>
  <wgt id="132">6.4106e-12</wgt>
  <wgt id="133">6.77208e-12</wgt>
  <wgt id="134">6.5085e-12</wgt>
  <wgt id="135">6.62941e-12</wgt>
  <wgt id="136">6.65611e-12</wgt>
  <wgt id="137">6.48004e-12</wgt>
  <wgt id="138">6.818e-12</wgt>
  <wgt id="139">6.34214e-12</wgt>
  <wgt id="140">6.53151e-12</wgt>
  <wgt id="141">6.61155e-12</wgt>
  <wgt id="142">6.57745e-12</wgt>
  <wgt id="143">6.5844e-12</wgt>
  <wgt id="144">6.41446e-12</wgt>
  <wgt id="145">6.72504e-12</wgt>
  <wgt id="146">6.62786e-12</wgt>
  <wgt id="147">6.53619e-12</wgt>
  <wgt id="148">6.59537e-12</wgt>
  <wgt id="149">6.57499e-12</wgt>
  <wgt id="150">6.63197e-12</wgt>
  <wgt id="151">6.55042e-12</wgt>
  <wgt id="152">6.57915e-12</wgt>
  <wgt id="153">6.57556e-12</wgt>
  <wgt id="154">6.63434e-12</wgt>
  <wgt id="155">6.50858e-12</wgt>
  <wgt id="156">6.68587e-12</wgt>
  <wgt id="157">6.45467e-12</wgt>
  <wgt id="158">7.91456e-12</wgt>
  <wgt id="159">7.94732e-12</wgt>
  <wgt id="160">7.88789e-12</wgt>
  <wgt id="161">7.89555e-12</wgt>
  <wgt id="162">7.93526e-12</wgt>
  <wgt id="163">7.90649e-12</wgt>
  <wgt id="164">7.92645e-12</wgt>
  <wgt id="165">7.91754e-12</wgt>
  <wgt id="166">7.91215e-12</wgt>
  <wgt id="167">7.9087e-12</wgt>
  <wgt id="168">7.92261e-12</wgt>
  <wgt id="169">7.8805e-12</wgt>
  <wgt id="170">7.93584e-12</wgt>
  <wgt id="171">7.90622e-12</wgt>
  <wgt id="172">7.9262e-12</wgt>
  <wgt id="173">7.91565e-12</wgt>
  <wgt id="174">7.91381e-12</wgt>
  <wgt id="175">7.7002e-12</wgt>
  <wgt id="176">8.19303e-12</wgt>
  <wgt id="177">7.95452e-12</wgt>
  <wgt id="178">7.87728e-12</wgt>
  <wgt id="179">8.22583e-12</wgt>
  <wgt id="180">7.42048e-12</wgt>
  <wgt id="181">7.69613e-12</wgt>
  <wgt id="182">8.05835e-12</wgt>
  <wgt id="183">7.78076e-12</wgt>
  <wgt id="184">7.98071e-12</wgt>
  <wgt id="185">7.85389e-12</wgt>
  <wgt id="186">7.98627e-12</wgt>
  <wgt id="187">7.84624e-12</wgt>
  <wgt id="188">8.03771e-12</wgt>
  <wgt id="189">7.86702e-12</wgt>
  <wgt id="190">7.93404e-12</wgt>
  <wgt id="191">7.93469e-12</wgt>
  <wgt id="192">7.90252e-12</wgt>
  <wgt id="193">8.02003e-12</wgt>
  <wgt id="194">7.8623e-12</wgt>
  <wgt id="195">7.74953e-12</wgt>
  <wgt id="196">8.2235e-12</wgt>
  <wgt id="197">7.95206e-12</wgt>
  <wgt id="198">7.90545e-12</wgt>
  <wgt id="199">7.91456e-12</wgt>
  <wgt id="200">7.9793e-12</wgt>
  <wgt id="201">7.95526e-12</wgt>
  <wgt id="202">7.9321e-12</wgt>
  <wgt id="203">7.89685e-12</wgt>
  <wgt id="204">7.88031e-12</wgt>
  <wgt id="205">7.86657e-12</wgt>
  <wgt id="206">7.70149e-12</wgt>
  <wgt id="207">7.74603e-12</wgt>
  <wgt id="208">7.65732e-12</wgt>
  <wgt id="209">7.72286e-12</wgt>
  <wgt id="210">7.68568e-12</wgt>
  <wgt id="211">7.69909e-12</wgt>
  <wgt id="212">7.70331e-12</wgt>
  <wgt id="213">7.70079e-12</wgt>
  <wgt id="214">7.70256e-12</wgt>
  <wgt id="215">7.70645e-12</wgt>
  <wgt id="216">7.6977e-12</wgt>
  <wgt id="217">7.72266e-12</wgt>
  <wgt id="218">7.68492e-12</wgt>
  <wgt id="219">7.6921e-12</wgt>
  <wgt id="220">7.7071e-12</wgt>
  <wgt id="221">7.69752e-12</wgt>
  <wgt id="222">7.71041e-12</wgt>
  <wgt id="223">7.31089e-12</wgt>
  <wgt id="224">8.05596e-12</wgt>
  <wgt id="225">7.61406e-12</wgt>
  <wgt id="226">7.81082e-12</wgt>
  <wgt id="227">7.63151e-12</wgt>
  <wgt id="228">7.73219e-12</wgt>
  <wgt id="229">7.59837e-12</wgt>
  <wgt id="230">7.75269e-12</wgt>
  <wgt id="231">7.91036e-12</wgt>
  <wgt id="232">7.52922e-12</wgt>
  <wgt id="233">7.66367e-12</wgt>
  <wgt id="234">7.75901e-12</wgt>
  <wgt id="235">7.57512e-12</wgt>
  <wgt id="236">7.82695e-12</wgt>
  <wgt id="237">7.6106e-12</wgt>
  <wgt id="238">7.73274e-12</wgt>
  <wgt id="239">7.66092e-12</wgt>
  <wgt id="240">7.775e-12</wgt>
  <wgt id="241">7.62813e-12</wgt>
  <wgt id="242">7.78954e-12</wgt>
  <wgt id="243">7.77806e-12</wgt>
  <wgt id="244">7.75118e-12</wgt>
  <wgt id="245">7.69502e-12</wgt>
  <wgt id="246">7.76107e-12</wgt>
  <wgt id="247">7.70149e-12</wgt>
  <wgt id="248">7.76482e-12</wgt>
  <wgt id="249">7.74028e-12</wgt>
  <wgt id="250">7.71776e-12</wgt>
  <wgt id="251">7.68333e-12</wgt>
  <wgt id="252">7.66745e-12</wgt>
  <wgt id="253">7.65562e-12</wgt>
  <wgt id="254">7.54673e-12</wgt>
  <wgt id="255">7.55396e-12</wgt>
  <wgt id="256">7.53884e-12</wgt>
  <wgt id="257">7.55262e-12</wgt>
  <wgt id="258">7.54237e-12</wgt>
  <wgt id="259">7.59685e-12</wgt>
  <wgt id="260">7.49839e-12</wgt>
  <wgt id="261">7.55538e-12</wgt>
  <wgt id="262">7.53646e-12</wgt>
  <wgt id="263">7.54395e-12</wgt>
  <wgt id="264">7.5498e-12</wgt>
  <wgt id="265">7.53876e-12</wgt>
  <wgt id="266">7.56253e-12</wgt>
  <wgt id="267">7.54908e-12</wgt>
  <wgt id="268">7.54356e-12</wgt>
  <wgt id="269">7.56925e-12</wgt>
  <wgt id="270">7.53144e-12</wgt>
  <wgt id="271">7.53433e-12</wgt>
  <wgt id="272">7.56034e-12</wgt>
  <wgt id="273">7.52415e-12</wgt>
  <wgt id="274">7.56402e-12</wgt>
  <wgt id="275">7.51861e-12</wgt>
  <wgt id="276">7.57578e-12</wgt>
  <wgt id="277">7.50545e-12</wgt>
  <wgt id="278">7.58477e-12</wgt>
  <wgt id="279">7.40825e-12</wgt>
  <wgt id="280">7.71994e-12</wgt>
  <wgt id="281">7.51553e-12</wgt>
  <wgt id="282">7.54725e-12</wgt>
  <wgt id="283">7.34439e-12</wgt>
  <wgt id="284">7.7949e-12</wgt>
  <wgt id="285">7.20924e-12</wgt>
  <wgt id="286">7.82406e-12</wgt>
  <wgt id="287">7.56899e-12</wgt>
  <wgt id="288">7.5183e-12</wgt>
  <wgt id="289">7.596e-12</wgt>
  <wgt id="290">7.4303e-12</wgt>
  <wgt id="291">7.52907e-12</wgt>
  <wgt id="292">7.55108e-12</wgt>
  <wgt id="293">7.49268e-12</wgt>
  <wgt id="294">7.60027e-12</wgt>
  <wgt id="295">7.41249e-12</wgt>
  <wgt id="296">7.71007e-12</wgt>
  <wgt id="297">7.5504e-12</wgt>
  <wgt id="298">7.57032e-12</wgt>
  <wgt id="299">7.52417e-12</wgt>
  <wgt id="300">7.60627e-12</wgt>
  <wgt id="301">7.46375e-12</wgt>
  <wgt id="302">7.77226e-12</wgt>
  <wgt id="303">7.49894e-12</wgt>
  <wgt id="304">7.57449e-12</wgt>
  <wgt id="305">7.58599e-12</wgt>
  <wgt id="306">7.59394e-12</wgt>
  <wgt id="307">7.57777e-12</wgt>
  <wgt id="308">7.59257e-12</wgt>
  <wgt id="309">7.58173e-12</wgt>
  <wgt id="310">7.6383e-12</wgt>
  <wgt id="311">7.53766e-12</wgt>
  <wgt id="312">7.59253e-12</wgt>
  <wgt id="313">7.57983e-12</wgt>
  <wgt id="314">7.58352e-12</wgt>
  <wgt id="315">7.58877e-12</wgt>
  <wgt id="316">7.57862e-12</wgt>
  <wgt id="317">7.60256e-12</wgt>
  <wgt id="318">7.59128e-12</wgt>
  <wgt id="319">7.57757e-12</wgt>
  <wgt id="320">7.60952e-12</wgt>
  <wgt id="321">7.57324e-12</wgt>
  <wgt id="322">7.56982e-12</wgt>
  <wgt id="323">7.60551e-12</wgt>
  <wgt id="324">7.56725e-12</wgt>
  <wgt id="325">7.60273e-12</wgt>
  <wgt id="326">7.56352e-12</wgt>
  <wgt id="327">7.61511e-12</wgt>
  <wgt id="328">7.54854e-12</wgt>
  <wgt id="329">7.60782e-12</wgt>
  <wgt id="330">7.80126e-12</wgt>
  <wgt id="331">7.38041e-12</wgt>
  <wgt id="332">7.5604e-12</wgt>
  <wgt id="333">7.58569e-12</wgt>
  <wgt id="334">7.42631e-12</wgt>
  <wgt id="335">7.78403e-12</wgt>
  <wgt id="336">7.33984e-12</wgt>
  <wgt id="337">7.88377e-12</wgt>
  <wgt id="338">7.66484e-12</wgt>
  <wgt id="339">7.51293e-12</wgt>
  <wgt id="340">7.63327e-12</wgt>
  <wgt id="341">7.46345e-12</wgt>
  <wgt id="342">7.57403e-12</wgt>
  <wgt id="343">7.5795e-12</wgt>
  <wgt id="344">7.53643e-12</wgt>
  <wgt id="345">7.64358e-12</wgt>
  <wgt id="346">7.44616e-12</wgt>
  <wgt id="347">7.74704e-12</wgt>
  <wgt id="348">7.59356e-12</wgt>
  <wgt id="349">7.60442e-12</wgt>
  <wgt id="350">7.55739e-12</wgt>
  <wgt id="351">7.65878e-12</wgt>
  <wgt id="352">7.49278e-12</wgt>
  <wgt id="353">7.82577e-12</wgt>
  <wgt id="354">7.51229e-12</wgt>
  <wgt id="355">7.63206e-12</wgt>
  <wgt id="356">7.54673e-12</wgt>
  <wgt id="357">7.62175e-12</wgt>
  <wgt id="358">7.58599e-12</wgt>
  <wgt id="359">7.57772e-12</wgt>
  <wgt id="360">7.58149e-12</wgt>
  <wgt id="361">7.56701e-12</wgt>
  <wgt id="362">7.6892e-12</wgt>
  <wgt id="363">7.67191e-12</wgt>
  <wgt id="364">7.64875e-12</wgt>
  <wgt id="365">7.62469e-12</wgt>
  <wgt id="366">7.5973e-12</wgt>
  <wgt id="367">7.53982e-12</wgt>
  <wgt id="368">7.50874e-12</wgt>
  <wgt id="369">7.47546e-12</wgt>
  <wgt id="370">7.56701e-12</wgt>
  <wgt id="371">7.60055e-12</wgt>
  <wgt id="372">7.582e-12</wgt>
  <wgt id="373">7.55458e-12</wgt>
  <wgt id="374">7.55016e-12</wgt>
  <wgt id="375">7.99114e-12</wgt>
  <wgt id="376">7.9921e-12</wgt>
  <wgt id="377">7.9899e-12</wgt>
  <wgt id="378">8.01966e-12</wgt>
  <wgt id="379">7.96259e-12</wgt>
  <wgt id="380">8.01262e-12</wgt>
  <wgt id="381">7.98247e-12</wgt>
  <wgt id="382">8.03035e-12</wgt>
  <wgt id="383">7.95233e-12</wgt>
  <wgt id="384">7.99628e-12</wgt>
  <wgt id="385">7.98621e-12</wgt>
  <wgt id="386">8.02129e-12</wgt>
  <wgt id="387">7.97794e-12</wgt>
  <wgt id="388">7.98384e-12</wgt>
  <wgt id="389">7.99986e-12</wgt>
  <wgt id="390">8.01191e-12</wgt>
  <wgt id="391">7.9692e-12</wgt>
  <wgt id="392">7.93621e-12</wgt>
  <wgt id="393">8.02229e-12</wgt>
  <wgt id="394">8.00264e-12</wgt>
  <wgt id="395">7.9754e-12</wgt>
  <wgt id="396">7.99355e-12</wgt>
  <wgt id="397">7.98949e-12</wgt>
  <wgt id="398">7.95822e-12</wgt>
  <wgt id="399">8.02286e-12</wgt>
  <wgt id="400">7.97849e-12</wgt>
  <wgt id="401">8.01912e-12</wgt>
  <wgt id="402">7.93089e-12</wgt>
  <wgt id="403">8.01563e-12</wgt>
  <wgt id="404">8.16114e-12</wgt>
  <wgt id="405">7.58002e-12</wgt>
  <wgt id="406">7.86886e-12</wgt>
  <wgt id="407">8.25468e-12</wgt>
  <wgt id="408">8.05387e-12</wgt>
  <wgt id="409">7.87038e-12</wgt>
  <wgt id="410">7.78948e-12</wgt>
  <wgt id="411">8.08323e-12</wgt>
  <wgt id="412">7.97838e-12</wgt>
  <wgt id="413">8.00909e-12</wgt>
  <wgt id="414">7.91057e-12</wgt>
  <wgt id="415">8.05354e-12</wgt>
  <wgt id="416">8.18031e-12</wgt>
  <wgt id="417">7.72915e-12</wgt>
  <wgt id="418">8.00092e-12</wgt>
  <wgt id="419">7.93894e-12</wgt>
  <wgt id="420">8.08407e-12</wgt>
  <wgt id="421">7.94291e-12</wgt>
  <wgt id="422">7.98818e-12</wgt>
  <wgt id="423">7.99456e-12</wgt>
  <wgt id="424">8.12703e-12</wgt>
  <wgt id="425">7.90829e-12</wgt>
  <wgt id="426">7.99114e-12</wgt>
  <wgt id="427">7.93585e-12</wgt>
  <wgt id="428">8.16389e-12</wgt>
  <wgt id="429">8.0524e-12</wgt>
  <wgt id="430">8.26259e-12</wgt>
  <wgt id="431">8.22073e-12</wgt>
  <wgt id="432">8.18087e-12</wgt>
  <wgt id="433">8.14219e-12</wgt>
  <wgt id="434">8.09592e-12</wgt>
  <wgt id="435">7.99776e-12</wgt>
  <wgt id="436">7.94696e-12</wgt>
  <wgt id="437">7.89879e-12</wgt>
  <wgt id="438">8.0524e-12</wgt>
  <wgt id="439">8.07896e-12</wgt>
  <wgt id="440">8.06345e-12</wgt>
  <wgt id="441">8.04393e-12</wgt>
  <wgt id="442">8.03677e-12</wgt>
  <wgt id="443">7.86611e-12</wgt>
  <wgt id="444">7.9016e-12</wgt>
  <wgt id="445">7.83613e-12</wgt>
  <wgt id="446">7.81888e-12</wgt>
  <wgt id="447">7.83939e-12</wgt>
  <wgt id="448">7.6723e-12</wgt>
  <wgt id="449">7.9774e-12</wgt>
  <wgt id="450">7.83314e-12</wgt>
  <wgt id="451">7.85529e-12</wgt>
  <wgt id="452">8.02683e-12</wgt>
  <wgt id="453">7.92861e-12</wgt>
  <wgt id="454">7.57055e-12</wgt>
  <wgt id="455">7.87488e-12</wgt>
  <wgt id="456">7.75687e-12</wgt>
  <wgt id="457">7.89442e-12</wgt>
  <wgt id="458">7.9483e-12</wgt>
  <wgt id="459">7.91397e-12</wgt>
  <wgt id="460">7.9068e-12</wgt>
  <wgt id="461">7.74059e-12</wgt>
  <wgt id="462">7.81069e-12</wgt>
  <wgt id="463">7.79089e-12</wgt>
  <wgt id="464">7.8285e-12</wgt>
  <wgt id="465">7.93737e-12</wgt>
  <wgt id="466">7.78819e-12</wgt>
  <wgt id="467">7.79945e-12</wgt>
  <wgt id="468">7.84714e-12</wgt>
  <wgt id="469">7.84791e-12</wgt>
  <wgt id="470">7.80294e-12</wgt>
  <wgt id="471">7.8064e-12</wgt>
  <wgt id="472">7.89731e-12</wgt>
  <wgt id="473">7.64527e-12</wgt>
  <wgt id="474">5.79e-12</wgt>
  <wgt id="475">6.15046e-12</wgt>
  <wgt id="476">5.67503e-12</wgt>
  <wgt id="477">5.66488e-12</wgt>
  <wgt id="478">5.8227e-12</wgt>
  <wgt id="479">5.71494e-12</wgt>
  <wgt id="480">5.96887e-12</wgt>
  <wgt id="481">5.64919e-12</wgt>
  <wgt id="482">5.56359e-12</wgt>
  <wgt id="483">5.64262e-12</wgt>
  <wgt id="484">6.19605e-12</wgt>
  <wgt id="485">5.80529e-12</wgt>
  <wgt id="486">5.89305e-12</wgt>
  <wgt id="487">5.87588e-12</wgt>
  <wgt id="488">5.86131e-12</wgt>
  <wgt id="489">5.58632e-12</wgt>
  <wgt id="490">5.62244e-12</wgt>
  <wgt id="491">5.72924e-12</wgt>
  <wgt id="492">5.61351e-12</wgt>
  <wgt id="493">5.59352e-12</wgt>
  <wgt id="494">5.6201e-12</wgt>
  <wgt id="495">5.88995e-12</wgt>
  <wgt id="496">5.59583e-12</wgt>
  <wgt id="497">5.58487e-12</wgt>
  <wgt id="498">5.86018e-12</wgt>
  <wgt id="499">5.6453e-12</wgt>
  <wgt id="500">5.68994e-12</wgt>
  <wgt id="501">6.03535e-12</wgt>
  <wgt id="502">5.63516e-12</wgt>
  <wgt id="503">5.77375e-12</wgt>
  <wgt id="504">5.80033e-12</wgt>
  <wgt id="505">5.82736e-12</wgt>
  <wgt id="506">5.87849e-12</wgt>
  <wgt id="507">5.72771e-12</wgt>
  <wgt id="508">5.88216e-12</wgt>
  <wgt id="509">5.73426e-12</wgt>
  <wgt id="510">5.92451e-12</wgt>
  <wgt id="511">5.66734e-12</wgt>
  <wgt id="512">5.85864e-12</wgt>
  <wgt id="513">5.99882e-12</wgt>
  <wgt id="514">5.74469e-12</wgt>
  <wgt id="515">5.71923e-12</wgt>
  <wgt id="516">5.94258e-12</wgt>
  <wgt id="517">5.91735e-12</wgt>
  <wgt id="518">5.93828e-12</wgt>
  <wgt id="519">5.65472e-12</wgt>
  <wgt id="520">5.82095e-12</wgt>
  <wgt id="521">5.99775e-12</wgt>
  <wgt id="522">6.00641e-12</wgt>
  <wgt id="523">5.90455e-12</wgt>
  <wgt id="524">5.89536e-12</wgt>
  <wgt id="525">5.93598e-12</wgt>
  <wgt id="526">5.78629e-12</wgt>
  <wgt id="527">5.89328e-12</wgt>
  <wgt id="528">5.78982e-12</wgt>
  <wgt id="529">5.71714e-12</wgt>
  <wgt id="530">5.82549e-12</wgt>
  <wgt id="531">5.71784e-12</wgt>
  <wgt id="532">6.09106e-12</wgt>
  <wgt id="533">5.44765e-12</wgt>
  <wgt id="534">5.79887e-12</wgt>
  <wgt id="535">5.88648e-12</wgt>
  <wgt id="536">5.79111e-12</wgt>
  <wgt id="537">5.81092e-12</wgt>
  <wgt id="538">5.88482e-12</wgt>
  <wgt id="539">5.66355e-12</wgt>
  <wgt id="540">5.72473e-12</wgt>
  <wgt id="541">5.68814e-12</wgt>
  <wgt id="542">5.66746e-12</wgt>
  <wgt id="543">5.78064e-12</wgt>
  <wgt id="544">6.06939e-12</wgt>
  <wgt id="545">5.71413e-12</wgt>
  <wgt id="546">5.7292e-12</wgt>
  <wgt id="547">5.62038e-12</wgt>
  <wgt id="548">5.55582e-12</wgt>
  <wgt id="549">5.70154e-12</wgt>
  <wgt id="550">5.80566e-12</wgt>
  <wgt id="551">5.85842e-12</wgt>
  <wgt id="552">5.73518e-12</wgt>
  <wgt id="553">5.77613e-12</wgt>
  <wgt id="554">6.21914e-12</wgt>
  <wgt id="555">5.94896e-12</wgt>
  <wgt id="556">5.62244e-12</wgt>
  <wgt id="557">5.87801e-12</wgt>
  <wgt id="558">5.60424e-12</wgt>
  <wgt id="559">5.72042e-12</wgt>
  <wgt id="560">6.2487e-12</wgt>
  <wgt id="561">5.65878e-12</wgt>
  <wgt id="562">5.86748e-12</wgt>
  <wgt id="563">5.64547e-12</wgt>
  <wgt id="564">5.78961e-12</wgt>
  <wgt id="565">5.6046e-12</wgt>
  <wgt id="566">5.85324e-12</wgt>
  <wgt id="567">5.70325e-12</wgt>
  <wgt id="568">5.79136e-12</wgt>
  <wgt id="569">5.84571e-12</wgt>
  <wgt id="570">5.65e-12</wgt>
  <wgt id="571">6.3995e-12</wgt>
  <wgt id="572">5.66529e-12</wgt>
  <wgt id="573">5.53531e-12</wgt>
  <wgt id="574">5.58934e-12</wgt>
  <wgt id="575">6.34343e-12</wgt>
  <wgt id="576">6.25002e-12</wgt>
  <wgt id="577">6.56183e-12</wgt>
  <wgt id="578">6.46574e-12</wgt>
  <wgt id="579">6.40932e-12</wgt>
  <wgt id="580">6.44162e-12</wgt>
  <wgt id="581">6.71885e-12</wgt>
  <wgt id="582">6.23313e-12</wgt>
  <wgt id="583">6.40328e-12</wgt>
  <wgt id="584">6.34799e-12</wgt>
  <wgt id="585">6.38717e-12</wgt>
  <wgt id="586">6.19914e-12</wgt>
  <wgt id="587">6.41499e-12</wgt>
  <wgt id="588">6.30278e-12</wgt>
  <wgt id="589">6.42032e-12</wgt>
  <wgt id="590">6.4404e-12</wgt>
  <wgt id="591">6.59288e-12</wgt>
  <wgt id="592">6.22598e-12</wgt>
  <wgt id="593">6.31269e-12</wgt>
  <wgt id="594">6.59261e-12</wgt>
  <wgt id="595">6.30179e-12</wgt>
  <wgt id="596">6.43126e-12</wgt>
  <wgt id="597">6.11819e-12</wgt>
  <wgt id="598">6.26904e-12</wgt>
  <wgt id="599">6.64719e-12</wgt>
  <wgt id="600">6.28398e-12</wgt>
  <wgt id="601">6.16419e-12</wgt>
  <wgt id="602">6.22615e-12</wgt>
  <wgt id="603">6.25731e-12</wgt>
  <wgt id="604">6.42512e-12</wgt>
  <wgt id="605">6.59856e-12</wgt>
  <wgt id="606">6.19088e-12</wgt>
  <wgt id="607">6.25702e-12</wgt>
  <wgt id="608">6.33057e-12</wgt>
  <wgt id="609">5.97839e-12</wgt>
  <wgt id="610">6.10066e-12</wgt>
  <wgt id="611">6.44064e-12</wgt>
  <wgt id="612">6.81248e-12</wgt>
  <wgt id="613">6.34976e-12</wgt>
  <wgt id="614">6.41999e-12</wgt>
  <wgt id="615">6.2182e-12</wgt>
  <wgt id="616">6.75158e-12</wgt>
  <wgt id="617">6.5573e-12</wgt>
  <wgt id="618">6.3692e-12</wgt>
  <wgt id="619">6.30584e-12</wgt>
  <wgt id="620">6.55761e-12</wgt>
  <wgt id="621">6.43401e-12</wgt>
  <wgt id="622">6.41499e-12</wgt>
  <wgt id="623">6.50491e-12</wgt>
  <wgt id="624">6.30436e-12</wgt>
  <wgt id="625">6.27097e-12</wgt>
  <wgt id="626">6.20669e-12</wgt>
  <wgt id="627">6.11959e-12</wgt>
  <wgt id="628">6.67661e-12</wgt>
  <wgt id="629">6.21045e-12</wgt>
  <wgt id="630">6.16972e-12</wgt>
  <wgt id="631">6.34747e-12</wgt>
  <wgt id="632">6.1612e-12</wgt>
  <wgt id="633">6.26551e-12</wgt>
  <wgt id="634">6.37022e-12</wgt>
  <wgt id="635">6.27974e-12</wgt>
  <wgt id="636">6.38237e-12</wgt>
  <wgt id="637">6.36247e-12</wgt>
  <wgt id="638">6.12493e-12</wgt>
  <wgt id="639">6.27598e-12</wgt>
  <wgt id="640">6.35757e-12</wgt>
  <wgt id="641">6.35903e-12</wgt>
  <wgt id="642">6.22209e-12</wgt>
  <wgt id="643">6.32094e-12</wgt>
  <wgt id="644">6.12987e-12</wgt>
  <wgt id="645">6.38194e-12</wgt>
  <wgt id="646">6.4646e-12</wgt>
  <wgt id="647">6.24211e-12</wgt>
  <wgt id="648">6.37062e-12</wgt>
  <wgt id="649">6.43718e-12</wgt>
  <wgt id="650">6.22924e-12</wgt>
  <wgt id="651">6.4073e-12</wgt>
  <wgt id="652">6.33062e-12</wgt>
  <wgt id="653">6.17939e-12</wgt>
  <wgt id="654">6.31472e-12</wgt>
  <wgt id="655">6.2134e-12</wgt>
  <wgt id="656">6.33714e-12</wgt>
  <wgt id="657">6.49558e-12</wgt>
  <wgt id="658">6.43678e-12</wgt>
  <wgt id="659">6.11411e-12</wgt>
  <wgt id="660">6.4613e-12</wgt>
  <wgt id="661">6.25179e-12</wgt>
  <wgt id="662">6.31916e-12</wgt>
  <wgt id="663">6.32676e-12</wgt>
  <wgt id="664">6.24348e-12</wgt>
  <wgt id="665">6.3209e-12</wgt>
  <wgt id="666">6.32455e-12</wgt>
  <wgt id="667">6.54002e-12</wgt>
  <wgt id="668">6.31406e-12</wgt>
  <wgt id="669">6.49908e-12</wgt>
  <wgt id="670">6.42315e-12</wgt>
  <wgt id="671">6.24749e-12</wgt>
  <wgt id="672">6.08015e-12</wgt>
  <wgt id="673">6.32487e-12</wgt>
  <wgt id="674">6.21547e-12</wgt>
  <wgt id="675">6.21584e-12</wgt>
  <wgt id="676">7.89149e-12</wgt>
  <wgt id="677">7.9987e-12</wgt>
  <wgt id="678">8.24629e-12</wgt>
  <wgt id="679">7.50314e-12</wgt>
  <wgt id="680">7.63071e-12</wgt>
  <wgt id="681">8.11235e-12</wgt>
  <wgt id="682">8.02165e-12</wgt>
  <wgt id="683">7.82414e-12</wgt>
  <wgt id="684">8.2291e-12</wgt>
  <wgt id="685">7.48599e-12</wgt>
  <wgt id="686">7.90002e-12</wgt>
  <wgt id="687">8.23677e-12</wgt>
  <wgt id="688">7.84908e-12</wgt>
  <wgt id="689">8.44741e-12</wgt>
  <wgt id="690">8.32574e-12</wgt>
  <wgt id="691">8.31549e-12</wgt>
  <wgt id="692">7.85794e-12</wgt>
  <wgt id="693">9.08119e-12</wgt>
  <wgt id="694">8.33162e-12</wgt>
  <wgt id="695">7.64016e-12</wgt>
  <wgt id="696">7.52398e-12</wgt>
  <wgt id="697">7.65476e-12</wgt>
  <wgt id="698">7.39709e-12</wgt>
  <wgt id="699">7.30915e-12</wgt>
  <wgt id="700">7.0228e-12</wgt>
  <wgt id="701">7.90834e-12</wgt>
  <wgt id="702">7.57373e-12</wgt>
  <wgt id="703">8.92682e-12</wgt>
  <wgt id="704">8.49046e-12</wgt>
  <wgt id="705">8.1875e-12</wgt>
  <wgt id="706">7.37969e-12</wgt>
  <wgt id="707">7.59703e-12</wgt>
  <wgt id="708">7.79827e-12</wgt>
  <wgt id="709">7.76248e-12</wgt>
  <wgt id="710">7.10684e-12</wgt>
  <wgt id="711">7.87929e-12</wgt>
  <wgt id="712">7.78832e-12</wgt>
  <wgt id="713">8.43131e-12</wgt>
  <wgt id="714">7.84817e-12</wgt>
  <wgt id="715">7.81302e-12</wgt>
  <wgt id="716">7.60893e-12</wgt>
  <wgt id="717">7.5841e-12</wgt>
  <wgt id="718">7.77651e-12</wgt>
  <wgt id="719">7.23063e-12</wgt>
  <wgt id="720">7.48529e-12</wgt>
  <wgt id="721">7.47095e-12</wgt>
  <wgt id="722">7.1444e-12</wgt>
  <wgt id="723">8.33601e-12</wgt>
  <wgt id="724">8.20321e-12</wgt>
  <wgt id="725">8.33166e-12</wgt>
  <wgt id="726">7.9767e-12</wgt>
  <wgt id="727">7.71432e-12</wgt>
  <wgt id="728">7.80621e-12</wgt>
  <wgt id="729">7.1969e-12</wgt>
  <wgt id="730">8.38507e-12</wgt>
  <wgt id="731">7.81394e-12</wgt>
  <wgt id="732">8.59257e-12</wgt>
  <wgt id="733">7.88364e-12</wgt>
  <wgt id="734">8.07185e-12</wgt>
  <wgt id="735">7.85519e-12</wgt>
  <wgt id="736">7.7875e-12</wgt>
  <wgt id="737">8.02067e-12</wgt>
  <wgt id="738">7.58783e-12</wgt>
  <wgt id="739">7.88593e-12</wgt>
  <wgt id="740">8.70836e-12</wgt>
  <wgt id="741">7.04072e-12</wgt>
  <wgt id="742">7.77795e-12</wgt>
  <wgt id="743">7.64748e-12</wgt>
  <wgt id="744">7.73694e-12</wgt>
  <wgt id="745">8.18329e-12</wgt>
  <wgt id="746">8.2827e-12</wgt>
  <wgt id="747">7.28152e-12</wgt>
  <wgt id="748">7.77067e-12</wgt>
  <wgt id="749">8.32437e-12</wgt>
  <wgt id="750">7.87889e-12</wgt>
  <wgt id="751">8.16795e-12</wgt>
  <wgt id="752">7.29904e-12</wgt>
  <wgt id="753">7.52854e-12</wgt>
  <wgt id="754">8.12715e-12</wgt>
  <wgt id="755">7.93859e-12</wgt>
  <wgt id="756">7.9318e-12</wgt>
  <wgt id="757">7.3446e-12</wgt>
  <wgt id="758">7.98706e-12</wgt>
  <wgt id="759">7.89867e-12</wgt>
  <wgt id="760">8.0299e-12</wgt>
  <wgt id="761">8.30227e-12</wgt>
  <wgt id="762">8.30904e-12</wgt>
  <wgt id="763">7.90472e-12</wgt>
  <wgt id="764">8.16638e-12</wgt>
  <wgt id="765">7.96678e-12</wgt>
  <wgt id="766">7.86462e-12</wgt>
  <wgt id="767">8.06782e-12</wgt>
  <wgt id="768">7.5078e-12</wgt>
  <wgt id="769">8.33392e-12</wgt>
  <wgt id="770">7.68708e-12</wgt>
  <wgt id="771">9.20996e-12</wgt>
  <wgt id="772">7.43996e-12</wgt>
  <wgt id="773">7.8585e-12</wgt>
  <wgt id="774">7.14067e-12</wgt>
  <wgt id="775">8.24933e-12</wgt>
  <wgt id="776">8.59795e-12</wgt>
  <wgt id="777">7.64199e-12</wgt>
  <wgt id="778">5.92643e-12</wgt>
  <wgt id="779">5.05612e-12</wgt>
  <wgt id="780">4.27522e-12</wgt>
  <wgt id="781">5.94765e-12</wgt>
  <wgt id="782">6.27155e-12</wgt>
  <wgt id="783">5.15046e-12</wgt>
  <wgt id="784">5.27877e-12</wgt>
  <wgt id="785">7.09004e-12</wgt>
  <wgt id="786">4.65023e-12</wgt>
  <wgt id="787">6.62132e-12</wgt>
  <wgt id="788">3.97242e-12</wgt>
  <wgt id="789">4.82143e-12</wgt>
  <wgt id="790">4.63162e-12</wgt>
  <wgt id="791">5.51719e-12</wgt>
  <wgt id="792">7.59169e-12</wgt>
  <wgt id="793">5.74353e-12</wgt>
  <wgt id="794">4.71401e-12</wgt>
  <wgt id="795">6.75775e-12</wgt>
  <wgt id="796">7.66736e-12</wgt>
  <wgt id="797">6.728e-12</wgt>
  <wgt id="798">5.53595e-12</wgt>
  <wgt id="799">6.64995e-12</wgt>
  <wgt id="800">4.86689e-12</wgt>
  <wgt id="801">5.59939e-12</wgt>
  <wgt id="802">4.75627e-12</wgt>
  <wgt id="803">7.65424e-12</wgt>
  <wgt id="804">6.71471e-12</wgt>
  <wgt id="805">6.84003e-12</wgt>
  <wgt id="806">6.67068e-12</wgt>
  <wgt id="807">5.69277e-12</wgt>
  <wgt id="808">5.79142e-12</wgt>
  <wgt id="809">5.48337e-12</wgt>
  <wgt id="810">6.75254e-12</wgt>
  <wgt id="811">6.42338e-12</wgt>
  <wgt id="812">4.67869e-12</wgt>
  <wgt id="813">4.73801e-12</wgt>
  <wgt id="814">5.02849e-12</wgt>
  <wgt id="815">5.07462e-12</wgt>
  <wgt id="816">4.5163e-12</wgt>
  <wgt id="817">6.23796e-12</wgt>
  <wgt id="818">5.77939e-12</wgt>
  <wgt id="819">5.07468e-12</wgt>
  <wgt id="820">5.94756e-12</wgt>
  <wgt id="821">6.70094e-12</wgt>
  <wgt id="822">5.11041e-12</wgt>
  <wgt id="823">6.71576e-12</wgt>
  <wgt id="824">7.84092e-12</wgt>
  <wgt id="825">4.54275e-12</wgt>
  <wgt id="826">6.15167e-12</wgt>
  <wgt id="827">3.8259e-12</wgt>
  <wgt id="828">7.56967e-12</wgt>
  <wgt id="829">6.11045e-12</wgt>
  <wgt id="830">4.32098e-12</wgt>
  <wgt id="831">6.31119e-12</wgt>
  <wgt id="832">9.45272e-12</wgt>
  <wgt id="833">5.61888e-12</wgt>
  <wgt id="834">8.86337e-12</wgt>
  <wgt id="835">4.87783e-12</wgt>
  <wgt id="836">5.95495e-12</wgt>
  <wgt id="837">6.61931e-12</wgt>
  <wgt id="838">5.68517e-12</wgt>
  <wgt id="839">6.28345e-12</wgt>
  <wgt id="840">5.62529e-12</wgt>
  <wgt id="841">7.09362e-12</wgt>
  <wgt id="842">5.45296e-12</wgt>
  <wgt id="843">5.76825e-12</wgt>
  <wgt id="844">6.12669e-12</wgt>
  <wgt id="845">8.0204e-12</wgt>
  <wgt id="846">5.50487e-12</wgt>
  <wgt id="847">5.88281e-12</wgt>
  <wgt id="848">5.26555e-12</wgt>
  <wgt id="849">6.05516e-12</wgt>
  <wgt id="850">7.50759e-12</wgt>
  <wgt id="851">6.44246e-12</wgt>
  <wgt id="852">5.20116e-12</wgt>
  <wgt id="853">6.41192e-12</wgt>
  <wgt id="854">7.08819e-12</wgt>
  <wgt id="855">6.71955e-12</wgt>
  <wgt id="856">4.42925e-12</wgt>
  <wgt id="857">5.98538e-12</wgt>
  <wgt id="858">5.87534e-12</wgt>
  <wgt id="859">5.53742e-12</wgt>
  <wgt id="860">6.2415e-12</wgt>
  <wgt id="861">5.33773e-12</wgt>
  <wgt id="862">6.01823e-12</wgt>
  <wgt id="863">6.19371e-12</wgt>
  <wgt id="864">6.22586e-12</wgt>
  <wgt id="865">8.23404e-12</wgt>
  <wgt id="866">9.00516e-12</wgt>
  <wgt id="867">5.97765e-12</wgt>
  <wgt id="868">5.83075e-12</wgt>
  <wgt id="869">4.73237e-12</wgt>
  <wgt id="870">4.97402e-12</wgt>
  <wgt id="871">4.83826e-12</wgt>
  <wgt id="872">6.89408e-12</wgt>
  <wgt id="873">4.96516e-12</wgt>
  <wgt id="874">6.17471e-12</wgt>
  <wgt id="875">5.1967e-12</wgt>
  <wgt id="876">6.9044e-12</wgt>
  <wgt id="877">6.67158e-12</wgt>
  <wgt id="878">5.21829e-12</wgt>
  <wgt id="879">7.89149e-12</wgt>
  <wgt id="880">7.9987e-12</wgt>
  <wgt id="881">8.24629e-12</wgt>
  <wgt id="882">7.50314e-12</wgt>
  <wgt id="883">7.63071e-12</wgt>
  <wgt id="884">8.11235e-12</wgt>
  <wgt id="885">8.02165e-12</wgt>
  <wgt id="886">7.82414e-12</wgt>
  <wgt id="887">8.2291e-12</wgt>
  <wgt id="888">7.48599e-12</wgt>
  <wgt id="889">7.90002e-12</wgt>
  <wgt id="890">8.23677e-12</wgt>
  <wgt id="891">7.84908e-12</wgt>
  <wgt id="892">8.44741e-12</wgt>
  <wgt id="893">8.32574e-12</wgt>
  <wgt id="894">8.31549e-12</wgt>
  <wgt id="895">7.85794e-12</wgt>
  <wgt id="896">9.08119e-12</wgt>
  <wgt id="897">8.33162e-12</wgt>
  <wgt id="898">7.64016e-12</wgt>
  <wgt id="899">7.52398e-12</wgt>
  <wgt id="900">7.65476e-12</wgt>
  <wgt id="901">7.39709e-12</wgt>
  <wgt id="902">7.30915e-12</wgt>
  <wgt id="903">7.0228e-12</wgt>
  <wgt id="904">7.90834e-12</wgt>
  <wgt id="905">7.57373e-12</wgt>
  <wgt id="906">8.92682e-12</wgt>
  <wgt id="907">8.49046e-12</wgt>
  <wgt id="908">8.1875e-12</wgt>
  <wgt id="909">7.37969e-12</wgt>
  <wgt id="910">7.59703e-12</wgt>
  <wgt id="911">7.79827e-12</wgt>
  <wgt id="912">7.76248e-12</wgt>
  <wgt id="913">7.10684e-12</wgt>
  <wgt id="914">7.87929e-12</wgt>
  <wgt id="915">7.78832e-12</wgt>
  <wgt id="916">8.43131e-12</wgt>
  <wgt id="917">7.84817e-12</wgt>
  <wgt id="918">7.81302e-12</wgt>
  <wgt id="919">7.60893e-12</wgt>
  <wgt id="920">7.5841e-12</wgt>
  <wgt id="921">7.77651e-12</wgt>
  <wgt id="922">7.23063e-12</wgt>
  <wgt id="923">7.48529e-12</wgt>
  <wgt id="924">7.47095e-12</wgt>
  <wgt id="925">7.1444e-12</wgt>
  <wgt id="926">8.33601e-12</wgt>
  <wgt id="927">8.20321e-12</wgt>
  <wgt id="928">8.33166e-12</wgt>
  <wgt id="929">7.9767e-12</wgt>
  <wgt id="930">7.71432e-12</wgt>
  <wgt id="931">7.80621e-12</wgt>
  <wgt id="932">7.1969e-12</wgt>
  <wgt id="933">8.38507e-12</wgt>
  <wgt id="934">7.81394e-12</wgt>
  <wgt id="935">8.59257e-12</wgt>
  <wgt id="936">7.88364e-12</wgt>
  <wgt id="937">8.07185e-12</wgt>
  <wgt id="938">7.85519e-12</wgt>
  <wgt id="939">7.7875e-12</wgt>
  <wgt id="940">8.02067e-12</wgt>
  <wgt id="941">7.58783e-12</wgt>
  <wgt id="942">7.88593e-12</wgt>
  <wgt id="943">8.70836e-12</wgt>
  <wgt id="944">7.04072e-12</wgt>
  <wgt id="945">7.77795e-12</wgt>
  <wgt id="946">7.64748e-12</wgt>
  <wgt id="947">7.73694e-12</wgt>
  <wgt id="948">8.18329e-12</wgt>
  <wgt id="949">8.2827e-12</wgt>
  <wgt id="950">7.28152e-12</wgt>
  <wgt id="951">7.77067e-12</wgt>
  <wgt id="952">8.32437e-12</wgt>
  <wgt id="953">7.87889e-12</wgt>
  <wgt id="954">8.16795e-12</wgt>
  <wgt id="955">7.29904e-12</wgt>
  <wgt id="956">7.52854e-12</wgt>
  <wgt id="957">8.12715e-12</wgt>
  <wgt id="958">7.93859e-12</wgt>
  <wgt id="959">7.9318e-12</wgt>
  <wgt id="960">7.3446e-12</wgt>
  <wgt id="961">7.98706e-12</wgt>
  <wgt id="962">7.89867e-12</wgt>
  <wgt id="963">8.0299e-12</wgt>
  <wgt id="964">8.30227e-12</wgt>
  <wgt id="965">8.30904e-12</wgt>
  <wgt id="966">7.90472e-12</wgt>
  <wgt id="967">8.16638e-12</wgt>
  <wgt id="968">7.96678e-12</wgt>
  <wgt id="969">7.86462e-12</wgt>
  <wgt id="970">8.06782e-12</wgt>
  <wgt id="971">7.5078e-12</wgt>
  <wgt id="972">8.33392e-12</wgt>
  <wgt id="973">7.68708e-12</wgt>
  <wgt id="974">9.20996e-12</wgt>
  <wgt id="975">7.43996e-12</wgt>
  <wgt id="976">7.8585e-12</wgt>
  <wgt id="977">7.14067e-12</wgt>
  <wgt id="978">8.24933e-12</wgt>
  <wgt id="979">8.59795e-12</wgt>
  <wgt id="980">7.9047e-12</wgt>
  <wgt id="981">7.91889e-12</wgt>
  <wgt id="982">7.67344e-12</wgt>
</rwgt>
</event>
<event>
 5   1  0.5790000E-11  0.2160334E+04  0.7818608E-02  0.7763977E-01
       21   -1    0    0  502  501  0.00000000000E+00  0.00000000000E+00  0.17470614779E+04  0.17470614779E+04  0.00000000000E+00 0.  1.
       21   -1    0    0  501  502 -0.00000000000E+00 -0.00000000000E+00 -0.66784178441E+03  0.66784178441E+03  0.00000000000E+00 0. -1.
       39    2    1    2    0    0  0.00000000000E+00  0.00000000000E+00  0.10792196935E+04  0.24149032623E+04  0.21603339139E+04 0.  0.
       25    1    3    3    0    0 -0.91509832997E+03  0.41038845980E+03  0.11349210677E+03  0.10170197145E+04  0.12500000000E+03 0.  0.
       25    1    3    3    0    0  0.91509832997E+03 -0.41038845980E+03  0.96572758675E+03  0.13978835478E+04  0.12500000000E+03 0.  0.
<mgrwt>
<rscale>  0 0.21603339E+04</rscale>
<asrwt>0</asrwt>
<pdfrwt beam="1">  1       21 0.26877869E+00 0.21603339E+04</pdfrwt>
<pdfrwt beam="2">  1       21 0.10274489E+00 0.21603339E+04</pdfrwt>
<totfact> 0.15208406E+01</totfact>
</mgrwt>
<rwgt>
  <wgt id="1">5.79e-12</wgt>
  <wgt id="2">5.04021e-12</wgt>
  <wgt id="3">6.72043e-12</wgt>
  <wgt id="4">5.79e-12</wgt>
  <wgt id="5">5.04021e-12</wgt>
  <wgt id="6">6.72043e-12</wgt>
  <wgt id="7">5.79e-12</wgt>
  <wgt id="8">5.04021e-12</wgt>
  <wgt id="9">6.72043e-12</wgt>
  <wgt id="10">6.01302e-12</wgt>
  <wgt id="11">6.00967e-12</wgt>
  <wgt id="12">6.00356e-12</wgt>
  <wgt id="13">5.99675e-12</wgt>
  <wgt id="14">6.03489e-12</wgt>
  <wgt id="15">6.02337e-12</wgt>
  <wgt id="16">6.00418e-12</wgt>
  <wgt id="17">6.03478e-12</wgt>
  <wgt id="18">6.00341e-12</wgt>
  <wgt id="19">6.02876e-12</wgt>
  <wgt id="20">6.00322e-12</wgt>
  <wgt id="21">5.96782e-12</wgt>
  <wgt id="22">5.97683e-12</wgt>
  <wgt id="23">5.93992e-12</wgt>
  <wgt id="24">5.97536e-12</wgt>
  <wgt id="25">5.99312e-12</wgt>
  <wgt id="26">6.03126e-12</wgt>
  <wgt id="27">6.00672e-12</wgt>
  <wgt id="28">5.97909e-12</wgt>
  <wgt id="29">6.01645e-12</wgt>
  <wgt id="30">5.97658e-12</wgt>
  <wgt id="31">6.03859e-12</wgt>
  <wgt id="32">5.98608e-12</wgt>
  <wgt id="33">6.02349e-12</wgt>
  <wgt id="34">5.98172e-12</wgt>
  <wgt id="35">5.99202e-12</wgt>
  <wgt id="36">6.03678e-12</wgt>
  <wgt id="37">5.99599e-12</wgt>
  <wgt id="38">5.99266e-12</wgt>
  <wgt id="39">6.09762e-12</wgt>
  <wgt id="40">6.01683e-12</wgt>
  <wgt id="41">6.01001e-12</wgt>
  <wgt id="42">6.02081e-12</wgt>
  <wgt id="43">6.01183e-12</wgt>
  <wgt id="44">6.02364e-12</wgt>
  <wgt id="45">6.02327e-12</wgt>
  <wgt id="46">6.00534e-12</wgt>
  <wgt id="47">6.03201e-12</wgt>
  <wgt id="48">6.02109e-12</wgt>
  <wgt id="49">5.98791e-12</wgt>
  <wgt id="50">5.9964e-12</wgt>
  <wgt id="51">6.00253e-12</wgt>
  <wgt id="52">6.02841e-12</wgt>
  <wgt id="53">6.00767e-12</wgt>
  <wgt id="54">6.02105e-12</wgt>
  <wgt id="55">6.01263e-12</wgt>
  <wgt id="56">6.02791e-12</wgt>
  <wgt id="57">6.01372e-12</wgt>
  <wgt id="58">5.99617e-12</wgt>
  <wgt id="59">6.00559e-12</wgt>
  <wgt id="60">6.00667e-12</wgt>
  <wgt id="61">5.97642e-12</wgt>
  <wgt id="62">5.99126e-12</wgt>
  <wgt id="63">6.00397e-12</wgt>
  <wgt id="64">6.01285e-12</wgt>
  <wgt id="65">6.01508e-12</wgt>
  <wgt id="66">6.00809e-12</wgt>
  <wgt id="67">5.98444e-12</wgt>
  <wgt id="68">6.01199e-12</wgt>
  <wgt id="69">6.01186e-12</wgt>
  <wgt id="70">6.01242e-12</wgt>
  <wgt id="71">6.00882e-12</wgt>
  <wgt id="72">5.99036e-12</wgt>
  <wgt id="73">6.02653e-12</wgt>
  <wgt id="74">6.01918e-12</wgt>
  <wgt id="75">6.0095e-12</wgt>
  <wgt id="76">6.03407e-12</wgt>
  <wgt id="77">6.00832e-12</wgt>
  <wgt id="78">6.00935e-12</wgt>
  <wgt id="79">6.02924e-12</wgt>
  <wgt id="80">5.98291e-12</wgt>
  <wgt id="81">6.01175e-12</wgt>
  <wgt id="82">6.01469e-12</wgt>
  <wgt id="83">5.98809e-12</wgt>
  <wgt id="84">6.00459e-12</wgt>
  <wgt id="85">5.9968e-12</wgt>
  <wgt id="86">6.03149e-12</wgt>
  <wgt id="87">5.97547e-12</wgt>
  <wgt id="88">6.02098e-12</wgt>
  <wgt id="89">6.01786e-12</wgt>
  <wgt id="90">6.02961e-12</wgt>
  <wgt id="91">6.01971e-12</wgt>
  <wgt id="92">6.02551e-12</wgt>
  <wgt id="93">6.01955e-12</wgt>
  <wgt id="94">6.00551e-12</wgt>
  <wgt id="95">6.02874e-12</wgt>
  <wgt id="96">6.02073e-12</wgt>
  <wgt id="97">5.99752e-12</wgt>
  <wgt id="98">6.01458e-12</wgt>
  <wgt id="99">5.99978e-12</wgt>
  <wgt id="100">6.02448e-12</wgt>
  <wgt id="101">6.01433e-12</wgt>
  <wgt id="102">6.0092e-12</wgt>
  <wgt id="103">6.02547e-12</wgt>
  <wgt id="104">6.00708e-12</wgt>
  <wgt id="105">6.0224e-12</wgt>
  <wgt id="106">6.00212e-12</wgt>
  <wgt id="107">6.03612e-12</wgt>
  <wgt id="108">6.00436e-12</wgt>
  <wgt id="109">6.01816e-12</wgt>
  <wgt id="110">6.01142e-12</wgt>
  <wgt id="111">6.04841e-12</wgt>
  <wgt id="112">6.04886e-12</wgt>
  <wgt id="113">8.22031e-12</wgt>
  <wgt id="114">8.14304e-12</wgt>
  <wgt id="115">8.005e-12</wgt>
  <wgt id="116">1.0863e-11</wgt>
  <wgt id="117">6.60621e-12</wgt>
  <wgt id="118">6.6282e-12</wgt>
  <wgt id="119">6.59366e-12</wgt>
  <wgt id="120">6.60673e-12</wgt>
  <wgt id="121">6.60585e-12</wgt>
  <wgt id="122">6.59486e-12</wgt>
  <wgt id="123">6.62176e-12</wgt>
  <wgt id="124">6.59684e-12</wgt>
  <wgt id="125">6.61214e-12</wgt>
  <wgt id="126">6.61603e-12</wgt>
  <wgt id="127">6.59963e-12</wgt>
  <wgt id="128">6.62655e-12</wgt>
  <wgt id="129">6.58593e-12</wgt>
  <wgt id="130">6.6411e-12</wgt>
  <wgt id="131">6.57011e-12</wgt>
  <wgt id="132">6.43407e-12</wgt>
  <wgt id="133">6.80964e-12</wgt>
  <wgt id="134">6.53754e-12</wgt>
  <wgt id="135">6.65989e-12</wgt>
  <wgt id="136">6.69433e-12</wgt>
  <wgt id="137">6.49989e-12</wgt>
  <wgt id="138">6.87061e-12</wgt>
  <wgt id="139">6.35198e-12</wgt>
  <wgt id="140">6.56708e-12</wgt>
  <wgt id="141">6.63643e-12</wgt>
  <wgt id="142">6.60588e-12</wgt>
  <wgt id="143">6.61999e-12</wgt>
  <wgt id="144">6.39811e-12</wgt>
  <wgt id="145">6.80205e-12</wgt>
  <wgt id="146">6.67153e-12</wgt>
  <wgt id="147">6.55371e-12</wgt>
  <wgt id="148">6.62746e-12</wgt>
  <wgt id="149">6.60468e-12</wgt>
  <wgt id="150">6.66132e-12</wgt>
  <wgt id="151">6.58036e-12</wgt>
  <wgt id="152">6.60839e-12</wgt>
  <wgt id="153">6.60538e-12</wgt>
  <wgt id="154">6.64531e-12</wgt>
  <wgt id="155">6.55424e-12</wgt>
  <wgt id="156">6.7618e-12</wgt>
  <wgt id="157">6.45052e-12</wgt>
  <wgt id="158">7.94185e-12</wgt>
  <wgt id="159">7.9751e-12</wgt>
  <wgt id="160">7.9149e-12</wgt>
  <wgt id="161">7.92305e-12</wgt>
  <wgt id="162">7.96262e-12</wgt>
  <wgt id="163">7.9335e-12</wgt>
  <wgt id="164">7.95386e-12</wgt>
  <wgt id="165">7.94492e-12</wgt>
  <wgt id="166">7.9394e-12</wgt>
  <wgt id="167">7.936e-12</wgt>
  <wgt id="168">7.94983e-12</wgt>
  <wgt id="169">7.90798e-12</wgt>
  <wgt id="170">7.96283e-12</wgt>
  <wgt id="171">7.93489e-12</wgt>
  <wgt id="172">7.95133e-12</wgt>
  <wgt id="173">7.9356e-12</wgt>
  <wgt id="174">7.94383e-12</wgt>
  <wgt id="175">7.72358e-12</wgt>
  <wgt id="176">8.22612e-12</wgt>
  <wgt id="177">7.97984e-12</wgt>
  <wgt id="178">7.90682e-12</wgt>
  <wgt id="179">8.28951e-12</wgt>
  <wgt id="180">7.39686e-12</wgt>
  <wgt id="181">7.70577e-12</wgt>
  <wgt id="182">8.09812e-12</wgt>
  <wgt id="183">7.79802e-12</wgt>
  <wgt id="184">8.01299e-12</wgt>
  <wgt id="185">7.86867e-12</wgt>
  <wgt id="186">8.02887e-12</wgt>
  <wgt id="187">7.86385e-12</wgt>
  <wgt id="188">8.08009e-12</wgt>
  <wgt id="189">7.88811e-12</wgt>
  <wgt id="190">7.96356e-12</wgt>
  <wgt id="191">7.96563e-12</wgt>
  <wgt id="192">7.9276e-12</wgt>
  <wgt id="193">8.05752e-12</wgt>
  <wgt id="194">7.88395e-12</wgt>
  <wgt id="195">7.73032e-12</wgt>
  <wgt id="196">8.30901e-12</wgt>
  <wgt id="197">7.98122e-12</wgt>
  <wgt id="198">7.93225e-12</wgt>
  <wgt id="199">7.94185e-12</wgt>
  <wgt id="200">8.01168e-12</wgt>
  <wgt id="201">7.98688e-12</wgt>
  <wgt id="202">7.96305e-12</wgt>
  <wgt id="203">7.92763e-12</wgt>
  <wgt id="204">7.91049e-12</wgt>
  <wgt id="205">7.89614e-12</wgt>
  <wgt id="206">7.75678e-12</wgt>
  <wgt id="207">7.80225e-12</wgt>
  <wgt id="208">7.71187e-12</wgt>
  <wgt id="209">7.77785e-12</wgt>
  <wgt id="210">7.7415e-12</wgt>
  <wgt id="211">7.75448e-12</wgt>
  <wgt id="212">7.75851e-12</wgt>
  <wgt id="213">7.75609e-12</wgt>
  <wgt id="214">7.75782e-12</wgt>
  <wgt id="215">7.76186e-12</wgt>
  <wgt id="216">7.75319e-12</wgt>
  <wgt id="217">7.77596e-12</wgt>
  <wgt id="218">7.74206e-12</wgt>
  <wgt id="219">7.74604e-12</wgt>
  <wgt id="220">7.76327e-12</wgt>
  <wgt id="221">7.75644e-12</wgt>
  <wgt id="222">7.75669e-12</wgt>
  <wgt id="223">7.34911e-12</wgt>
  <wgt id="224">8.12874e-12</wgt>
  <wgt id="225">7.66651e-12</wgt>
  <wgt id="226">7.87086e-12</wgt>
  <wgt id="227">7.68564e-12</wgt>
  <wgt id="228">7.78801e-12</wgt>
  <wgt id="229">7.65157e-12</wgt>
  <wgt id="230">7.80898e-12</wgt>
  <wgt id="231">7.9879e-12</wgt>
  <wgt id="232">7.56685e-12</wgt>
  <wgt id="233">7.71462e-12</wgt>
  <wgt id="234">7.82492e-12</wgt>
  <wgt id="235">7.5473e-12</wgt>
  <wgt id="236">7.93915e-12</wgt>
  <wgt id="237">7.62542e-12</wgt>
  <wgt id="238">7.80102e-12</wgt>
  <wgt id="239">7.70155e-12</wgt>
  <wgt id="240">7.85627e-12</wgt>
  <wgt id="241">7.67507e-12</wgt>
  <wgt id="242">7.85413e-12</wgt>
  <wgt id="243">7.85466e-12</wgt>
  <wgt id="244">7.7833e-12</wgt>
  <wgt id="245">7.7519e-12</wgt>
  <wgt id="246">7.80782e-12</wgt>
  <wgt id="247">7.75678e-12</wgt>
  <wgt id="248">7.82899e-12</wgt>
  <wgt id="249">7.80295e-12</wgt>
  <wgt id="250">7.77722e-12</wgt>
  <wgt id="251">7.74037e-12</wgt>
  <wgt id="252">7.72246e-12</wgt>
  <wgt id="253">7.70962e-12</wgt>
  <wgt id="254">7.54012e-12</wgt>
  <wgt id="255">7.54691e-12</wgt>
  <wgt id="256">7.53262e-12</wgt>
  <wgt id="257">7.54608e-12</wgt>
  <wgt id="258">7.53571e-12</wgt>
  <wgt id="259">7.59012e-12</wgt>
  <wgt id="260">7.49172e-12</wgt>
  <wgt id="261">7.54925e-12</wgt>
  <wgt id="262">7.52926e-12</wgt>
  <wgt id="263">7.5362e-12</wgt>
  <wgt id="264">7.54456e-12</wgt>
  <wgt id="265">7.53189e-12</wgt>
  <wgt id="266">7.55639e-12</wgt>
  <wgt id="267">7.54243e-12</wgt>
  <wgt id="268">7.5367e-12</wgt>
  <wgt id="269">7.56206e-12</wgt>
  <wgt id="270">7.52517e-12</wgt>
  <wgt id="271">7.52379e-12</wgt>
  <wgt id="272">7.55817e-12</wgt>
  <wgt id="273">7.51937e-12</wgt>
  <wgt id="274">7.55577e-12</wgt>
  <wgt id="275">7.50424e-12</wgt>
  <wgt id="276">7.57714e-12</wgt>
  <wgt id="277">7.49745e-12</wgt>
  <wgt id="278">7.57931e-12</wgt>
  <wgt id="279">7.40503e-12</wgt>
  <wgt id="280">7.70961e-12</wgt>
  <wgt id="281">7.50836e-12</wgt>
  <wgt id="282">7.544e-12</wgt>
  <wgt id="283">7.32177e-12</wgt>
  <wgt id="284">7.80988e-12</wgt>
  <wgt id="285">7.17622e-12</wgt>
  <wgt id="286">7.84285e-12</wgt>
  <wgt id="287">7.56439e-12</wgt>
  <wgt id="288">7.50896e-12</wgt>
  <wgt id="289">7.59415e-12</wgt>
  <wgt id="290">7.41694e-12</wgt>
  <wgt id="291">7.51699e-12</wgt>
  <wgt id="292">7.54341e-12</wgt>
  <wgt id="293">7.48105e-12</wgt>
  <wgt id="294">7.59859e-12</wgt>
  <wgt id="295">7.39545e-12</wgt>
  <wgt id="296">7.71665e-12</wgt>
  <wgt id="297">7.53479e-12</wgt>
  <wgt id="298">7.56934e-12</wgt>
  <wgt id="299">7.51651e-12</wgt>
  <wgt id="300">7.60252e-12</wgt>
  <wgt id="301">7.43029e-12</wgt>
  <wgt id="302">7.81215e-12</wgt>
  <wgt id="303">7.4784e-12</wgt>
  <wgt id="304">7.5752e-12</wgt>
  <wgt id="305">7.53199e-12</wgt>
  <wgt id="306">7.53907e-12</wgt>
  <wgt id="307">7.52415e-12</wgt>
  <wgt id="308">7.53854e-12</wgt>
  <wgt id="309">7.52741e-12</wgt>
  <wgt id="310">7.58354e-12</wgt>
  <wgt id="311">7.48403e-12</wgt>
  <wgt id="312">7.5391e-12</wgt>
  <wgt id="313">7.52427e-12</wgt>
  <wgt id="314">7.52788e-12</wgt>
  <wgt id="315">7.53561e-12</wgt>
  <wgt id="316">7.52397e-12</wgt>
  <wgt id="317">7.54926e-12</wgt>
  <wgt id="318">7.53697e-12</wgt>
  <wgt id="319">7.52285e-12</wgt>
  <wgt id="320">7.55512e-12</wgt>
  <wgt id="321">7.51891e-12</wgt>
  <wgt id="322">7.51252e-12</wgt>
  <wgt id="323">7.55437e-12</wgt>
  <wgt id="324">7.5156e-12</wgt>
  <wgt id="325">7.54597e-12</wgt>
  <wgt id="326">7.50267e-12</wgt>
  <wgt id="327">7.56927e-12</wgt>
  <wgt id="328">7.49268e-12</wgt>
  <wgt id="329">7.5542e-12</wgt>
  <wgt id="330">7.7412e-12</wgt>
  <wgt id="331">7.33226e-12</wgt>
  <wgt id="332">7.50559e-12</wgt>
  <wgt id="333">7.53386e-12</wgt>
  <wgt id="334">7.36254e-12</wgt>
  <wgt id="335">7.74277e-12</wgt>
  <wgt id="336">7.27e-12</wgt>
  <wgt id="337">7.85218e-12</wgt>
  <wgt id="338">7.61665e-12</wgt>
  <wgt id="339">7.45334e-12</wgt>
  <wgt id="340">7.58213e-12</wgt>
  <wgt id="341">7.40487e-12</wgt>
  <wgt id="342">7.51554e-12</wgt>
  <wgt id="343">7.52274e-12</wgt>
  <wgt id="344">7.47899e-12</wgt>
  <wgt id="345">7.59321e-12</wgt>
  <wgt id="346">7.38257e-12</wgt>
  <wgt id="347">7.70334e-12</wgt>
  <wgt id="348">7.52952e-12</wgt>
  <wgt id="349">7.55633e-12</wgt>
  <wgt id="350">7.50225e-12</wgt>
  <wgt id="351">7.60691e-12</wgt>
  <wgt id="352">7.41617e-12</wgt>
  <wgt id="353">7.80786e-12</wgt>
  <wgt id="354">7.44117e-12</wgt>
  <wgt id="355">7.58696e-12</wgt>
  <wgt id="356">7.54012e-12</wgt>
  <wgt id="357">7.55382e-12</wgt>
  <wgt id="358">7.53199e-12</wgt>
  <wgt id="359">7.55692e-12</wgt>
  <wgt id="360">7.61638e-12</wgt>
  <wgt id="361">7.56856e-12</wgt>
  <wgt id="362">7.70116e-12</wgt>
  <wgt id="363">7.6834e-12</wgt>
  <wgt id="364">7.65408e-12</wgt>
  <wgt id="365">7.62824e-12</wgt>
  <wgt id="366">7.60036e-12</wgt>
  <wgt id="367">7.54448e-12</wgt>
  <wgt id="368">7.51171e-12</wgt>
  <wgt id="369">7.47638e-12</wgt>
  <wgt id="370">7.56856e-12</wgt>
  <wgt id="371">7.60076e-12</wgt>
  <wgt id="372">7.5829e-12</wgt>
  <wgt id="373">7.55691e-12</wgt>
  <wgt id="374">7.55895e-12</wgt>
  <wgt id="375">8.26628e-12</wgt>
  <wgt id="376">8.26689e-12</wgt>
  <wgt id="377">8.26546e-12</wgt>
  <wgt id="378">8.29652e-12</wgt>
  <wgt id="379">8.2363e-12</wgt>
  <wgt id="380">8.28949e-12</wgt>
  <wgt id="381">8.25706e-12</wgt>
  <wgt id="382">8.30473e-12</wgt>
  <wgt id="383">8.22826e-12</wgt>
  <wgt id="384">8.27151e-12</wgt>
  <wgt id="385">8.26117e-12</wgt>
  <wgt id="386">8.29462e-12</wgt>
  <wgt id="387">8.25416e-12</wgt>
  <wgt id="388">8.25918e-12</wgt>
  <wgt id="389">8.27509e-12</wgt>
  <wgt id="390">8.28608e-12</wgt>
  <wgt id="391">8.24519e-12</wgt>
  <wgt id="392">8.20324e-12</wgt>
  <wgt id="393">8.30208e-12</wgt>
  <wgt id="394">8.27499e-12</wgt>
  <wgt id="395">8.2542e-12</wgt>
  <wgt id="396">8.2743e-12</wgt>
  <wgt id="397">8.26052e-12</wgt>
  <wgt id="398">8.24449e-12</wgt>
  <wgt id="399">8.28736e-12</wgt>
  <wgt id="400">8.25482e-12</wgt>
  <wgt id="401">8.29187e-12</wgt>
  <wgt id="402">8.19988e-12</wgt>
  <wgt id="403">8.30017e-12</wgt>
  <wgt id="404">8.46659e-12</wgt>
  <wgt id="405">7.7853e-12</wgt>
  <wgt id="406">8.12113e-12</wgt>
  <wgt id="407">8.5841e-12</wgt>
  <wgt id="408">8.34127e-12</wgt>
  <wgt id="409">8.12523e-12</wgt>
  <wgt id="410">8.02945e-12</wgt>
  <wgt id="411">8.37763e-12</wgt>
  <wgt id="412">8.25023e-12</wgt>
  <wgt id="413">8.28965e-12</wgt>
  <wgt id="414">8.17152e-12</wgt>
  <wgt id="415">8.33985e-12</wgt>
  <wgt id="416">8.49668e-12</wgt>
  <wgt id="417">7.94789e-12</wgt>
  <wgt id="418">8.27939e-12</wgt>
  <wgt id="419">8.19532e-12</wgt>
  <wgt id="420">8.40358e-12</wgt>
  <wgt id="421">8.18175e-12</wgt>
  <wgt id="422">8.24388e-12</wgt>
  <wgt id="423">8.27794e-12</wgt>
  <wgt id="424">8.44855e-12</wgt>
  <wgt id="425">8.14696e-12</wgt>
  <wgt id="426">8.26628e-12</wgt>
  <wgt id="427">8.16406e-12</wgt>
  <wgt id="428">8.52643e-12</wgt>
  <wgt id="429">8.34983e-12</wgt>
  <wgt id="430">8.58805e-12</wgt>
  <wgt id="431">8.54058e-12</wgt>
  <wgt id="432">8.49602e-12</wgt>
  <wgt id="433">8.4526e-12</wgt>
  <wgt id="434">8.39871e-12</wgt>
  <wgt id="435">8.28875e-12</wgt>
  <wgt id="436">8.23238e-12</wgt>
  <wgt id="437">8.17845e-12</wgt>
  <wgt id="438">8.34983e-12</wgt>
  <wgt id="439">8.37616e-12</wgt>
  <wgt id="440">8.36027e-12</wgt>
  <wgt id="441">8.34197e-12</wgt>
  <wgt id="442">8.33568e-12</wgt>
  <wgt id="443">7.89459e-12</wgt>
  <wgt id="444">7.95414e-12</wgt>
  <wgt id="445">7.92137e-12</wgt>
  <wgt id="446">7.83871e-12</wgt>
  <wgt id="447">7.88873e-12</wgt>
  <wgt id="448">7.70174e-12</wgt>
  <wgt id="449">8.02758e-12</wgt>
  <wgt id="450">7.93372e-12</wgt>
  <wgt id="451">7.87743e-12</wgt>
  <wgt id="452">8.0617e-12</wgt>
  <wgt id="453">7.96846e-12</wgt>
  <wgt id="454">7.54842e-12</wgt>
  <wgt id="455">7.93081e-12</wgt>
  <wgt id="456">7.9318e-12</wgt>
  <wgt id="457">7.9196e-12</wgt>
  <wgt id="458">8.01034e-12</wgt>
  <wgt id="459">7.9587e-12</wgt>
  <wgt id="460">7.99349e-12</wgt>
  <wgt id="461">7.73555e-12</wgt>
  <wgt id="462">7.84321e-12</wgt>
  <wgt id="463">7.79054e-12</wgt>
  <wgt id="464">7.85778e-12</wgt>
  <wgt id="465">7.97438e-12</wgt>
  <wgt id="466">7.77039e-12</wgt>
  <wgt id="467">7.82812e-12</wgt>
  <wgt id="468">7.8796e-12</wgt>
  <wgt id="469">7.88003e-12</wgt>
  <wgt id="470">7.80236e-12</wgt>
  <wgt id="471">7.818e-12</wgt>
  <wgt id="472">7.93393e-12</wgt>
  <wgt id="473">7.66518e-12</wgt>
  <wgt id="474">5.79e-12</wgt>
  <wgt id="475">5.89117e-12</wgt>
  <wgt id="476">5.70719e-12</wgt>
  <wgt id="477">5.69712e-12</wgt>
  <wgt id="478">5.8429e-12</wgt>
  <wgt id="479">5.63413e-12</wgt>
  <wgt id="480">6.04493e-12</wgt>
  <wgt id="481">5.78402e-12</wgt>
  <wgt id="482">5.72665e-12</wgt>
  <wgt id="483">5.67705e-12</wgt>
  <wgt id="484">5.98486e-12</wgt>
  <wgt id="485">5.56331e-12</wgt>
  <wgt id="486">6.06346e-12</wgt>
  <wgt id="487">5.75875e-12</wgt>
  <wgt id="488">5.89905e-12</wgt>
  <wgt id="489">5.43461e-12</wgt>
  <wgt id="490">5.58137e-12</wgt>
  <wgt id="491">5.76215e-12</wgt>
  <wgt id="492">5.6983e-12</wgt>
  <wgt id="493">5.50599e-12</wgt>
  <wgt id="494">5.55459e-12</wgt>
  <wgt id="495">5.79989e-12</wgt>
  <wgt id="496">5.58505e-12</wgt>
  <wgt id="497">5.51662e-12</wgt>
  <wgt id="498">5.95392e-12</wgt>
  <wgt id="499">5.75389e-12</wgt>
  <wgt id="500">5.65942e-12</wgt>
  <wgt id="501">5.99642e-12</wgt>
  <wgt id="502">5.81943e-12</wgt>
  <wgt id="503">5.77822e-12</wgt>
  <wgt id="504">5.92966e-12</wgt>
  <wgt id="505">5.79269e-12</wgt>
  <wgt id="506">5.66971e-12</wgt>
  <wgt id="507">5.79357e-12</wgt>
  <wgt id="508">6.02149e-12</wgt>
  <wgt id="509">5.41372e-12</wgt>
  <wgt id="510">5.88664e-12</wgt>
  <wgt id="511">5.57289e-12</wgt>
  <wgt id="512">6.01276e-12</wgt>
  <wgt id="513">5.97802e-12</wgt>
  <wgt id="514">5.91995e-12</wgt>
  <wgt id="515">5.80851e-12</wgt>
  <wgt id="516">6.17437e-12</wgt>
  <wgt id="517">5.92524e-12</wgt>
  <wgt id="518">5.95879e-12</wgt>
  <wgt id="519">5.61119e-12</wgt>
  <wgt id="520">5.91691e-12</wgt>
  <wgt id="521">5.85844e-12</wgt>
  <wgt id="522">6.04092e-12</wgt>
  <wgt id="523">5.65963e-12</wgt>
  <wgt id="524">5.75156e-12</wgt>
  <wgt id="525">5.88523e-12</wgt>
  <wgt id="526">5.9178e-12</wgt>
  <wgt id="527">5.79261e-12</wgt>
  <wgt id="528">5.81888e-12</wgt>
  <wgt id="529">5.6872e-12</wgt>
  <wgt id="530">5.97682e-12</wgt>
  <wgt id="531">5.65496e-12</wgt>
  <wgt id="532">6.1789e-12</wgt>
  <wgt id="533">5.60915e-12</wgt>
  <wgt id="534">5.71906e-12</wgt>
  <wgt id="535">5.78516e-12</wgt>
  <wgt id="536">5.81528e-12</wgt>
  <wgt id="537">5.70272e-12</wgt>
  <wgt id="538">5.8201e-12</wgt>
  <wgt id="539">5.68701e-12</wgt>
  <wgt id="540">5.88664e-12</wgt>
  <wgt id="541">5.67041e-12</wgt>
  <wgt id="542">5.73039e-12</wgt>
  <wgt id="543">5.73479e-12</wgt>
  <wgt id="544">5.97505e-12</wgt>
  <wgt id="545">5.61892e-12</wgt>
  <wgt id="546">5.51698e-12</wgt>
  <wgt id="547">5.65504e-12</wgt>
  <wgt id="548">5.56053e-12</wgt>
  <wgt id="549">5.69928e-12</wgt>
  <wgt id="550">5.67135e-12</wgt>
  <wgt id="551">5.86586e-12</wgt>
  <wgt id="552">5.49947e-12</wgt>
  <wgt id="553">5.65249e-12</wgt>
  <wgt id="554">6.15551e-12</wgt>
  <wgt id="555">5.9447e-12</wgt>
  <wgt id="556">5.58137e-12</wgt>
  <wgt id="557">5.94722e-12</wgt>
  <wgt id="558">5.68575e-12</wgt>
  <wgt id="559">5.67172e-12</wgt>
  <wgt id="560">6.36389e-12</wgt>
  <wgt id="561">5.78221e-12</wgt>
  <wgt id="562">5.98612e-12</wgt>
  <wgt id="563">6.00837e-12</wgt>
  <wgt id="564">6.00983e-12</wgt>
  <wgt id="565">5.74193e-12</wgt>
  <wgt id="566">5.81495e-12</wgt>
  <wgt id="567">5.75889e-12</wgt>
  <wgt id="568">5.72382e-12</wgt>
  <wgt id="569">5.88665e-12</wgt>
  <wgt id="570">5.55243e-12</wgt>
  <wgt id="571">6.38242e-12</wgt>
  <wgt id="572">5.68789e-12</wgt>
  <wgt id="573">5.61408e-12</wgt>
  <wgt id="574">5.63472e-12</wgt>
  <wgt id="575">6.36733e-12</wgt>
  <wgt id="576">6.60254e-12</wgt>
  <wgt id="577">6.59684e-12</wgt>
  <wgt id="578">6.564e-12</wgt>
  <wgt id="579">6.57561e-12</wgt>
  <wgt id="580">6.66285e-12</wgt>
  <wgt id="581">6.91936e-12</wgt>
  <wgt id="582">6.57683e-12</wgt>
  <wgt id="583">6.43029e-12</wgt>
  <wgt id="584">6.32242e-12</wgt>
  <wgt id="585">6.13131e-12</wgt>
  <wgt id="586">6.11251e-12</wgt>
  <wgt id="587">6.47908e-12</wgt>
  <wgt id="588">6.53957e-12</wgt>
  <wgt id="589">6.68136e-12</wgt>
  <wgt id="590">6.34017e-12</wgt>
  <wgt id="591">6.58307e-12</wgt>
  <wgt id="592">5.93492e-12</wgt>
  <wgt id="593">6.26713e-12</wgt>
  <wgt id="594">6.43808e-12</wgt>
  <wgt id="595">6.48273e-12</wgt>
  <wgt id="596">6.8724e-12</wgt>
  <wgt id="597">6.33576e-12</wgt>
  <wgt id="598">6.17105e-12</wgt>
  <wgt id="599">6.66643e-12</wgt>
  <wgt id="600">6.48767e-12</wgt>
  <wgt id="601">6.16291e-12</wgt>
  <wgt id="602">6.17463e-12</wgt>
  <wgt id="603">6.12794e-12</wgt>
  <wgt id="604">6.48243e-12</wgt>
  <wgt id="605">6.55016e-12</wgt>
  <wgt id="606">6.42479e-12</wgt>
  <wgt id="607">6.45482e-12</wgt>
  <wgt id="608">6.53569e-12</wgt>
  <wgt id="609">6.18765e-12</wgt>
  <wgt id="610">6.13843e-12</wgt>
  <wgt id="611">6.24979e-12</wgt>
  <wgt id="612">6.70709e-12</wgt>
  <wgt id="613">6.24295e-12</wgt>
  <wgt id="614">6.35079e-12</wgt>
  <wgt id="615">6.35187e-12</wgt>
  <wgt id="616">6.46609e-12</wgt>
  <wgt id="617">6.54716e-12</wgt>
  <wgt id="618">6.88564e-12</wgt>
  <wgt id="619">6.27759e-12</wgt>
  <wgt id="620">6.59353e-12</wgt>
  <wgt id="621">6.33863e-12</wgt>
  <wgt id="622">6.47908e-12</wgt>
  <wgt id="623">6.49204e-12</wgt>
  <wgt id="624">6.39566e-12</wgt>
  <wgt id="625">6.19204e-12</wgt>
  <wgt id="626">5.99345e-12</wgt>
  <wgt id="627">5.9875e-12</wgt>
  <wgt id="628">6.4132e-12</wgt>
  <wgt id="629">6.3345e-12</wgt>
  <wgt id="630">6.13576e-12</wgt>
  <wgt id="631">6.44302e-12</wgt>
  <wgt id="632">5.98162e-12</wgt>
  <wgt id="633">6.34331e-12</wgt>
  <wgt id="634">6.20566e-12</wgt>
  <wgt id="635">6.0024e-12</wgt>
  <wgt id="636">6.46276e-12</wgt>
  <wgt id="637">6.35167e-12</wgt>
  <wgt id="638">6.14632e-12</wgt>
  <wgt id="639">6.22529e-12</wgt>
  <wgt id="640">6.32775e-12</wgt>
  <wgt id="641">6.55937e-12</wgt>
  <wgt id="642">6.01891e-12</wgt>
  <wgt id="643">6.28756e-12</wgt>
  <wgt id="644">5.81531e-12</wgt>
  <wgt id="645">6.38371e-12</wgt>
  <wgt id="646">6.15163e-12</wgt>
  <wgt id="647">6.34393e-12</wgt>
  <wgt id="648">6.53243e-12</wgt>
  <wgt id="649">6.40463e-12</wgt>
  <wgt id="650">6.14786e-12</wgt>
  <wgt id="651">6.65891e-12</wgt>
  <wgt id="652">6.22165e-12</wgt>
  <wgt id="653">6.15338e-12</wgt>
  <wgt id="654">6.27193e-12</wgt>
  <wgt id="655">6.25654e-12</wgt>
  <wgt id="656">6.37487e-12</wgt>
  <wgt id="657">6.85585e-12</wgt>
  <wgt id="658">6.36935e-12</wgt>
  <wgt id="659">6.1039e-12</wgt>
  <wgt id="660">6.36036e-12</wgt>
  <wgt id="661">6.26685e-12</wgt>
  <wgt id="662">6.31467e-12</wgt>
  <wgt id="663">6.43128e-12</wgt>
  <wgt id="664">6.36166e-12</wgt>
  <wgt id="665">6.3584e-12</wgt>
  <wgt id="666">6.2754e-12</wgt>
  <wgt id="667">6.6422e-12</wgt>
  <wgt id="668">6.34503e-12</wgt>
  <wgt id="669">6.46326e-12</wgt>
  <wgt id="670">6.59372e-12</wgt>
  <wgt id="671">6.37982e-12</wgt>
  <wgt id="672">6.12787e-12</wgt>
  <wgt id="673">6.55754e-12</wgt>
  <wgt id="674">6.2045e-12</wgt>
  <wgt id="675">6.26885e-12</wgt>
  <wgt id="676">8.09631e-12</wgt>
  <wgt id="677">8.20254e-12</wgt>
  <wgt id="678">8.62503e-12</wgt>
  <wgt id="679">7.86045e-12</wgt>
  <wgt id="680">8.05494e-12</wgt>
  <wgt id="681">8.0981e-12</wgt>
  <wgt id="682">8.40993e-12</wgt>
  <wgt id="683">7.7991e-12</wgt>
  <wgt id="684">8.43319e-12</wgt>
  <wgt id="685">7.9343e-12</wgt>
  <wgt id="686">7.89589e-12</wgt>
  <wgt id="687">8.36699e-12</wgt>
  <wgt id="688">7.93856e-12</wgt>
  <wgt id="689">8.46007e-12</wgt>
  <wgt id="690">8.34732e-12</wgt>
  <wgt id="691">8.4234e-12</wgt>
  <wgt id="692">7.98629e-12</wgt>
  <wgt id="693">9.89677e-12</wgt>
  <wgt id="694">8.70627e-12</wgt>
  <wgt id="695">7.79027e-12</wgt>
  <wgt id="696">7.85108e-12</wgt>
  <wgt id="697">7.65818e-12</wgt>
  <wgt id="698">7.1217e-12</wgt>
  <wgt id="699">7.12661e-12</wgt>
  <wgt id="700">7.16322e-12</wgt>
  <wgt id="701">8.08772e-12</wgt>
  <wgt id="702">7.96933e-12</wgt>
  <wgt id="703">9.48387e-12</wgt>
  <wgt id="704">8.96315e-12</wgt>
  <wgt id="705">8.82266e-12</wgt>
  <wgt id="706">7.69968e-12</wgt>
  <wgt id="707">7.71138e-12</wgt>
  <wgt id="708">7.89048e-12</wgt>
  <wgt id="709">7.89563e-12</wgt>
  <wgt id="710">7.32655e-12</wgt>
  <wgt id="711">8.17005e-12</wgt>
  <wgt id="712">7.76434e-12</wgt>
  <wgt id="713">8.71206e-12</wgt>
  <wgt id="714">7.65258e-12</wgt>
  <wgt id="715">7.91324e-12</wgt>
  <wgt id="716">7.8139e-12</wgt>
  <wgt id="717">7.44663e-12</wgt>
  <wgt id="718">8.23154e-12</wgt>
  <wgt id="719">7.37396e-12</wgt>
  <wgt id="720">7.94072e-12</wgt>
  <wgt id="721">7.16574e-12</wgt>
  <wgt id="722">6.91541e-12</wgt>
  <wgt id="723">8.77635e-12</wgt>
  <wgt id="724">8.58801e-12</wgt>
  <wgt id="725">8.45124e-12</wgt>
  <wgt id="726">8.08834e-12</wgt>
  <wgt id="727">8.00758e-12</wgt>
  <wgt id="728">7.85032e-12</wgt>
  <wgt id="729">7.8124e-12</wgt>
  <wgt id="730">8.72804e-12</wgt>
  <wgt id="731">7.93999e-12</wgt>
  <wgt id="732">9.08034e-12</wgt>
  <wgt id="733">7.79336e-12</wgt>
  <wgt id="734">8.28812e-12</wgt>
  <wgt id="735">8.20646e-12</wgt>
  <wgt id="736">7.74819e-12</wgt>
  <wgt id="737">8.02124e-12</wgt>
  <wgt id="738">7.7593e-12</wgt>
  <wgt id="739">8.49884e-12</wgt>
  <wgt id="740">9.14973e-12</wgt>
  <wgt id="741">7.68442e-12</wgt>
  <wgt id="742">7.98523e-12</wgt>
  <wgt id="743">7.59107e-12</wgt>
  <wgt id="744">7.93126e-12</wgt>
  <wgt id="745">8.5462e-12</wgt>
  <wgt id="746">8.74101e-12</wgt>
  <wgt id="747">7.06525e-12</wgt>
  <wgt id="748">7.9627e-12</wgt>
  <wgt id="749">8.39431e-12</wgt>
  <wgt id="750">8.61226e-12</wgt>
  <wgt id="751">8.19357e-12</wgt>
  <wgt id="752">7.40063e-12</wgt>
  <wgt id="753">7.50113e-12</wgt>
  <wgt id="754">8.4353e-12</wgt>
  <wgt id="755">8.02691e-12</wgt>
  <wgt id="756">7.98852e-12</wgt>
  <wgt id="757">7.30119e-12</wgt>
  <wgt id="758">7.98267e-12</wgt>
  <wgt id="759">8.7668e-12</wgt>
  <wgt id="760">7.9839e-12</wgt>
  <wgt id="761">8.66186e-12</wgt>
  <wgt id="762">8.69304e-12</wgt>
  <wgt id="763">8.10433e-12</wgt>
  <wgt id="764">8.47113e-12</wgt>
  <wgt id="765">8.21583e-12</wgt>
  <wgt id="766">8.11706e-12</wgt>
  <wgt id="767">8.24273e-12</wgt>
  <wgt id="768">7.53096e-12</wgt>
  <wgt id="769">8.55691e-12</wgt>
  <wgt id="770">7.89637e-12</wgt>
  <wgt id="771">9.59803e-12</wgt>
  <wgt id="772">7.79469e-12</wgt>
  <wgt id="773">8.0452e-12</wgt>
  <wgt id="774">6.8131e-12</wgt>
  <wgt id="775">8.467e-12</wgt>
  <wgt id="776">8.84212e-12</wgt>
  <wgt id="777">7.50109e-12</wgt>
  <wgt id="778">5.74664e-12</wgt>
  <wgt id="779">4.26304e-12</wgt>
  <wgt id="780">3.13702e-12</wgt>
  <wgt id="781">6.57786e-12</wgt>
  <wgt id="782">6.48464e-12</wgt>
  <wgt id="783">4.18399e-12</wgt>
  <wgt id="784">4.65815e-12</wgt>
  <wgt id="785">7.68629e-12</wgt>
  <wgt id="786">4.0876e-12</wgt>
  <wgt id="787">6.84601e-12</wgt>
  <wgt id="788">2.69358e-12</wgt>
  <wgt id="789">4.64023e-12</wgt>
  <wgt id="790">3.99331e-12</wgt>
  <wgt id="791">6.0054e-12</wgt>
  <wgt id="792">7.69224e-12</wgt>
  <wgt id="793">5.64907e-12</wgt>
  <wgt id="794">3.83304e-12</wgt>
  <wgt id="795">7.15036e-12</wgt>
  <wgt id="796">7.69229e-12</wgt>
  <wgt id="797">7.10778e-12</wgt>
  <wgt id="798">4.87303e-12</wgt>
  <wgt id="799">6.72807e-12</wgt>
  <wgt id="800">4.72949e-12</wgt>
  <wgt id="801">5.3073e-12</wgt>
  <wgt id="802">3.78771e-12</wgt>
  <wgt id="803">8.51838e-12</wgt>
  <wgt id="804">7.15667e-12</wgt>
  <wgt id="805">7.06988e-12</wgt>
  <wgt id="806">6.26357e-12</wgt>
  <wgt id="807">5.51481e-12</wgt>
  <wgt id="808">5.47617e-12</wgt>
  <wgt id="809">5.32049e-12</wgt>
  <wgt id="810">6.33563e-12</wgt>
  <wgt id="811">6.11462e-12</wgt>
  <wgt id="812">3.99166e-12</wgt>
  <wgt id="813">4.17865e-12</wgt>
  <wgt id="814">4.4894e-12</wgt>
  <wgt id="815">4.19618e-12</wgt>
  <wgt id="816">4.07324e-12</wgt>
  <wgt id="817">5.84672e-12</wgt>
  <wgt id="818">6.5012e-12</wgt>
  <wgt id="819">4.259e-12</wgt>
  <wgt id="820">5.60064e-12</wgt>
  <wgt id="821">6.67378e-12</wgt>
  <wgt id="822">4.63899e-12</wgt>
  <wgt id="823">6.88626e-12</wgt>
  <wgt id="824">8.21357e-12</wgt>
  <wgt id="825">3.69394e-12</wgt>
  <wgt id="826">6.51342e-12</wgt>
  <wgt id="827">3.14164e-12</wgt>
  <wgt id="828">7.34006e-12</wgt>
  <wgt id="829">5.91641e-12</wgt>
  <wgt id="830">3.50484e-12</wgt>
  <wgt id="831">6.40108e-12</wgt>
  <wgt id="832">9.69551e-12</wgt>
  <wgt id="833">4.99378e-12</wgt>
  <wgt id="834">9.32307e-12</wgt>
  <wgt id="835">4.50496e-12</wgt>
  <wgt id="836">5.22021e-12</wgt>
  <wgt id="837">6.56848e-12</wgt>
  <wgt id="838">5.06101e-12</wgt>
  <wgt id="839">6.35535e-12</wgt>
  <wgt id="840">5.13749e-12</wgt>
  <wgt id="841">7.49639e-12</wgt>
  <wgt id="842">5.40979e-12</wgt>
  <wgt id="843">5.96982e-12</wgt>
  <wgt id="844">6.12857e-12</wgt>
  <wgt id="845">9.11292e-12</wgt>
  <wgt id="846">6.00379e-12</wgt>
  <wgt id="847">5.98155e-12</wgt>
  <wgt id="848">4.35833e-12</wgt>
  <wgt id="849">6.01473e-12</wgt>
  <wgt id="850">7.96687e-12</wgt>
  <wgt id="851">6.48861e-12</wgt>
  <wgt id="852">4.05242e-12</wgt>
  <wgt id="853">6.64123e-12</wgt>
  <wgt id="854">7.38803e-12</wgt>
  <wgt id="855">6.75268e-12</wgt>
  <wgt id="856">3.52646e-12</wgt>
  <wgt id="857">5.41328e-12</wgt>
  <wgt id="858">5.36978e-12</wgt>
  <wgt id="859">5.46938e-12</wgt>
  <wgt id="860">6.74234e-12</wgt>
  <wgt id="861">4.96616e-12</wgt>
  <wgt id="862">5.80346e-12</wgt>
  <wgt id="863">6.31944e-12</wgt>
  <wgt id="864">6.0298e-12</wgt>
  <wgt id="865">8.53802e-12</wgt>
  <wgt id="866">9.48398e-12</wgt>
  <wgt id="867">5.84066e-12</wgt>
  <wgt id="868">5.7215e-12</wgt>
  <wgt id="869">3.99662e-12</wgt>
  <wgt id="870">4.35489e-12</wgt>
  <wgt id="871">4.24607e-12</wgt>
  <wgt id="872">7.39504e-12</wgt>
  <wgt id="873">4.76799e-12</wgt>
  <wgt id="874">6.17949e-12</wgt>
  <wgt id="875">4.79614e-12</wgt>
  <wgt id="876">7.22652e-12</wgt>
  <wgt id="877">6.49963e-12</wgt>
  <wgt id="878">4.68917e-12</wgt>
  <wgt id="879">8.09631e-12</wgt>
  <wgt id="880">8.20254e-12</wgt>
  <wgt id="881">8.62503e-12</wgt>
  <wgt id="882">7.86045e-12</wgt>
  <wgt id="883">8.05494e-12</wgt>
  <wgt id="884">8.0981e-12</wgt>
  <wgt id="885">8.40993e-12</wgt>
  <wgt id="886">7.7991e-12</wgt>
  <wgt id="887">8.43319e-12</wgt>
  <wgt id="888">7.9343e-12</wgt>
  <wgt id="889">7.89589e-12</wgt>
  <wgt id="890">8.36699e-12</wgt>
  <wgt id="891">7.93856e-12</wgt>
  <wgt id="892">8.46007e-12</wgt>
  <wgt id="893">8.34732e-12</wgt>
  <wgt id="894">8.4234e-12</wgt>
  <wgt id="895">7.98629e-12</wgt>
  <wgt id="896">9.89677e-12</wgt>
  <wgt id="897">8.70627e-12</wgt>
  <wgt id="898">7.79027e-12</wgt>
  <wgt id="899">7.85108e-12</wgt>
  <wgt id="900">7.65818e-12</wgt>
  <wgt id="901">7.1217e-12</wgt>
  <wgt id="902">7.12661e-12</wgt>
  <wgt id="903">7.16322e-12</wgt>
  <wgt id="904">8.08772e-12</wgt>
  <wgt id="905">7.96933e-12</wgt>
  <wgt id="906">9.48387e-12</wgt>
  <wgt id="907">8.96315e-12</wgt>
  <wgt id="908">8.82266e-12</wgt>
  <wgt id="909">7.69968e-12</wgt>
  <wgt id="910">7.71138e-12</wgt>
  <wgt id="911">7.89048e-12</wgt>
  <wgt id="912">7.89563e-12</wgt>
  <wgt id="913">7.32655e-12</wgt>
  <wgt id="914">8.17005e-12</wgt>
  <wgt id="915">7.76434e-12</wgt>
  <wgt id="916">8.71206e-12</wgt>
  <wgt id="917">7.65258e-12</wgt>
  <wgt id="918">7.91324e-12</wgt>
  <wgt id="919">7.8139e-12</wgt>
  <wgt id="920">7.44663e-12</wgt>
  <wgt id="921">8.23154e-12</wgt>
  <wgt id="922">7.37396e-12</wgt>
  <wgt id="923">7.94072e-12</wgt>
  <wgt id="924">7.16574e-12</wgt>
  <wgt id="925">6.91541e-12</wgt>
  <wgt id="926">8.77635e-12</wgt>
  <wgt id="927">8.58801e-12</wgt>
  <wgt id="928">8.45124e-12</wgt>
  <wgt id="929">8.08834e-12</wgt>
  <wgt id="930">8.00758e-12</wgt>
  <wgt id="931">7.85032e-12</wgt>
  <wgt id="932">7.8124e-12</wgt>
  <wgt id="933">8.72804e-12</wgt>
  <wgt id="934">7.93999e-12</wgt>
  <wgt id="935">9.08034e-12</wgt>
  <wgt id="936">7.79336e-12</wgt>
  <wgt id="937">8.28812e-12</wgt>
  <wgt id="938">8.20646e-12</wgt>
  <wgt id="939">7.74819e-12</wgt>
  <wgt id="940">8.02124e-12</wgt>
  <wgt id="941">7.7593e-12</wgt>
  <wgt id="942">8.49884e-12</wgt>
  <wgt id="943">9.14973e-12</wgt>
  <wgt id="944">7.68442e-12</wgt>
  <wgt id="945">7.98523e-12</wgt>
  <wgt id="946">7.59107e-12</wgt>
  <wgt id="947">7.93126e-12</wgt>
  <wgt id="948">8.5462e-12</wgt>
  <wgt id="949">8.74101e-12</wgt>
  <wgt id="950">7.06525e-12</wgt>
  <wgt id="951">7.9627e-12</wgt>
  <wgt id="952">8.39431e-12</wgt>
  <wgt id="953">8.61226e-12</wgt>
  <wgt id="954">8.19357e-12</wgt>
  <wgt id="955">7.40063e-12</wgt>
  <wgt id="956">7.50113e-12</wgt>
  <wgt id="957">8.4353e-12</wgt>
  <wgt id="958">8.02691e-12</wgt>
  <wgt id="959">7.98852e-12</wgt>
  <wgt id="960">7.30119e-12</wgt>
  <wgt id="961">7.98267e-12</wgt>
  <wgt id="962">8.7668e-12</wgt>
  <wgt id="963">7.9839e-12</wgt>
  <wgt id="964">8.66186e-12</wgt>
  <wgt id="965">8.69304e-12</wgt>
  <wgt id="966">8.10433e-12</wgt>
  <wgt id="967">8.47113e-12</wgt>
  <wgt id="968">8.21583e-12</wgt>
  <wgt id="969">8.11706e-12</wgt>
  <wgt id="970">8.24273e-12</wgt>
  <wgt id="971">7.53096e-12</wgt>
  <wgt id="972">8.55691e-12</wgt>
  <wgt id="973">7.89637e-12</wgt>
  <wgt id="974">9.59803e-12</wgt>
  <wgt id="975">7.79469e-12</wgt>
  <wgt id="976">8.0452e-12</wgt>
  <wgt id="977">6.8131e-12</wgt>
  <wgt id="978">8.467e-12</wgt>
  <wgt id="979">8.84212e-12</wgt>
  <wgt id="980">8.06297e-12</wgt>
  <wgt id="981">8.17845e-12</wgt>
  <wgt id="982">7.84031e-12</wgt>
</rwgt>
</event>
<event>
 5   1  0.5790000E-11  0.2219663E+04  0.7818608E-02  0.7741503E-01
       21   -1    0    0  502  501  0.00000000000E+00  0.00000000000E+00  0.53742402316E+03  0.53742402316E+03  0.00000000000E+00 0.  1.
       21   -1    0    0  501  502 -0.00000000000E+00 -0.00000000000E+00 -0.22919070279E+04  0.22919070279E+04  0.00000000000E+00 0. -1.
       39    2    1    2    0    0  0.00000000000E+00  0.00000000000E+00 -0.17544830047E+04  0.28293310511E+04  0.22196629435E+04 0.  0.
       25    1    3    3    0    0  0.68568836726E+03 -0.60173878981E+03 -0.16669620289E+04  0.19043753606E+04  0.12500000000E+03 0.  0.
       25    1    3    3    0    0 -0.68568836726E+03  0.60173878981E+03 -0.87520975834E+02  0.92495569049E+03  0.12500000000E+03 0.  0.
<mgrwt>
<rscale>  0 0.22196629E+04</rscale>
<asrwt>0</asrwt>
<pdfrwt beam="1">  1       21 0.82680620E-01 0.22196629E+04</pdfrwt>
<pdfrwt beam="2">  1       21 0.35260108E+00 0.22196629E+04</pdfrwt>
<totfact> 0.75709425E+00</totfact>
</mgrwt>
<rwgt>
  <wgt id="1">5.79e-12</wgt>
  <wgt id="2">4.98748e-12</wgt>
  <wgt id="3">6.79877e-12</wgt>
  <wgt id="4">5.79e-12</wgt>
  <wgt id="5">4.98748e-12</wgt>
  <wgt id="6">6.79877e-12</wgt>
  <wgt id="7">5.79e-12</wgt>
  <wgt id="8">4.98748e-12</wgt>
  <wgt id="9">6.79877e-12</wgt>
  <wgt id="10">6.11634e-12</wgt>
  <wgt id="11">6.11653e-12</wgt>
  <wgt id="12">6.09855e-12</wgt>
  <wgt id="13">6.10739e-12</wgt>
  <wgt id="14">6.1323e-12</wgt>
  <wgt id="15">6.12518e-12</wgt>
  <wgt id="16">6.09564e-12</wgt>
  <wgt id="17">6.15662e-12</wgt>
  <wgt id="18">6.11275e-12</wgt>
  <wgt id="19">6.14633e-12</wgt>
  <wgt id="20">6.1197e-12</wgt>
  <wgt id="21">6.06332e-12</wgt>
  <wgt id="22">6.06619e-12</wgt>
  <wgt id="23">6.00994e-12</wgt>
  <wgt id="24">6.06344e-12</wgt>
  <wgt id="25">6.0934e-12</wgt>
  <wgt id="26">6.13111e-12</wgt>
  <wgt id="27">6.10141e-12</wgt>
  <wgt id="28">6.07444e-12</wgt>
  <wgt id="29">6.11734e-12</wgt>
  <wgt id="30">6.05719e-12</wgt>
  <wgt id="31">6.14317e-12</wgt>
  <wgt id="32">6.05675e-12</wgt>
  <wgt id="33">6.12224e-12</wgt>
  <wgt id="34">6.06831e-12</wgt>
  <wgt id="35">6.0603e-12</wgt>
  <wgt id="36">6.15014e-12</wgt>
  <wgt id="37">6.09469e-12</wgt>
  <wgt id="38">6.08521e-12</wgt>
  <wgt id="39">6.24117e-12</wgt>
  <wgt id="40">6.12642e-12</wgt>
  <wgt id="41">6.11267e-12</wgt>
  <wgt id="42">6.12925e-12</wgt>
  <wgt id="43">6.12499e-12</wgt>
  <wgt id="44">6.16391e-12</wgt>
  <wgt id="45">6.1237e-12</wgt>
  <wgt id="46">6.0809e-12</wgt>
  <wgt id="47">6.20477e-12</wgt>
  <wgt id="48">6.16946e-12</wgt>
  <wgt id="49">6.07601e-12</wgt>
  <wgt id="50">6.04303e-12</wgt>
  <wgt id="51">6.06299e-12</wgt>
  <wgt id="52">6.13245e-12</wgt>
  <wgt id="53">6.21504e-12</wgt>
  <wgt id="54">6.16126e-12</wgt>
  <wgt id="55">6.10625e-12</wgt>
  <wgt id="56">6.05251e-12</wgt>
  <wgt id="57">6.05389e-12</wgt>
  <wgt id="58">6.11662e-12</wgt>
  <wgt id="59">6.13745e-12</wgt>
  <wgt id="60">6.03894e-12</wgt>
  <wgt id="61">6.09324e-12</wgt>
  <wgt id="62">6.11998e-12</wgt>
  <wgt id="63">6.11191e-12</wgt>
  <wgt id="64">6.10805e-12</wgt>
  <wgt id="65">6.07373e-12</wgt>
  <wgt id="66">6.13549e-12</wgt>
  <wgt id="67">6.13443e-12</wgt>
  <wgt id="68">6.11324e-12</wgt>
  <wgt id="69">6.10068e-12</wgt>
  <wgt id="70">6.08104e-12</wgt>
  <wgt id="71">6.1263e-12</wgt>
  <wgt id="72">6.09486e-12</wgt>
  <wgt id="73">6.13093e-12</wgt>
  <wgt id="74">6.15218e-12</wgt>
  <wgt id="75">6.0969e-12</wgt>
  <wgt id="76">6.16457e-12</wgt>
  <wgt id="77">6.10185e-12</wgt>
  <wgt id="78">6.11085e-12</wgt>
  <wgt id="79">6.13105e-12</wgt>
  <wgt id="80">6.05806e-12</wgt>
  <wgt id="81">6.11042e-12</wgt>
  <wgt id="82">6.1234e-12</wgt>
  <wgt id="83">6.06753e-12</wgt>
  <wgt id="84">6.08407e-12</wgt>
  <wgt id="85">6.08247e-12</wgt>
  <wgt id="86">6.15433e-12</wgt>
  <wgt id="87">6.04154e-12</wgt>
  <wgt id="88">6.14133e-12</wgt>
  <wgt id="89">6.13433e-12</wgt>
  <wgt id="90">6.14324e-12</wgt>
  <wgt id="91">6.12469e-12</wgt>
  <wgt id="92">6.13995e-12</wgt>
  <wgt id="93">6.12298e-12</wgt>
  <wgt id="94">6.09218e-12</wgt>
  <wgt id="95">6.1385e-12</wgt>
  <wgt id="96">6.13888e-12</wgt>
  <wgt id="97">6.08339e-12</wgt>
  <wgt id="98">6.11722e-12</wgt>
  <wgt id="99">6.1122e-12</wgt>
  <wgt id="100">6.12921e-12</wgt>
  <wgt id="101">6.10103e-12</wgt>
  <wgt id="102">6.10011e-12</wgt>
  <wgt id="103">6.14319e-12</wgt>
  <wgt id="104">6.10505e-12</wgt>
  <wgt id="105">6.13852e-12</wgt>
  <wgt id="106">6.09475e-12</wgt>
  <wgt id="107">6.16184e-12</wgt>
  <wgt id="108">6.10202e-12</wgt>
  <wgt id="109">6.116e-12</wgt>
  <wgt id="110">6.11671e-12</wgt>
  <wgt id="111">6.08716e-12</wgt>
  <wgt id="112">6.2153e-12</wgt>
  <wgt id="113">8.93724e-12</wgt>
  <wgt id="114">7.97446e-12</wgt>
  <wgt id="115">7.81542e-12</wgt>
  <wgt id="116">1.06355e-11</wgt>
  <wgt id="117">6.66054e-12</wgt>
  <wgt id="118">6.68491e-12</wgt>
  <wgt id="119">6.6466e-12</wgt>
  <wgt id="120">6.6606e-12</wgt>
  <wgt id="121">6.6604e-12</wgt>
  <wgt id="122">6.65031e-12</wgt>
  <wgt id="123">6.67471e-12</wgt>
  <wgt id="124">6.65188e-12</wgt>
  <wgt id="125">6.66604e-12</wgt>
  <wgt id="126">6.66868e-12</wgt>
  <wgt id="127">6.65513e-12</wgt>
  <wgt id="128">6.68065e-12</wgt>
  <wgt id="129">6.64071e-12</wgt>
  <wgt id="130">6.69064e-12</wgt>
  <wgt id="131">6.62918e-12</wgt>
  <wgt id="132">6.47337e-12</wgt>
  <wgt id="133">6.88351e-12</wgt>
  <wgt id="134">6.59024e-12</wgt>
  <wgt id="135">6.71581e-12</wgt>
  <wgt id="136">6.76755e-12</wgt>
  <wgt id="137">6.53188e-12</wgt>
  <wgt id="138">6.97697e-12</wgt>
  <wgt id="139">6.36196e-12</wgt>
  <wgt id="140">6.63301e-12</wgt>
  <wgt id="141">6.68061e-12</wgt>
  <wgt id="142">6.65797e-12</wgt>
  <wgt id="143">6.68442e-12</wgt>
  <wgt id="144">6.35776e-12</wgt>
  <wgt id="145">6.95878e-12</wgt>
  <wgt id="146">6.75882e-12</wgt>
  <wgt id="147">6.57931e-12</wgt>
  <wgt id="148">6.68555e-12</wgt>
  <wgt id="149">6.65864e-12</wgt>
  <wgt id="150">6.71551e-12</wgt>
  <wgt id="151">6.63485e-12</wgt>
  <wgt id="152">6.66168e-12</wgt>
  <wgt id="153">6.65998e-12</wgt>
  <wgt id="154">6.66223e-12</wgt>
  <wgt id="155">6.64108e-12</wgt>
  <wgt id="156">6.91643e-12</wgt>
  <wgt id="157">6.43375e-12</wgt>
  <wgt id="158">7.96537e-12</wgt>
  <wgt id="159">7.99983e-12</wgt>
  <wgt id="160">7.9379e-12</wgt>
  <wgt id="161">7.94573e-12</wgt>
  <wgt id="162">7.9877e-12</wgt>
  <wgt id="163">7.9567e-12</wgt>
  <wgt id="164">7.97854e-12</wgt>
  <wgt id="165">7.96816e-12</wgt>
  <wgt id="166">7.9636e-12</wgt>
  <wgt id="167">7.96026e-12</wgt>
  <wgt id="168">7.97318e-12</wgt>
  <wgt id="169">7.9331e-12</wgt>
  <wgt id="170">7.98571e-12</wgt>
  <wgt id="171">7.96118e-12</wgt>
  <wgt id="172">7.97165e-12</wgt>
  <wgt id="173">7.94635e-12</wgt>
  <wgt id="174">7.97245e-12</wgt>
  <wgt id="175">7.73359e-12</wgt>
  <wgt id="176">8.26948e-12</wgt>
  <wgt id="177">7.999e-12</wgt>
  <wgt id="178">7.9353e-12</wgt>
  <wgt id="179">8.39304e-12</wgt>
  <wgt id="180">7.31131e-12</wgt>
  <wgt id="181">7.69018e-12</wgt>
  <wgt id="182">8.14997e-12</wgt>
  <wgt id="183">7.79858e-12</wgt>
  <wgt id="184">8.04857e-12</wgt>
  <wgt id="185">7.86963e-12</wgt>
  <wgt id="186">8.0808e-12</wgt>
  <wgt id="187">7.86885e-12</wgt>
  <wgt id="188">8.13528e-12</wgt>
  <wgt id="189">7.90002e-12</wgt>
  <wgt id="190">7.99247e-12</wgt>
  <wgt id="191">7.99643e-12</wgt>
  <wgt id="192">7.9471e-12</wgt>
  <wgt id="193">8.10497e-12</wgt>
  <wgt id="194">7.89479e-12</wgt>
  <wgt id="195">7.65064e-12</wgt>
  <wgt id="196">8.47193e-12</wgt>
  <wgt id="197">8.00829e-12</wgt>
  <wgt id="198">7.95496e-12</wgt>
  <wgt id="199">7.96537e-12</wgt>
  <wgt id="200">8.04554e-12</wgt>
  <wgt id="201">8.01919e-12</wgt>
  <wgt id="202">7.99307e-12</wgt>
  <wgt id="203">7.95725e-12</wgt>
  <wgt id="204">7.93842e-12</wgt>
  <wgt id="205">7.92277e-12</wgt>
  <wgt id="206">7.82321e-12</wgt>
  <wgt id="207">7.8698e-12</wgt>
  <wgt id="208">7.77613e-12</wgt>
  <wgt id="209">7.8449e-12</wgt>
  <wgt id="210">7.80693e-12</wgt>
  <wgt id="211">7.82072e-12</wgt>
  <wgt id="212">7.82497e-12</wgt>
  <wgt id="213">7.82206e-12</wgt>
  <wgt id="214">7.82384e-12</wgt>
  <wgt id="215">7.82874e-12</wgt>
  <wgt id="216">7.81922e-12</wgt>
  <wgt id="217">7.83853e-12</wgt>
  <wgt id="218">7.81042e-12</wgt>
  <wgt id="219">7.81164e-12</wgt>
  <wgt id="220">7.83003e-12</wgt>
  <wgt id="221">7.82807e-12</wgt>
  <wgt id="222">7.80832e-12</wgt>
  <wgt id="223">7.36751e-12</wgt>
  <wgt id="224">8.24105e-12</wgt>
  <wgt id="225">7.72604e-12</wgt>
  <wgt id="226">7.94672e-12</wgt>
  <wgt id="227">7.74804e-12</wgt>
  <wgt id="228">7.85618e-12</wgt>
  <wgt id="229">7.70972e-12</wgt>
  <wgt id="230">7.87909e-12</wgt>
  <wgt id="231">8.10339e-12</wgt>
  <wgt id="232">7.59407e-12</wgt>
  <wgt id="233">7.76965e-12</wgt>
  <wgt id="234">7.91345e-12</wgt>
  <wgt id="235">7.44489e-12</wgt>
  <wgt id="236">8.12763e-12</wgt>
  <wgt id="237">7.60777e-12</wgt>
  <wgt id="238">7.89431e-12</wgt>
  <wgt id="239">7.73734e-12</wgt>
  <wgt id="240">7.9769e-12</wgt>
  <wgt id="241">7.7219e-12</wgt>
  <wgt id="242">7.94126e-12</wgt>
  <wgt id="243">7.97222e-12</wgt>
  <wgt id="244">7.81016e-12</wgt>
  <wgt id="245">7.82114e-12</wgt>
  <wgt id="246">7.86069e-12</wgt>
  <wgt id="247">7.82321e-12</wgt>
  <wgt id="248">7.91202e-12</wgt>
  <wgt id="249">7.88243e-12</wgt>
  <wgt id="250">7.84989e-12</wgt>
  <wgt id="251">7.80766e-12</wgt>
  <wgt id="252">7.78539e-12</wgt>
  <wgt id="253">7.77062e-12</wgt>
  <wgt id="254">7.50251e-12</wgt>
  <wgt id="255">7.50871e-12</wgt>
  <wgt id="256">7.49547e-12</wgt>
  <wgt id="257">7.50834e-12</wgt>
  <wgt id="258">7.49808e-12</wgt>
  <wgt id="259">7.55299e-12</wgt>
  <wgt id="260">7.45401e-12</wgt>
  <wgt id="261">7.51415e-12</wgt>
  <wgt id="262">7.48895e-12</wgt>
  <wgt id="263">7.49629e-12</wgt>
  <wgt id="264">7.50911e-12</wgt>
  <wgt id="265">7.49362e-12</wgt>
  <wgt id="266">7.52025e-12</wgt>
  <wgt id="267">7.50523e-12</wgt>
  <wgt id="268">7.49909e-12</wgt>
  <wgt id="269">7.52467e-12</wgt>
  <wgt id="270">7.4873e-12</wgt>
  <wgt id="271">7.47938e-12</wgt>
  <wgt id="272">7.52871e-12</wgt>
  <wgt id="273">7.48401e-12</wgt>
  <wgt id="274">7.51657e-12</wgt>
  <wgt id="275">7.45231e-12</wgt>
  <wgt id="276">7.55497e-12</wgt>
  <wgt id="277">7.45936e-12</wgt>
  <wgt id="278">7.54198e-12</wgt>
  <wgt id="279">7.36585e-12</wgt>
  <wgt id="280">7.67479e-12</wgt>
  <wgt id="281">7.46546e-12</wgt>
  <wgt id="282">7.5176e-12</wgt>
  <wgt id="283">7.24647e-12</wgt>
  <wgt id="284">7.82364e-12</wgt>
  <wgt id="285">7.0801e-12</wgt>
  <wgt id="286">7.86288e-12</wgt>
  <wgt id="287">7.53028e-12</wgt>
  <wgt id="288">7.46692e-12</wgt>
  <wgt id="289">7.56638e-12</wgt>
  <wgt id="290">7.36425e-12</wgt>
  <wgt id="291">7.47158e-12</wgt>
  <wgt id="292">7.50021e-12</wgt>
  <wgt id="293">7.43359e-12</wgt>
  <wgt id="294">7.57119e-12</wgt>
  <wgt id="295">7.33525e-12</wgt>
  <wgt id="296">7.70753e-12</wgt>
  <wgt id="297">7.47725e-12</wgt>
  <wgt id="298">7.5436e-12</wgt>
  <wgt id="299">7.47632e-12</wgt>
  <wgt id="300">7.57172e-12</wgt>
  <wgt id="301">7.33251e-12</wgt>
  <wgt id="302">7.88661e-12</wgt>
  <wgt id="303">7.40967e-12</wgt>
  <wgt id="304">7.55415e-12</wgt>
  <wgt id="305">7.40158e-12</wgt>
  <wgt id="306">7.40833e-12</wgt>
  <wgt id="307">7.39454e-12</wgt>
  <wgt id="308">7.40814e-12</wgt>
  <wgt id="309">7.39776e-12</wgt>
  <wgt id="310">7.45279e-12</wgt>
  <wgt id="311">7.35516e-12</wgt>
  <wgt id="312">7.4125e-12</wgt>
  <wgt id="313">7.3903e-12</wgt>
  <wgt id="314">7.39561e-12</wgt>
  <wgt id="315">7.40783e-12</wgt>
  <wgt id="316">7.39291e-12</wgt>
  <wgt id="317">7.42149e-12</wgt>
  <wgt id="318">7.40762e-12</wgt>
  <wgt id="319">7.39188e-12</wgt>
  <wgt id="320">7.42593e-12</wgt>
  <wgt id="321">7.38865e-12</wgt>
  <wgt id="322">7.37753e-12</wgt>
  <wgt id="323">7.43066e-12</wgt>
  <wgt id="324">7.38935e-12</wgt>
  <wgt id="325">7.41256e-12</wgt>
  <wgt id="326">7.35998e-12</wgt>
  <wgt id="327">7.4556e-12</wgt>
  <wgt id="328">7.36415e-12</wgt>
  <wgt id="329">7.4225e-12</wgt>
  <wgt id="330">7.60925e-12</wgt>
  <wgt id="331">7.20508e-12</wgt>
  <wgt id="332">7.37114e-12</wgt>
  <wgt id="333">7.41218e-12</wgt>
  <wgt id="334">7.20941e-12</wgt>
  <wgt id="335">7.64418e-12</wgt>
  <wgt id="336">7.10556e-12</wgt>
  <wgt id="337">7.77151e-12</wgt>
  <wgt id="338">7.49735e-12</wgt>
  <wgt id="339">7.31447e-12</wgt>
  <wgt id="340">7.45806e-12</wgt>
  <wgt id="341">7.26535e-12</wgt>
  <wgt id="342">7.38054e-12</wgt>
  <wgt id="343">7.3831e-12</wgt>
  <wgt id="344">7.34237e-12</wgt>
  <wgt id="345">7.47134e-12</wgt>
  <wgt id="346">7.23291e-12</wgt>
  <wgt id="347">7.59524e-12</wgt>
  <wgt id="348">7.378e-12</wgt>
  <wgt id="349">7.43946e-12</wgt>
  <wgt id="350">7.36993e-12</wgt>
  <wgt id="351">7.4831e-12</wgt>
  <wgt id="352">7.23333e-12</wgt>
  <wgt id="353">7.76745e-12</wgt>
  <wgt id="354">7.27316e-12</wgt>
  <wgt id="355">7.47726e-12</wgt>
  <wgt id="356">7.50251e-12</wgt>
  <wgt id="357">7.39841e-12</wgt>
  <wgt id="358">7.40158e-12</wgt>
  <wgt id="359">7.49056e-12</wgt>
  <wgt id="360">7.66319e-12</wgt>
  <wgt id="361">7.54753e-12</wgt>
  <wgt id="362">7.70595e-12</wgt>
  <wgt id="363">7.68575e-12</wgt>
  <wgt id="364">7.64339e-12</wgt>
  <wgt id="365">7.61296e-12</wgt>
  <wgt id="366">7.58313e-12</wgt>
  <wgt id="367">7.52725e-12</wgt>
  <wgt id="368">7.48986e-12</wgt>
  <wgt id="369">7.44965e-12</wgt>
  <wgt id="370">7.54753e-12</wgt>
  <wgt id="371">7.57714e-12</wgt>
  <wgt id="372">7.56009e-12</wgt>
  <wgt id="373">7.53664e-12</wgt>
  <wgt id="374">7.55084e-12</wgt>
  <wgt id="375">8.87195e-12</wgt>
  <wgt id="376">8.87213e-12</wgt>
  <wgt id="377">8.87168e-12</wgt>
  <wgt id="378">8.90664e-12</wgt>
  <wgt id="379">8.83758e-12</wgt>
  <wgt id="380">8.89798e-12</wgt>
  <wgt id="381">8.86155e-12</wgt>
  <wgt id="382">8.91023e-12</wgt>
  <wgt id="383">8.83421e-12</wgt>
  <wgt id="384">8.87778e-12</wgt>
  <wgt id="385">8.86657e-12</wgt>
  <wgt id="386">8.89629e-12</wgt>
  <wgt id="387">8.8616e-12</wgt>
  <wgt id="388">8.86487e-12</wgt>
  <wgt id="389">8.8805e-12</wgt>
  <wgt id="390">8.89013e-12</wgt>
  <wgt id="391">8.85312e-12</wgt>
  <wgt id="392">8.78996e-12</wgt>
  <wgt id="393">8.91817e-12</wgt>
  <wgt id="394">8.87581e-12</wgt>
  <wgt id="395">8.86635e-12</wgt>
  <wgt id="396">8.89042e-12</wgt>
  <wgt id="397">8.85908e-12</wgt>
  <wgt id="398">8.86499e-12</wgt>
  <wgt id="399">8.87838e-12</wgt>
  <wgt id="400">8.85866e-12</wgt>
  <wgt id="401">8.90067e-12</wgt>
  <wgt id="402">8.78474e-12</wgt>
  <wgt id="403">8.93373e-12</wgt>
  <wgt id="404">9.15106e-12</wgt>
  <wgt id="405">8.21117e-12</wgt>
  <wgt id="406">8.66935e-12</wgt>
  <wgt id="407">9.32469e-12</wgt>
  <wgt id="408">8.97713e-12</wgt>
  <wgt id="409">8.67843e-12</wgt>
  <wgt id="410">8.54616e-12</wgt>
  <wgt id="411">9.03032e-12</wgt>
  <wgt id="412">8.84936e-12</wgt>
  <wgt id="413">8.9039e-12</wgt>
  <wgt id="414">8.74258e-12</wgt>
  <wgt id="415">8.97246e-12</wgt>
  <wgt id="416">9.20636e-12</wgt>
  <wgt id="417">8.41465e-12</wgt>
  <wgt id="418">8.89297e-12</wgt>
  <wgt id="419">8.7598e-12</wgt>
  <wgt id="420">9.12437e-12</wgt>
  <wgt id="421">8.69873e-12</wgt>
  <wgt id="422">8.7998e-12</wgt>
  <wgt id="423">8.90468e-12</wgt>
  <wgt id="424">9.17522e-12</wgt>
  <wgt id="425">8.66211e-12</wgt>
  <wgt id="426">8.87195e-12</wgt>
  <wgt id="427">8.65212e-12</wgt>
  <wgt id="428">9.35304e-12</wgt>
  <wgt id="429">9.01082e-12</wgt>
  <wgt id="430">9.33086e-12</wgt>
  <wgt id="431">9.26529e-12</wgt>
  <wgt id="432">9.20677e-12</wgt>
  <wgt id="433">9.14894e-12</wgt>
  <wgt id="434">9.07404e-12</wgt>
  <wgt id="435">8.93207e-12</wgt>
  <wgt id="436">8.86141e-12</wgt>
  <wgt id="437">8.79119e-12</wgt>
  <wgt id="438">9.01082e-12</wgt>
  <wgt id="439">9.0376e-12</wgt>
  <wgt id="440">9.02014e-12</wgt>
  <wgt id="441">9.00481e-12</wgt>
  <wgt id="442">9.00029e-12</wgt>
  <wgt id="443">7.87023e-12</wgt>
  <wgt id="444">7.96941e-12</wgt>
  <wgt id="445">7.99641e-12</wgt>
  <wgt id="446">7.81142e-12</wgt>
  <wgt id="447">7.87558e-12</wgt>
  <wgt id="448">7.68812e-12</wgt>
  <wgt id="449">8.06015e-12</wgt>
  <wgt id="450">8.01616e-12</wgt>
  <wgt id="451">7.84547e-12</wgt>
  <wgt id="452">8.04016e-12</wgt>
  <wgt id="453">7.99358e-12</wgt>
  <wgt id="454">7.42363e-12</wgt>
  <wgt id="455">7.95869e-12</wgt>
  <wgt id="456">8.07391e-12</wgt>
  <wgt id="457">7.89422e-12</wgt>
  <wgt id="458">8.03141e-12</wgt>
  <wgt id="459">7.9458e-12</wgt>
  <wgt id="460">8.07873e-12</wgt>
  <wgt id="461">7.66191e-12</wgt>
  <wgt id="462">7.81462e-12</wgt>
  <wgt id="463">7.72942e-12</wgt>
  <wgt id="464">7.83257e-12</wgt>
  <wgt id="465">7.95453e-12</wgt>
  <wgt id="466">7.6303e-12</wgt>
  <wgt id="467">7.81552e-12</wgt>
  <wgt id="468">7.87308e-12</wgt>
  <wgt id="469">7.84724e-12</wgt>
  <wgt id="470">7.72493e-12</wgt>
  <wgt id="471">7.75521e-12</wgt>
  <wgt id="472">7.93537e-12</wgt>
  <wgt id="473">7.60077e-12</wgt>
  <wgt id="474">5.79e-12</wgt>
  <wgt id="475">5.78209e-12</wgt>
  <wgt id="476">5.79853e-12</wgt>
  <wgt id="477">5.95646e-12</wgt>
  <wgt id="478">5.92663e-12</wgt>
  <wgt id="479">5.39031e-12</wgt>
  <wgt id="480">6.17592e-12</wgt>
  <wgt id="481">5.86722e-12</wgt>
  <wgt id="482">5.88517e-12</wgt>
  <wgt id="483">6.00375e-12</wgt>
  <wgt id="484">6.06162e-12</wgt>
  <wgt id="485">5.16758e-12</wgt>
  <wgt id="486">6.1096e-12</wgt>
  <wgt id="487">5.5479e-12</wgt>
  <wgt id="488">5.7902e-12</wgt>
  <wgt id="489">5.03068e-12</wgt>
  <wgt id="490">5.76697e-12</wgt>
  <wgt id="491">5.69037e-12</wgt>
  <wgt id="492">5.7038e-12</wgt>
  <wgt id="493">5.21178e-12</wgt>
  <wgt id="494">5.21391e-12</wgt>
  <wgt id="495">5.86486e-12</wgt>
  <wgt id="496">5.38921e-12</wgt>
  <wgt id="497">5.34144e-12</wgt>
  <wgt id="498">5.94747e-12</wgt>
  <wgt id="499">5.9086e-12</wgt>
  <wgt id="500">5.85908e-12</wgt>
  <wgt id="501">6.03682e-12</wgt>
  <wgt id="502">6.22104e-12</wgt>
  <wgt id="503">5.63837e-12</wgt>
  <wgt id="504">6.02342e-12</wgt>
  <wgt id="505">6.13499e-12</wgt>
  <wgt id="506">5.20612e-12</wgt>
  <wgt id="507">5.54419e-12</wgt>
  <wgt id="508">6.15311e-12</wgt>
  <wgt id="509">5.64472e-12</wgt>
  <wgt id="510">5.78527e-12</wgt>
  <wgt id="511">5.4386e-12</wgt>
  <wgt id="512">6.31662e-12</wgt>
  <wgt id="513">6.12637e-12</wgt>
  <wgt id="514">6.28574e-12</wgt>
  <wgt id="515">6.10601e-12</wgt>
  <wgt id="516">6.56523e-12</wgt>
  <wgt id="517">5.93515e-12</wgt>
  <wgt id="518">6.08203e-12</wgt>
  <wgt id="519">5.54842e-12</wgt>
  <wgt id="520">5.80796e-12</wgt>
  <wgt id="521">5.51042e-12</wgt>
  <wgt id="522">5.98123e-12</wgt>
  <wgt id="523">5.44765e-12</wgt>
  <wgt id="524">6.04076e-12</wgt>
  <wgt id="525">5.53621e-12</wgt>
  <wgt id="526">6.23114e-12</wgt>
  <wgt id="527">5.67742e-12</wgt>
  <wgt id="528">5.70912e-12</wgt>
  <wgt id="529">5.36028e-12</wgt>
  <wgt id="530">6.1759e-12</wgt>
  <wgt id="531">5.48376e-12</wgt>
  <wgt id="532">6.32314e-12</wgt>
  <wgt id="533">5.90844e-12</wgt>
  <wgt id="534">5.43852e-12</wgt>
  <wgt id="535">5.97204e-12</wgt>
  <wgt id="536">6.08473e-12</wgt>
  <wgt id="537">5.35043e-12</wgt>
  <wgt id="538">5.70598e-12</wgt>
  <wgt id="539">5.64733e-12</wgt>
  <wgt id="540">6.09491e-12</wgt>
  <wgt id="541">5.75696e-12</wgt>
  <wgt id="542">5.58698e-12</wgt>
  <wgt id="543">5.48235e-12</wgt>
  <wgt id="544">5.78539e-12</wgt>
  <wgt id="545">5.36863e-12</wgt>
  <wgt id="546">5.19587e-12</wgt>
  <wgt id="547">5.52504e-12</wgt>
  <wgt id="548">5.66302e-12</wgt>
  <wgt id="549">5.68259e-12</wgt>
  <wgt id="550">5.46246e-12</wgt>
  <wgt id="551">5.74189e-12</wgt>
  <wgt id="552">5.32399e-12</wgt>
  <wgt id="553">5.25868e-12</wgt>
  <wgt id="554">6.01884e-12</wgt>
  <wgt id="555">5.90469e-12</wgt>
  <wgt id="556">5.76697e-12</wgt>
  <wgt id="557">5.85211e-12</wgt>
  <wgt id="558">5.77249e-12</wgt>
  <wgt id="559">5.91721e-12</wgt>
  <wgt id="560">6.40056e-12</wgt>
  <wgt id="561">6.10207e-12</wgt>
  <wgt id="562">6.04445e-12</wgt>
  <wgt id="563">6.44734e-12</wgt>
  <wgt id="564">6.2441e-12</wgt>
  <wgt id="565">6.23252e-12</wgt>
  <wgt id="566">5.42339e-12</wgt>
  <wgt id="567">5.84271e-12</wgt>
  <wgt id="568">5.45303e-12</wgt>
  <wgt id="569">5.90409e-12</wgt>
  <wgt id="570">6.00954e-12</wgt>
  <wgt id="571">6.42701e-12</wgt>
  <wgt id="572">5.51419e-12</wgt>
  <wgt id="573">5.63731e-12</wgt>
  <wgt id="574">5.70139e-12</wgt>
  <wgt id="575">6.37389e-12</wgt>
  <wgt id="576">7.183e-12</wgt>
  <wgt id="577">6.57349e-12</wgt>
  <wgt id="578">6.32977e-12</wgt>
  <wgt id="579">6.64988e-12</wgt>
  <wgt id="580">6.81099e-12</wgt>
  <wgt id="581">7.08105e-12</wgt>
  <wgt id="582">6.99187e-12</wgt>
  <wgt id="583">6.60868e-12</wgt>
  <wgt id="584">6.30357e-12</wgt>
  <wgt id="585">5.76002e-12</wgt>
  <wgt id="586">5.91979e-12</wgt>
  <wgt id="587">6.52471e-12</wgt>
  <wgt id="588">7.34732e-12</wgt>
  <wgt id="589">7.20749e-12</wgt>
  <wgt id="590">6.36721e-12</wgt>
  <wgt id="591">6.54936e-12</wgt>
  <wgt id="592">5.99608e-12</wgt>
  <wgt id="593">6.10427e-12</wgt>
  <wgt id="594">6.04937e-12</wgt>
  <wgt id="595">6.92192e-12</wgt>
  <wgt id="596">7.67565e-12</wgt>
  <wgt id="597">6.54738e-12</wgt>
  <wgt id="598">6.61569e-12</wgt>
  <wgt id="599">6.93486e-12</wgt>
  <wgt id="600">7.15733e-12</wgt>
  <wgt id="601">6.07094e-12</wgt>
  <wgt id="602">6.07474e-12</wgt>
  <wgt id="603">5.80848e-12</wgt>
  <wgt id="604">6.62274e-12</wgt>
  <wgt id="605">6.31482e-12</wgt>
  <wgt id="606">6.47118e-12</wgt>
  <wgt id="607">6.84695e-12</wgt>
  <wgt id="608">6.64705e-12</wgt>
  <wgt id="609">6.33594e-12</wgt>
  <wgt id="610">5.9986e-12</wgt>
  <wgt id="611">5.91468e-12</wgt>
  <wgt id="612">6.42156e-12</wgt>
  <wgt id="613">5.96882e-12</wgt>
  <wgt id="614">6.33417e-12</wgt>
  <wgt id="615">6.63793e-12</wgt>
  <wgt id="616">5.8046e-12</wgt>
  <wgt id="617">6.68697e-12</wgt>
  <wgt id="618">7.09155e-12</wgt>
  <wgt id="619">6.23541e-12</wgt>
  <wgt id="620">6.54985e-12</wgt>
  <wgt id="621">6.25846e-12</wgt>
  <wgt id="622">6.52471e-12</wgt>
  <wgt id="623">6.31692e-12</wgt>
  <wgt id="624">6.38504e-12</wgt>
  <wgt id="625">5.99425e-12</wgt>
  <wgt id="626">5.31399e-12</wgt>
  <wgt id="627">5.58517e-12</wgt>
  <wgt id="628">6.30121e-12</wgt>
  <wgt id="629">6.94069e-12</wgt>
  <wgt id="630">6.17339e-12</wgt>
  <wgt id="631">6.65796e-12</wgt>
  <wgt id="632">5.72473e-12</wgt>
  <wgt id="633">6.32657e-12</wgt>
  <wgt id="634">5.98033e-12</wgt>
  <wgt id="635">5.82731e-12</wgt>
  <wgt id="636">6.38604e-12</wgt>
  <wgt id="637">6.34478e-12</wgt>
  <wgt id="638">6.00414e-12</wgt>
  <wgt id="639">5.9692e-12</wgt>
  <wgt id="640">6.09839e-12</wgt>
  <wgt id="641">6.78288e-12</wgt>
  <wgt id="642">5.49278e-12</wgt>
  <wgt id="643">6.1246e-12</wgt>
  <wgt id="644">5.71073e-12</wgt>
  <wgt id="645">6.36232e-12</wgt>
  <wgt id="646">5.54721e-12</wgt>
  <wgt id="647">6.6048e-12</wgt>
  <wgt id="648">6.82554e-12</wgt>
  <wgt id="649">6.41624e-12</wgt>
  <wgt id="650">6.12581e-12</wgt>
  <wgt id="651">6.85899e-12</wgt>
  <wgt id="652">5.99381e-12</wgt>
  <wgt id="653">6.0503e-12</wgt>
  <wgt id="654">6.53908e-12</wgt>
  <wgt id="655">5.97007e-12</wgt>
  <wgt id="656">6.4476e-12</wgt>
  <wgt id="657">7.11198e-12</wgt>
  <wgt id="658">6.25989e-12</wgt>
  <wgt id="659">6.11355e-12</wgt>
  <wgt id="660">5.9844e-12</wgt>
  <wgt id="661">6.14416e-12</wgt>
  <wgt id="662">6.27827e-12</wgt>
  <wgt id="663">6.56732e-12</wgt>
  <wgt id="664">6.59108e-12</wgt>
  <wgt id="665">6.22656e-12</wgt>
  <wgt id="666">6.1679e-12</wgt>
  <wgt id="667">6.77388e-12</wgt>
  <wgt id="668">6.22425e-12</wgt>
  <wgt id="669">6.24715e-12</wgt>
  <wgt id="670">6.77364e-12</wgt>
  <wgt id="671">6.52688e-12</wgt>
  <wgt id="672">6.38205e-12</wgt>
  <wgt id="673">6.9861e-12</wgt>
  <wgt id="674">6.12822e-12</wgt>
  <wgt id="675">6.02737e-12</wgt>
  <wgt id="676">8.30873e-12</wgt>
  <wgt id="677">8.37447e-12</wgt>
  <wgt id="678">9.33595e-12</wgt>
  <wgt id="679">9.00195e-12</wgt>
  <wgt id="680">8.452e-12</wgt>
  <wgt id="681">7.97697e-12</wgt>
  <wgt id="682">8.85201e-12</wgt>
  <wgt id="683">7.31607e-12</wgt>
  <wgt id="684">8.89096e-12</wgt>
  <wgt id="685">8.44464e-12</wgt>
  <wgt id="686">8.72271e-12</wgt>
  <wgt id="687">8.44401e-12</wgt>
  <wgt id="688">8.04478e-12</wgt>
  <wgt id="689">8.78453e-12</wgt>
  <wgt id="690">8.52239e-12</wgt>
  <wgt id="691">8.49368e-12</wgt>
  <wgt id="692">8.01852e-12</wgt>
  <wgt id="693">1.17435e-11</wgt>
  <wgt id="694">9.35354e-12</wgt>
  <wgt id="695">7.57281e-12</wgt>
  <wgt id="696">7.83865e-12</wgt>
  <wgt id="697">7.19896e-12</wgt>
  <wgt id="698">6.47199e-12</wgt>
  <wgt id="699">6.88488e-12</wgt>
  <wgt id="700">7.33014e-12</wgt>
  <wgt id="701">8.29675e-12</wgt>
  <wgt id="702">7.81326e-12</wgt>
  <wgt id="703">1.08375e-11</wgt>
  <wgt id="704">9.4657e-12</wgt>
  <wgt id="705">9.48788e-12</wgt>
  <wgt id="706">7.59558e-12</wgt>
  <wgt id="707">7.6502e-12</wgt>
  <wgt id="708">7.68487e-12</wgt>
  <wgt id="709">7.92709e-12</wgt>
  <wgt id="710">6.39341e-12</wgt>
  <wgt id="711">9.21945e-12</wgt>
  <wgt id="712">7.65942e-12</wgt>
  <wgt id="713">8.97655e-12</wgt>
  <wgt id="714">7.1414e-12</wgt>
  <wgt id="715">7.75846e-12</wgt>
  <wgt id="716">7.91927e-12</wgt>
  <wgt id="717">6.87354e-12</wgt>
  <wgt id="718">8.54472e-12</wgt>
  <wgt id="719">7.62618e-12</wgt>
  <wgt id="720">8.79765e-12</wgt>
  <wgt id="721">6.93442e-12</wgt>
  <wgt id="722">6.04701e-12</wgt>
  <wgt id="723">9.68051e-12</wgt>
  <wgt id="724">9.19631e-12</wgt>
  <wgt id="725">8.71866e-12</wgt>
  <wgt id="726">8.21447e-12</wgt>
  <wgt id="727">8.44869e-12</wgt>
  <wgt id="728">8.33478e-12</wgt>
  <wgt id="729">7.1665e-12</wgt>
  <wgt id="730">9.43352e-12</wgt>
  <wgt id="731">8.20126e-12</wgt>
  <wgt id="732">9.9312e-12</wgt>
  <wgt id="733">7.52201e-12</wgt>
  <wgt id="734">8.65515e-12</wgt>
  <wgt id="735">8.17534e-12</wgt>
  <wgt id="736">7.48962e-12</wgt>
  <wgt id="737">7.10941e-12</wgt>
  <wgt id="738">7.84274e-12</wgt>
  <wgt id="739">8.69677e-12</wgt>
  <wgt id="740">1.02435e-11</wgt>
  <wgt id="741">9.22881e-12</wgt>
  <wgt id="742">7.60487e-12</wgt>
  <wgt id="743">7.48158e-12</wgt>
  <wgt id="744">8.08298e-12</wgt>
  <wgt id="745">9.3613e-12</wgt>
  <wgt id="746">9.653e-12</wgt>
  <wgt id="747">6.64189e-12</wgt>
  <wgt id="748">7.89057e-12</wgt>
  <wgt id="749">8.70149e-12</wgt>
  <wgt id="750">9.12828e-12</wgt>
  <wgt id="751">8.3788e-12</wgt>
  <wgt id="752">7.35431e-12</wgt>
  <wgt id="753">7.23672e-12</wgt>
  <wgt id="754">8.72891e-12</wgt>
  <wgt id="755">7.98529e-12</wgt>
  <wgt id="756">7.93015e-12</wgt>
  <wgt id="757">6.89978e-12</wgt>
  <wgt id="758">7.99683e-12</wgt>
  <wgt id="759">9.17481e-12</wgt>
  <wgt id="760">7.7267e-12</wgt>
  <wgt id="761">9.51848e-12</wgt>
  <wgt id="762">9.5773e-12</wgt>
  <wgt id="763">8.79661e-12</wgt>
  <wgt id="764">9.09328e-12</wgt>
  <wgt id="765">8.51489e-12</wgt>
  <wgt id="766">8.53671e-12</wgt>
  <wgt id="767">8.53224e-12</wgt>
  <wgt id="768">7.37736e-12</wgt>
  <wgt id="769">8.69232e-12</wgt>
  <wgt id="770">7.45371e-12</wgt>
  <wgt id="771">1.05361e-11</wgt>
  <wgt id="772">8.08399e-12</wgt>
  <wgt id="773">8.46839e-12</wgt>
  <wgt id="774">6.33479e-12</wgt>
  <wgt id="775">8.76727e-12</wgt>
  <wgt id="776">1.01545e-11</wgt>
  <wgt id="777">6.94627e-12</wgt>
  <wgt id="778">4.99601e-12</wgt>
  <wgt id="779">2.4269e-12</wgt>
  <wgt id="780">8.16634e-13</wgt>
  <wgt id="781">5.5658e-12</wgt>
  <wgt id="782">6.31488e-12</wgt>
  <wgt id="783">1.71567e-12</wgt>
  <wgt id="784">2.81356e-12</wgt>
  <wgt id="785">8.07863e-12</wgt>
  <wgt id="786">1.59412e-12</wgt>
  <wgt id="787">7.11438e-12</wgt>
  <wgt id="788">2.17481e-20</wgt>
  <wgt id="789">2.75558e-12</wgt>
  <wgt id="790">1.88575e-12</wgt>
  <wgt id="791">6.2348e-12</wgt>
  <wgt id="792">6.99033e-12</wgt>
  <wgt id="793">4.31057e-12</wgt>
  <wgt id="794">1.51165e-12</wgt>
  <wgt id="795">7.70486e-12</wgt>
  <wgt id="796">7.79032e-12</wgt>
  <wgt id="797">6.80113e-12</wgt>
  <wgt id="798">3.28301e-12</wgt>
  <wgt id="799">7.06796e-12</wgt>
  <wgt id="800">3.42465e-12</wgt>
  <wgt id="801">5.42849e-12</wgt>
  <wgt id="802">1.45643e-12</wgt>
  <wgt id="803">8.56634e-12</wgt>
  <wgt id="804">7.86769e-12</wgt>
  <wgt id="805">7.44006e-12</wgt>
  <wgt id="806">5.83819e-12</wgt>
  <wgt id="807">5.07088e-12</wgt>
  <wgt id="808">4.95762e-12</wgt>
  <wgt id="809">4.31843e-12</wgt>
  <wgt id="810">7.40803e-12</wgt>
  <wgt id="811">5.32945e-12</wgt>
  <wgt id="812">1.91773e-12</wgt>
  <wgt id="813">2.20095e-12</wgt>
  <wgt id="814">2.94677e-12</wgt>
  <wgt id="815">1.8878e-12</wgt>
  <wgt id="816">2.59969e-12</wgt>
  <wgt id="817">5.21348e-12</wgt>
  <wgt id="818">7.70242e-12</wgt>
  <wgt id="819">2.3192e-12</wgt>
  <wgt id="820">4.4824e-12</wgt>
  <wgt id="821">6.48868e-12</wgt>
  <wgt id="822">3.82253e-12</wgt>
  <wgt id="823">7.09022e-12</wgt>
  <wgt id="824">7.86945e-12</wgt>
  <wgt id="825">1.04327e-12</wgt>
  <wgt id="826">7.23153e-12</wgt>
  <wgt id="827">1.17421e-12</wgt>
  <wgt id="828">6.72616e-12</wgt>
  <wgt id="829">5.23869e-12</wgt>
  <wgt id="830">1.06512e-12</wgt>
  <wgt id="831">6.49084e-12</wgt>
  <wgt id="832">1.00342e-11</wgt>
  <wgt id="833">3.58218e-12</wgt>
  <wgt id="834">9.99078e-12</wgt>
  <wgt id="835">2.81108e-12</wgt>
  <wgt id="836">3.51957e-12</wgt>
  <wgt id="837">6.30518e-12</wgt>
  <wgt id="838">3.40922e-12</wgt>
  <wgt id="839">6.5958e-12</wgt>
  <wgt id="840">4.06737e-12</wgt>
  <wgt id="841">7.76308e-12</wgt>
  <wgt id="842">5.39397e-12</wgt>
  <wgt id="843">5.51576e-12</wgt>
  <wgt id="844">6.04224e-12</wgt>
  <wgt id="845">1.0479e-11</wgt>
  <wgt id="846">4.50842e-12</wgt>
  <wgt id="847">5.71943e-12</wgt>
  <wgt id="848">1.95562e-12</wgt>
  <wgt id="849">5.95678e-12</wgt>
  <wgt id="850">8.92171e-12</wgt>
  <wgt id="851">6.46563e-12</wgt>
  <wgt id="852">1.18594e-12</wgt>
  <wgt id="853">6.85529e-12</wgt>
  <wgt id="854">8.03559e-12</wgt>
  <wgt id="855">6.60596e-12</wgt>
  <wgt id="856">1.02296e-12</wgt>
  <wgt id="857">3.84978e-12</wgt>
  <wgt id="858">4.98161e-12</wgt>
  <wgt id="859">4.89218e-12</wgt>
  <wgt id="860">7.02062e-12</wgt>
  <wgt id="861">3.7185e-12</wgt>
  <wgt id="862">5.34857e-12</wgt>
  <wgt id="863">6.30923e-12</wgt>
  <wgt id="864">5.14309e-12</wgt>
  <wgt id="865">9.1776e-12</wgt>
  <wgt id="866">1.01014e-11</wgt>
  <wgt id="867">5.08056e-12</wgt>
  <wgt id="868">5.62272e-12</wgt>
  <wgt id="869">1.82628e-12</wgt>
  <wgt id="870">2.88691e-12</wgt>
  <wgt id="871">3.28175e-12</wgt>
  <wgt id="872">8.4964e-12</wgt>
  <wgt id="873">3.65143e-12</wgt>
  <wgt id="874">5.96706e-12</wgt>
  <wgt id="875">3.29089e-12</wgt>
  <wgt id="876">7.90629e-12</wgt>
  <wgt id="877">6.03226e-12</wgt>
  <wgt id="878">3.87324e-12</wgt>
  <wgt id="879">8.30873e-12</wgt>
  <wgt id="880">8.37447e-12</wgt>
  <wgt id="881">9.33595e-12</wgt>
  <wgt id="882">9.00195e-12</wgt>
  <wgt id="883">8.452e-12</wgt>
  <wgt id="884">7.97697e-12</wgt>
  <wgt id="885">8.85201e-12</wgt>
  <wgt id="886">7.31607e-12</wgt>
  <wgt id="887">8.89096e-12</wgt>
  <wgt id="888">8.44464e-12</wgt>
  <wgt id="889">8.72271e-12</wgt>
  <wgt id="890">8.44401e-12</wgt>
  <wgt id="891">8.04478e-12</wgt>
  <wgt id="892">8.78453e-12</wgt>
  <wgt id="893">8.52239e-12</wgt>
  <wgt id="894">8.49368e-12</wgt>
  <wgt id="895">8.01852e-12</wgt>
  <wgt id="896">1.17435e-11</wgt>
  <wgt id="897">9.35354e-12</wgt>
  <wgt id="898">7.57281e-12</wgt>
  <wgt id="899">7.83865e-12</wgt>
  <wgt id="900">7.19896e-12</wgt>
  <wgt id="901">6.47199e-12</wgt>
  <wgt id="902">6.88488e-12</wgt>
  <wgt id="903">7.33014e-12</wgt>
  <wgt id="904">8.29675e-12</wgt>
  <wgt id="905">7.81326e-12</wgt>
  <wgt id="906">1.08375e-11</wgt>
  <wgt id="907">9.4657e-12</wgt>
  <wgt id="908">9.48788e-12</wgt>
  <wgt id="909">7.59558e-12</wgt>
  <wgt id="910">7.6502e-12</wgt>
  <wgt id="911">7.68487e-12</wgt>
  <wgt id="912">7.92709e-12</wgt>
  <wgt id="913">6.39341e-12</wgt>
  <wgt id="914">9.21945e-12</wgt>
  <wgt id="915">7.65942e-12</wgt>
  <wgt id="916">8.97655e-12</wgt>
  <wgt id="917">7.1414e-12</wgt>
  <wgt id="918">7.75846e-12</wgt>
  <wgt id="919">7.91927e-12</wgt>
  <wgt id="920">6.87354e-12</wgt>
  <wgt id="921">8.54472e-12</wgt>
  <wgt id="922">7.62618e-12</wgt>
  <wgt id="923">8.79765e-12</wgt>
  <wgt id="924">6.93442e-12</wgt>
  <wgt id="925">6.04701e-12</wgt>
  <wgt id="926">9.68051e-12</wgt>
  <wgt id="927">9.19631e-12</wgt>
  <wgt id="928">8.71866e-12</wgt>
  <wgt id="929">8.21447e-12</wgt>
  <wgt id="930">8.44869e-12</wgt>
  <wgt id="931">8.33478e-12</wgt>
  <wgt id="932">7.1665e-12</wgt>
  <wgt id="933">9.43352e-12</wgt>
  <wgt id="934">8.20126e-12</wgt>
  <wgt id="935">9.9312e-12</wgt>
  <wgt id="936">7.52201e-12</wgt>
  <wgt id="937">8.65515e-12</wgt>
  <wgt id="938">8.17534e-12</wgt>
  <wgt id="939">7.48962e-12</wgt>
  <wgt id="940">7.10941e-12</wgt>
  <wgt id="941">7.84274e-12</wgt>
  <wgt id="942">8.69677e-12</wgt>
  <wgt id="943">1.02435e-11</wgt>
  <wgt id="944">9.22881e-12</wgt>
  <wgt id="945">7.60487e-12</wgt>
  <wgt id="946">7.48158e-12</wgt>
  <wgt id="947">8.08298e-12</wgt>
  <wgt id="948">9.3613e-12</wgt>
  <wgt id="949">9.653e-12</wgt>
  <wgt id="950">6.64189e-12</wgt>
  <wgt id="951">7.89057e-12</wgt>
  <wgt id="952">8.70149e-12</wgt>
  <wgt id="953">9.12828e-12</wgt>
  <wgt id="954">8.3788e-12</wgt>
  <wgt id="955">7.35431e-12</wgt>
  <wgt id="956">7.23672e-12</wgt>
  <wgt id="957">8.72891e-12</wgt>
  <wgt id="958">7.98529e-12</wgt>
  <wgt id="959">7.93015e-12</wgt>
  <wgt id="960">6.89978e-12</wgt>
  <wgt id="961">7.99683e-12</wgt>
  <wgt id="962">9.17481e-12</wgt>
  <wgt id="963">7.7267e-12</wgt>
  <wgt id="964">9.51848e-12</wgt>
  <wgt id="965">9.5773e-12</wgt>
  <wgt id="966">8.79661e-12</wgt>
  <wgt id="967">9.09328e-12</wgt>
  <wgt id="968">8.51489e-12</wgt>
  <wgt id="969">8.53671e-12</wgt>
  <wgt id="970">8.53224e-12</wgt>
  <wgt id="971">7.37736e-12</wgt>
  <wgt id="972">8.69232e-12</wgt>
  <wgt id="973">7.45371e-12</wgt>
  <wgt id="974">1.05361e-11</wgt>
  <wgt id="975">8.08399e-12</wgt>
  <wgt id="976">8.46839e-12</wgt>
  <wgt id="977">6.33479e-12</wgt>
  <wgt id="978">8.76727e-12</wgt>
  <wgt id="979">1.01545e-11</wgt>
  <wgt id="980">8.23725e-12</wgt>
  <wgt id="981">8.5939e-12</wgt>
  <wgt id="982">8.08365e-12</wgt>
</rwgt>
</event>
<event>
 5   1  0.5790000E-11  0.2182704E+04  0.7818608E-02  0.7755415E-01
       21   -1    0    0  502  501  0.00000000000E+00  0.00000000000E+00  0.41435285856E+03  0.41435285856E+03  0.00000000000E+00 0. -1.
       21   -1    0    0  501  502 -0.00000000000E+00 -0.00000000000E+00 -0.28744798085E+04  0.28744798085E+04  0.00000000000E+00 0.  1.
       39    2    1    2    0    0  0.00000000000E+00  0.00000000000E+00 -0.24601269500E+04  0.32888326671E+04  0.21827037596E+04 0.  0.
       25    1    3    3    0    0 -0.10788832573E+04  0.55037204082E+02 -0.13682084789E+04  0.17477521617E+04  0.12500000000E+03 0.  0.
       25    1    3    3    0    0  0.10788832573E+04 -0.55037204082E+02 -0.10919184711E+04  0.15410805054E+04  0.12500000000E+03 0.  0.
<mgrwt>
<rscale>  0 0.21827038E+04</rscale>
<asrwt>0</asrwt>
<pdfrwt beam="1">  1       21 0.63746593E-01 0.21827038E+04</pdfrwt>
<pdfrwt beam="2">  1       21 0.44222767E+00 0.21827038E+04</pdfrwt>
<totfact> 0.37636373E+00</totfact>
</mgrwt>
<rwgt>
  <wgt id="1">5.79e-12</wgt>
  <wgt id="2">4.9186e-12</wgt>
  <wgt id="3">6.90735e-12</wgt>
  <wgt id="4">5.79e-12</wgt>
  <wgt id="5">4.9186e-12</wgt>
  <wgt id="6">6.90735e-12</wgt>
  <wgt id="7">5.79e-12</wgt>
  <wgt id="8">4.9186e-12</wgt>
  <wgt id="9">6.90735e-12</wgt>
  <wgt id="10">6.23333e-12</wgt>
  <wgt id="11">6.24437e-12</wgt>
  <wgt id="12">6.2102e-12</wgt>
  <wgt id="13">6.23632e-12</wgt>
  <wgt id="14">6.2181e-12</wgt>
  <wgt id="15">6.22983e-12</wgt>
  <wgt id="16">6.19399e-12</wgt>
  <wgt id="17">6.29322e-12</wgt>
  <wgt id="18">6.23148e-12</wgt>
  <wgt id="19">6.26947e-12</wgt>
  <wgt id="20">6.25399e-12</wgt>
  <wgt id="21">6.14106e-12</wgt>
  <wgt id="22">6.16878e-12</wgt>
  <wgt id="23">6.1182e-12</wgt>
  <wgt id="24">6.18655e-12</wgt>
  <wgt id="25">6.23269e-12</wgt>
  <wgt id="26">6.24853e-12</wgt>
  <wgt id="27">6.22611e-12</wgt>
  <wgt id="28">6.19668e-12</wgt>
  <wgt id="29">6.23242e-12</wgt>
  <wgt id="30">6.17547e-12</wgt>
  <wgt id="31">6.25492e-12</wgt>
  <wgt id="32">6.15247e-12</wgt>
  <wgt id="33">6.23809e-12</wgt>
  <wgt id="34">6.16925e-12</wgt>
  <wgt id="35">6.15364e-12</wgt>
  <wgt id="36">6.27014e-12</wgt>
  <wgt id="37">6.2138e-12</wgt>
  <wgt id="38">6.19023e-12</wgt>
  <wgt id="39">6.38895e-12</wgt>
  <wgt id="40">6.26771e-12</wgt>
  <wgt id="41">6.21819e-12</wgt>
  <wgt id="42">6.22499e-12</wgt>
  <wgt id="43">6.24272e-12</wgt>
  <wgt id="44">6.28878e-12</wgt>
  <wgt id="45">6.25845e-12</wgt>
  <wgt id="46">6.17179e-12</wgt>
  <wgt id="47">6.38117e-12</wgt>
  <wgt id="48">6.33444e-12</wgt>
  <wgt id="49">6.21927e-12</wgt>
  <wgt id="50">6.13874e-12</wgt>
  <wgt id="51">6.17168e-12</wgt>
  <wgt id="52">6.2405e-12</wgt>
  <wgt id="53">6.44892e-12</wgt>
  <wgt id="54">6.30012e-12</wgt>
  <wgt id="55">6.19589e-12</wgt>
  <wgt id="56">6.04848e-12</wgt>
  <wgt id="57">6.09321e-12</wgt>
  <wgt id="58">6.23013e-12</wgt>
  <wgt id="59">6.28487e-12</wgt>
  <wgt id="60">6.09128e-12</wgt>
  <wgt id="61">6.28614e-12</wgt>
  <wgt id="62">6.32374e-12</wgt>
  <wgt id="63">6.20482e-12</wgt>
  <wgt id="64">6.22308e-12</wgt>
  <wgt id="65">6.18206e-12</wgt>
  <wgt id="66">6.33622e-12</wgt>
  <wgt id="67">6.37754e-12</wgt>
  <wgt id="68">6.23597e-12</wgt>
  <wgt id="69">6.23365e-12</wgt>
  <wgt id="70">6.12795e-12</wgt>
  <wgt id="71">6.32968e-12</wgt>
  <wgt id="72">6.3507e-12</wgt>
  <wgt id="73">6.1327e-12</wgt>
  <wgt id="74">6.30041e-12</wgt>
  <wgt id="75">6.05739e-12</wgt>
  <wgt id="76">6.26963e-12</wgt>
  <wgt id="77">6.19856e-12</wgt>
  <wgt id="78">6.21828e-12</wgt>
  <wgt id="79">6.23443e-12</wgt>
  <wgt id="80">6.21745e-12</wgt>
  <wgt id="81">6.22097e-12</wgt>
  <wgt id="82">6.22478e-12</wgt>
  <wgt id="83">6.17391e-12</wgt>
  <wgt id="84">6.16322e-12</wgt>
  <wgt id="85">6.15098e-12</wgt>
  <wgt id="86">6.33905e-12</wgt>
  <wgt id="87">6.10504e-12</wgt>
  <wgt id="88">6.25674e-12</wgt>
  <wgt id="89">6.2572e-12</wgt>
  <wgt id="90">6.31416e-12</wgt>
  <wgt id="91">6.22935e-12</wgt>
  <wgt id="92">6.26869e-12</wgt>
  <wgt id="93">6.26114e-12</wgt>
  <wgt id="94">6.17479e-12</wgt>
  <wgt id="95">6.33214e-12</wgt>
  <wgt id="96">6.31309e-12</wgt>
  <wgt id="97">6.13967e-12</wgt>
  <wgt id="98">6.23304e-12</wgt>
  <wgt id="99">6.19192e-12</wgt>
  <wgt id="100">6.27124e-12</wgt>
  <wgt id="101">6.19239e-12</wgt>
  <wgt id="102">6.21733e-12</wgt>
  <wgt id="103">6.30672e-12</wgt>
  <wgt id="104">6.21981e-12</wgt>
  <wgt id="105">6.30442e-12</wgt>
  <wgt id="106">6.17025e-12</wgt>
  <wgt id="107">6.3522e-12</wgt>
  <wgt id="108">6.201e-12</wgt>
  <wgt id="109">6.23436e-12</wgt>
  <wgt id="110">6.22773e-12</wgt>
  <wgt id="111">6.10495e-12</wgt>
  <wgt id="112">6.39257e-12</wgt>
  <wgt id="113">1.0194e-11</wgt>
  <wgt id="114">7.70806e-12</wgt>
  <wgt id="115">7.55534e-12</wgt>
  <wgt id="116">1.01796e-11</wgt>
  <wgt id="117">6.8456e-12</wgt>
  <wgt id="118">6.87226e-12</wgt>
  <wgt id="119">6.83049e-12</wgt>
  <wgt id="120">6.84528e-12</wgt>
  <wgt id="121">6.84565e-12</wgt>
  <wgt id="122">6.83646e-12</wgt>
  <wgt id="123">6.8586e-12</wgt>
  <wgt id="124">6.83737e-12</wgt>
  <wgt id="125">6.85079e-12</wgt>
  <wgt id="126">6.85082e-12</wgt>
  <wgt id="127">6.84232e-12</wgt>
  <wgt id="128">6.86563e-12</wgt>
  <wgt id="129">6.82589e-12</wgt>
  <wgt id="130">6.86839e-12</wgt>
  <wgt id="131">6.8214e-12</wgt>
  <wgt id="132">6.63688e-12</wgt>
  <wgt id="133">7.09643e-12</wgt>
  <wgt id="134">6.77574e-12</wgt>
  <wgt id="135">6.90056e-12</wgt>
  <wgt id="136">6.98084e-12</wgt>
  <wgt id="137">6.68421e-12</wgt>
  <wgt id="138">7.23908e-12</wgt>
  <wgt id="139">6.48286e-12</wgt>
  <wgt id="140">6.83585e-12</wgt>
  <wgt id="141">6.8508e-12</wgt>
  <wgt id="142">6.84092e-12</wgt>
  <wgt id="143">6.8805e-12</wgt>
  <wgt id="144">6.41364e-12</wgt>
  <wgt id="145">7.29442e-12</wgt>
  <wgt id="146">6.99749e-12</wgt>
  <wgt id="147">6.71823e-12</wgt>
  <wgt id="148">6.87263e-12</wgt>
  <wgt id="149">6.84377e-12</wgt>
  <wgt id="150">6.89939e-12</wgt>
  <wgt id="151">6.82018e-12</wgt>
  <wgt id="152">6.84404e-12</wgt>
  <wgt id="153">6.84614e-12</wgt>
  <wgt id="154">6.79142e-12</wgt>
  <wgt id="155">6.87583e-12</wgt>
  <wgt id="156">7.25354e-12</wgt>
  <wgt id="157">6.51646e-12</wgt>
  <wgt id="158">8.09969e-12</wgt>
  <wgt id="159">8.13516e-12</wgt>
  <wgt id="160">8.07071e-12</wgt>
  <wgt id="161">8.07881e-12</wgt>
  <wgt id="162">8.12244e-12</wgt>
  <wgt id="163">8.09044e-12</wgt>
  <wgt id="164">8.11341e-12</wgt>
  <wgt id="165">8.10237e-12</wgt>
  <wgt id="166">8.09763e-12</wgt>
  <wgt id="167">8.09434e-12</wgt>
  <wgt id="168">8.10673e-12</wgt>
  <wgt id="169">8.06807e-12</wgt>
  <wgt id="170">8.11904e-12</wgt>
  <wgt id="171">8.09888e-12</wgt>
  <wgt id="172">8.10101e-12</wgt>
  <wgt id="173">8.06215e-12</wgt>
  <wgt id="174">8.11297e-12</wgt>
  <wgt id="175">7.85082e-12</wgt>
  <wgt id="176">8.42721e-12</wgt>
  <wgt id="177">8.12139e-12</wgt>
  <wgt id="178">8.08079e-12</wgt>
  <wgt id="179">8.64203e-12</wgt>
  <wgt id="180">7.29593e-12</wgt>
  <wgt id="181">7.77118e-12</wgt>
  <wgt id="182">8.3225e-12</wgt>
  <wgt id="183">7.90042e-12</wgt>
  <wgt id="184">8.19865e-12</wgt>
  <wgt id="185">7.97733e-12</wgt>
  <wgt id="186">8.24673e-12</wgt>
  <wgt id="187">7.97221e-12</wgt>
  <wgt id="188">8.31921e-12</wgt>
  <wgt id="189">8.0188e-12</wgt>
  <wgt id="190">8.13252e-12</wgt>
  <wgt id="191">8.14067e-12</wgt>
  <wgt id="192">8.07486e-12</wgt>
  <wgt id="193">8.26767e-12</wgt>
  <wgt id="194">8.01354e-12</wgt>
  <wgt id="195">7.64642e-12</wgt>
  <wgt id="196">8.80651e-12</wgt>
  <wgt id="197">8.14418e-12</wgt>
  <wgt id="198">8.08864e-12</wgt>
  <wgt id="199">8.09969e-12</wgt>
  <wgt id="200">8.19182e-12</wgt>
  <wgt id="201">8.16429e-12</wgt>
  <wgt id="202">8.13507e-12</wgt>
  <wgt id="203">8.09946e-12</wgt>
  <wgt id="204">8.07847e-12</wgt>
  <wgt id="205">8.06214e-12</wgt>
  <wgt id="206">8.04664e-12</wgt>
  <wgt id="207">8.09639e-12</wgt>
  <wgt id="208">7.9969e-12</wgt>
  <wgt id="209">8.06809e-12</wgt>
  <wgt id="210">8.03046e-12</wgt>
  <wgt id="211">8.04404e-12</wgt>
  <wgt id="212">8.04834e-12</wgt>
  <wgt id="213">8.0456e-12</wgt>
  <wgt id="214">8.04687e-12</wgt>
  <wgt id="215">8.05216e-12</wgt>
  <wgt id="216">8.04239e-12</wgt>
  <wgt id="217">8.05703e-12</wgt>
  <wgt id="218">8.03818e-12</wgt>
  <wgt id="219">8.03261e-12</wgt>
  <wgt id="220">8.05506e-12</wgt>
  <wgt id="221">8.05923e-12</wgt>
  <wgt id="222">8.01158e-12</wgt>
  <wgt id="223">7.51921e-12</wgt>
  <wgt id="224">8.53378e-12</wgt>
  <wgt id="225">7.94414e-12</wgt>
  <wgt id="226">8.17801e-12</wgt>
  <wgt id="227">7.9665e-12</wgt>
  <wgt id="228">8.08154e-12</wgt>
  <wgt id="229">7.92047e-12</wgt>
  <wgt id="230">8.10884e-12</wgt>
  <wgt id="231">8.402e-12</wgt>
  <wgt id="232">7.75916e-12</wgt>
  <wgt id="233">7.96961e-12</wgt>
  <wgt id="234">8.17813e-12</wgt>
  <wgt id="235">7.41712e-12</wgt>
  <wgt id="236">8.55003e-12</wgt>
  <wgt id="237">7.7055e-12</wgt>
  <wgt id="238">8.16015e-12</wgt>
  <wgt id="239">7.91355e-12</wgt>
  <wgt id="240">8.28531e-12</wgt>
  <wgt id="241">7.91721e-12</wgt>
  <wgt id="242">8.19412e-12</wgt>
  <wgt id="243">8.26844e-12</wgt>
  <wgt id="244">7.98145e-12</wgt>
  <wgt id="245">8.04835e-12</wgt>
  <wgt id="246">8.06401e-12</wgt>
  <wgt id="247">8.04664e-12</wgt>
  <wgt id="248">8.15775e-12</wgt>
  <wgt id="249">8.12313e-12</wgt>
  <wgt id="250">8.07859e-12</wgt>
  <wgt id="251">8.03069e-12</wgt>
  <wgt id="252">8.00062e-12</wgt>
  <wgt id="253">7.98218e-12</wgt>
  <wgt id="254">7.57968e-12</wgt>
  <wgt id="255">7.58567e-12</wgt>
  <wgt id="256">7.5733e-12</wgt>
  <wgt id="257">7.58575e-12</wgt>
  <wgt id="258">7.57505e-12</wgt>
  <wgt id="259">7.63076e-12</wgt>
  <wgt id="260">7.53033e-12</wgt>
  <wgt id="261">7.5918e-12</wgt>
  <wgt id="262">7.56486e-12</wgt>
  <wgt id="263">7.57183e-12</wgt>
  <wgt id="264">7.58917e-12</wgt>
  <wgt id="265">7.57049e-12</wgt>
  <wgt id="266">7.59746e-12</wgt>
  <wgt id="267">7.58204e-12</wgt>
  <wgt id="268">7.57675e-12</wgt>
  <wgt id="269">7.59984e-12</wgt>
  <wgt id="270">7.56592e-12</wgt>
  <wgt id="271">7.5447e-12</wgt>
  <wgt id="272">7.61866e-12</wgt>
  <wgt id="273">7.56422e-12</wgt>
  <wgt id="274">7.59115e-12</wgt>
  <wgt id="275">7.50921e-12</wgt>
  <wgt id="276">7.6527e-12</wgt>
  <wgt id="277">7.54195e-12</wgt>
  <wgt id="278">7.61399e-12</wgt>
  <wgt id="279">7.44105e-12</wgt>
  <wgt id="280">7.75536e-12</wgt>
  <wgt id="281">7.52611e-12</wgt>
  <wgt id="282">7.62497e-12</wgt>
  <wgt id="283">7.27033e-12</wgt>
  <wgt id="284">7.97578e-12</wgt>
  <wgt id="285">7.07092e-12</wgt>
  <wgt id="286">8.02561e-12</wgt>
  <wgt id="287">7.61181e-12</wgt>
  <wgt id="288">7.53894e-12</wgt>
  <wgt id="289">7.6551e-12</wgt>
  <wgt id="290">7.4222e-12</wgt>
  <wgt id="291">7.54403e-12</wgt>
  <wgt id="292">7.56264e-12</wgt>
  <wgt id="293">7.49673e-12</wgt>
  <wgt id="294">7.66246e-12</wgt>
  <wgt id="295">7.37729e-12</wgt>
  <wgt id="296">7.82769e-12</wgt>
  <wgt id="297">7.52343e-12</wgt>
  <wgt id="298">7.63648e-12</wgt>
  <wgt id="299">7.55048e-12</wgt>
  <wgt id="300">7.65716e-12</wgt>
  <wgt id="301">7.32428e-12</wgt>
  <wgt id="302">8.13001e-12</wgt>
  <wgt id="303">7.44154e-12</wgt>
  <wgt id="304">7.65558e-12</wgt>
  <wgt id="305">7.34291e-12</wgt>
  <wgt id="306">7.34866e-12</wgt>
  <wgt id="307">7.3369e-12</wgt>
  <wgt id="308">7.34948e-12</wgt>
  <wgt id="309">7.33867e-12</wgt>
  <wgt id="310">7.39303e-12</wgt>
  <wgt id="311">7.29651e-12</wgt>
  <wgt id="312">7.35642e-12</wgt>
  <wgt id="313">7.32863e-12</wgt>
  <wgt id="314">7.33385e-12</wgt>
  <wgt id="315">7.35216e-12</wgt>
  <wgt id="316">7.33321e-12</wgt>
  <wgt id="317">7.36418e-12</wgt>
  <wgt id="318">7.34823e-12</wgt>
  <wgt id="319">7.33419e-12</wgt>
  <wgt id="320">7.36552e-12</wgt>
  <wgt id="321">7.33079e-12</wgt>
  <wgt id="322">7.30988e-12</wgt>
  <wgt id="323">7.38234e-12</wgt>
  <wgt id="324">7.33656e-12</wgt>
  <wgt id="325">7.34897e-12</wgt>
  <wgt id="326">7.28413e-12</wgt>
  <wgt id="327">7.41923e-12</wgt>
  <wgt id="328">7.31532e-12</wgt>
  <wgt id="329">7.35755e-12</wgt>
  <wgt id="330">7.54542e-12</wgt>
  <wgt id="331">7.15184e-12</wgt>
  <wgt id="332">7.29769e-12</wgt>
  <wgt id="333">7.37598e-12</wgt>
  <wgt id="334">7.12143e-12</wgt>
  <wgt id="335">7.62675e-12</wgt>
  <wgt id="336">7.00003e-12</wgt>
  <wgt id="337">7.78188e-12</wgt>
  <wgt id="338">7.45057e-12</wgt>
  <wgt id="339">7.24594e-12</wgt>
  <wgt id="340">7.40544e-12</wgt>
  <wgt id="341">7.19771e-12</wgt>
  <wgt id="342">7.32226e-12</wgt>
  <wgt id="343">7.30452e-12</wgt>
  <wgt id="344">7.27525e-12</wgt>
  <wgt id="345">7.4221e-12</wgt>
  <wgt id="346">7.14467e-12</wgt>
  <wgt id="347">7.5678e-12</wgt>
  <wgt id="348">7.28593e-12</wgt>
  <wgt id="349">7.39728e-12</wgt>
  <wgt id="350">7.3089e-12</wgt>
  <wgt id="351">7.431e-12</wgt>
  <wgt id="352">7.10585e-12</wgt>
  <wgt id="353">7.8309e-12</wgt>
  <wgt id="354">7.16403e-12</wgt>
  <wgt id="355">7.4464e-12</wgt>
  <wgt id="356">7.57968e-12</wgt>
  <wgt id="357">7.30434e-12</wgt>
  <wgt id="358">7.34291e-12</wgt>
  <wgt id="359">7.52266e-12</wgt>
  <wgt id="360">7.87019e-12</wgt>
  <wgt id="361">7.64762e-12</wgt>
  <wgt id="362">7.84651e-12</wgt>
  <wgt id="363">7.82241e-12</wgt>
  <wgt id="364">7.76069e-12</wgt>
  <wgt id="365">7.72369e-12</wgt>
  <wgt id="366">7.68969e-12</wgt>
  <wgt id="367">7.63383e-12</wgt>
  <wgt id="368">7.58906e-12</wgt>
  <wgt id="369">7.54102e-12</wgt>
  <wgt id="370">7.64762e-12</wgt>
  <wgt id="371">7.67436e-12</wgt>
  <wgt id="372">7.65884e-12</wgt>
  <wgt id="373">7.64001e-12</wgt>
  <wgt id="374">7.67109e-12</wgt>
  <wgt id="375">1.01464e-11</wgt>
  <wgt id="376">1.01466e-11</wgt>
  <wgt id="377">1.01476e-11</wgt>
  <wgt id="378">1.01896e-11</wgt>
  <wgt id="379">1.01044e-11</wgt>
  <wgt id="380">1.01788e-11</wgt>
  <wgt id="381">1.01335e-11</wgt>
  <wgt id="382">1.01807e-11</wgt>
  <wgt id="383">1.01136e-11</wgt>
  <wgt id="384">1.0154e-11</wgt>
  <wgt id="385">1.01398e-11</wgt>
  <wgt id="386">1.01591e-11</wgt>
  <wgt id="387">1.01417e-11</wgt>
  <wgt id="388">1.01403e-11</wgt>
  <wgt id="389">1.01547e-11</wgt>
  <wgt id="390">1.01594e-11</wgt>
  <wgt id="391">1.01331e-11</wgt>
  <wgt id="392">1.00389e-11</wgt>
  <wgt id="393">1.0208e-11</wgt>
  <wgt id="394">1.01416e-11</wgt>
  <wgt id="395">1.01534e-11</wgt>
  <wgt id="396">1.01768e-11</wgt>
  <wgt id="397">1.01253e-11</wgt>
  <wgt id="398">1.01652e-11</wgt>
  <wgt id="399">1.01298e-11</wgt>
  <wgt id="400">1.01298e-11</wgt>
  <wgt id="401">1.01859e-11</wgt>
  <wgt id="402">1.00125e-11</wgt>
  <wgt id="403">1.02712e-11</wgt>
  <wgt id="404">1.05779e-11</wgt>
  <wgt id="405">9.14763e-12</wgt>
  <wgt id="406">9.83367e-12</wgt>
  <wgt id="407">1.08618e-11</wgt>
  <wgt id="408">1.03106e-11</wgt>
  <wgt id="409">9.85345e-12</wgt>
  <wgt id="410">9.64869e-12</wgt>
  <wgt id="411">1.03958e-11</wgt>
  <wgt id="412">1.01136e-11</wgt>
  <wgt id="413">1.01922e-11</wgt>
  <wgt id="414">9.95168e-12</wgt>
  <wgt id="415">1.02981e-11</wgt>
  <wgt id="416">1.06801e-11</wgt>
  <wgt id="417">9.43051e-12</wgt>
  <wgt id="418">1.01806e-11</wgt>
  <wgt id="419">9.9629e-12</wgt>
  <wgt id="420">1.06181e-11</wgt>
  <wgt id="421">9.81136e-12</wgt>
  <wgt id="422">9.97694e-12</wgt>
  <wgt id="423">1.02214e-11</wgt>
  <wgt id="424">1.06848e-11</wgt>
  <wgt id="425">9.76592e-12</wgt>
  <wgt id="426">1.01464e-11</wgt>
  <wgt id="427">9.69639e-12</wgt>
  <wgt id="428">1.10657e-11</wgt>
  <wgt id="429">1.03921e-11</wgt>
  <wgt id="430">1.08867e-11</wgt>
  <wgt id="431">1.07789e-11</wgt>
  <wgt id="432">1.06908e-11</wgt>
  <wgt id="433">1.06035e-11</wgt>
  <wgt id="434">1.04841e-11</wgt>
  <wgt id="435">1.02797e-11</wgt>
  <wgt id="436">1.01802e-11</wgt>
  <wgt id="437">1.00788e-11</wgt>
  <wgt id="438">1.03921e-11</wgt>
  <wgt id="439">1.04189e-11</wgt>
  <wgt id="440">1.03996e-11</wgt>
  <wgt id="441">1.03894e-11</wgt>
  <wgt id="442">1.03877e-11</wgt>
  <wgt id="443">7.79994e-12</wgt>
  <wgt id="444">7.94272e-12</wgt>
  <wgt id="445">8.0433e-12</wgt>
  <wgt id="446">7.75497e-12</wgt>
  <wgt id="447">7.78444e-12</wgt>
  <wgt id="448">7.6536e-12</wgt>
  <wgt id="449">8.08466e-12</wgt>
  <wgt id="450">8.03165e-12</wgt>
  <wgt id="451">7.77564e-12</wgt>
  <wgt id="452">7.94967e-12</wgt>
  <wgt id="453">8.03038e-12</wgt>
  <wgt id="454">7.24673e-12</wgt>
  <wgt id="455">7.95459e-12</wgt>
  <wgt id="456">8.11124e-12</wgt>
  <wgt id="457">7.81925e-12</wgt>
  <wgt id="458">7.99489e-12</wgt>
  <wgt id="459">7.8707e-12</wgt>
  <wgt id="460">8.14098e-12</wgt>
  <wgt id="461">7.54021e-12</wgt>
  <wgt id="462">7.73665e-12</wgt>
  <wgt id="463">7.62579e-12</wgt>
  <wgt id="464">7.78403e-12</wgt>
  <wgt id="465">7.87274e-12</wgt>
  <wgt id="466">7.40016e-12</wgt>
  <wgt id="467">7.76941e-12</wgt>
  <wgt id="468">7.83923e-12</wgt>
  <wgt id="469">7.76355e-12</wgt>
  <wgt id="470">7.5988e-12</wgt>
  <wgt id="471">7.63777e-12</wgt>
  <wgt id="472">7.87597e-12</wgt>
  <wgt id="473">7.49134e-12</wgt>
  <wgt id="474">5.79e-12</wgt>
  <wgt id="475">5.95209e-12</wgt>
  <wgt id="476">6.06891e-12</wgt>
  <wgt id="477">6.45466e-12</wgt>
  <wgt id="478">6.32663e-12</wgt>
  <wgt id="479">4.89593e-12</wgt>
  <wgt id="480">6.44109e-12</wgt>
  <wgt id="481">5.99734e-12</wgt>
  <wgt id="482">6.53675e-12</wgt>
  <wgt id="483">6.63299e-12</wgt>
  <wgt id="484">6.41376e-12</wgt>
  <wgt id="485">5.21569e-12</wgt>
  <wgt id="486">6.1644e-12</wgt>
  <wgt id="487">5.35805e-12</wgt>
  <wgt id="488">5.31821e-12</wgt>
  <wgt id="489">4.30238e-12</wgt>
  <wgt id="490">6.07219e-12</wgt>
  <wgt id="491">5.68017e-12</wgt>
  <wgt id="492">5.74972e-12</wgt>
  <wgt id="493">4.58349e-12</wgt>
  <wgt id="494">4.55013e-12</wgt>
  <wgt id="495">6.32753e-12</wgt>
  <wgt id="496">4.77731e-12</wgt>
  <wgt id="497">5.27006e-12</wgt>
  <wgt id="498">5.87846e-12</wgt>
  <wgt id="499">5.99147e-12</wgt>
  <wgt id="500">6.43484e-12</wgt>
  <wgt id="501">6.38091e-12</wgt>
  <wgt id="502">6.94426e-12</wgt>
  <wgt id="503">5.56184e-12</wgt>
  <wgt id="504">6.07152e-12</wgt>
  <wgt id="505">6.52279e-12</wgt>
  <wgt id="506">4.61957e-12</wgt>
  <wgt id="507">5.17901e-12</wgt>
  <wgt id="508">6.17078e-12</wgt>
  <wgt id="509">6.07424e-12</wgt>
  <wgt id="510">5.41385e-12</wgt>
  <wgt id="511">5.44089e-12</wgt>
  <wgt id="512">6.38622e-12</wgt>
  <wgt id="513">6.69657e-12</wgt>
  <wgt id="514">6.76876e-12</wgt>
  <wgt id="515">6.85991e-12</wgt>
  <wgt id="516">6.87597e-12</wgt>
  <wgt id="517">5.87862e-12</wgt>
  <wgt id="518">6.5376e-12</wgt>
  <wgt id="519">5.76529e-12</wgt>
  <wgt id="520">5.18626e-12</wgt>
  <wgt id="521">5.19968e-12</wgt>
  <wgt id="522">5.60742e-12</wgt>
  <wgt id="523">5.73578e-12</wgt>
  <wgt id="524">6.01413e-12</wgt>
  <wgt id="525">5.72149e-12</wgt>
  <wgt id="526">6.48e-12</wgt>
  <wgt id="527">5.78454e-12</wgt>
  <wgt id="528">5.19785e-12</wgt>
  <wgt id="529">4.43018e-12</wgt>
  <wgt id="530">6.48345e-12</wgt>
  <wgt id="531">5.39063e-12</wgt>
  <wgt id="532">6.07083e-12</wgt>
  <wgt id="533">6.19082e-12</wgt>
  <wgt id="534">4.95779e-12</wgt>
  <wgt id="535">6.38329e-12</wgt>
  <wgt id="536">6.48407e-12</wgt>
  <wgt id="537">4.90439e-12</wgt>
  <wgt id="538">5.62657e-12</wgt>
  <wgt id="539">5.70002e-12</wgt>
  <wgt id="540">5.3797e-12</wgt>
  <wgt id="541">5.76922e-12</wgt>
  <wgt id="542">5.02566e-12</wgt>
  <wgt id="543">5.04756e-12</wgt>
  <wgt id="544">5.528e-12</wgt>
  <wgt id="545">5.07225e-12</wgt>
  <wgt id="546">5.04436e-12</wgt>
  <wgt id="547">5.23374e-12</wgt>
  <wgt id="548">6.25897e-12</wgt>
  <wgt id="549">5.6599e-12</wgt>
  <wgt id="550">4.59527e-12</wgt>
  <wgt id="551">5.24327e-12</wgt>
  <wgt id="552">6.35269e-12</wgt>
  <wgt id="553">4.8621e-12</wgt>
  <wgt id="554">5.7239e-12</wgt>
  <wgt id="555">5.65267e-12</wgt>
  <wgt id="556">6.07219e-12</wgt>
  <wgt id="557">5.42708e-12</wgt>
  <wgt id="558">5.7034e-12</wgt>
  <wgt id="559">6.22929e-12</wgt>
  <wgt id="560">6.24651e-12</wgt>
  <wgt id="561">6.70449e-12</wgt>
  <wgt id="562">6.15355e-12</wgt>
  <wgt id="563">6.11722e-12</wgt>
  <wgt id="564">6.61763e-12</wgt>
  <wgt id="565">6.90081e-12</wgt>
  <wgt id="566">4.68082e-12</wgt>
  <wgt id="567">6.2222e-12</wgt>
  <wgt id="568">4.86224e-12</wgt>
  <wgt id="569">5.99089e-12</wgt>
  <wgt id="570">6.37111e-12</wgt>
  <wgt id="571">6.67604e-12</wgt>
  <wgt id="572">5.03027e-12</wgt>
  <wgt id="573">5.66046e-12</wgt>
  <wgt id="574">5.86842e-12</wgt>
  <wgt id="575">6.14576e-12</wgt>
  <wgt id="576">6.96943e-12</wgt>
  <wgt id="577">6.07124e-12</wgt>
  <wgt id="578">5.20869e-12</wgt>
  <wgt id="579">6.41335e-12</wgt>
  <wgt id="580">6.17477e-12</wgt>
  <wgt id="581">6.90876e-12</wgt>
  <wgt id="582">6.54269e-12</wgt>
  <wgt id="583">6.79433e-12</wgt>
  <wgt id="584">6.31938e-12</wgt>
  <wgt id="585">5.44885e-12</wgt>
  <wgt id="586">5.65101e-12</wgt>
  <wgt id="587">6.31652e-12</wgt>
  <wgt id="588">7.96718e-12</wgt>
  <wgt id="589">7.33276e-12</wgt>
  <wgt id="590">6.48799e-12</wgt>
  <wgt id="591">6.49191e-12</wgt>
  <wgt id="592">6.31705e-12</wgt>
  <wgt id="593">5.94526e-12</wgt>
  <wgt id="594">5.77205e-12</wgt>
  <wgt id="595">7.20438e-12</wgt>
  <wgt id="596">6.73055e-12</wgt>
  <wgt id="597">6.10316e-12</wgt>
  <wgt id="598">7.11586e-12</wgt>
  <wgt id="599">7.09595e-12</wgt>
  <wgt id="600">7.41797e-12</wgt>
  <wgt id="601">5.78469e-12</wgt>
  <wgt id="602">5.28597e-12</wgt>
  <wgt id="603">5.02788e-12</wgt>
  <wgt id="604">6.95377e-12</wgt>
  <wgt id="605">5.77096e-12</wgt>
  <wgt id="606">5.1419e-12</wgt>
  <wgt id="607">6.71709e-12</wgt>
  <wgt id="608">6.24851e-12</wgt>
  <wgt id="609">5.80613e-12</wgt>
  <wgt id="610">5.42717e-12</wgt>
  <wgt id="611">5.457e-12</wgt>
  <wgt id="612">5.88026e-12</wgt>
  <wgt id="613">5.46244e-12</wgt>
  <wgt id="614">6.47815e-12</wgt>
  <wgt id="615">6.88704e-12</wgt>
  <wgt id="616">4.86126e-12</wgt>
  <wgt id="617">6.48233e-12</wgt>
  <wgt id="618">6.99612e-12</wgt>
  <wgt id="619">5.98086e-12</wgt>
  <wgt id="620">6.21514e-12</wgt>
  <wgt id="621">6.2514e-12</wgt>
  <wgt id="622">6.31652e-12</wgt>
  <wgt id="623">5.98606e-12</wgt>
  <wgt id="624">5.79342e-12</wgt>
  <wgt id="625">5.69576e-12</wgt>
  <wgt id="626">3.55227e-12</wgt>
  <wgt id="627">5.14581e-12</wgt>
  <wgt id="628">6.23697e-12</wgt>
  <wgt id="629">7.9244e-12</wgt>
  <wgt id="630">6.53302e-12</wgt>
  <wgt id="631">7.06293e-12</wgt>
  <wgt id="632">5.54141e-12</wgt>
  <wgt id="633">6.1126e-12</wgt>
  <wgt id="634">5.35146e-12</wgt>
  <wgt id="635">5.82177e-12</wgt>
  <wgt id="636">5.58395e-12</wgt>
  <wgt id="637">6.52902e-12</wgt>
  <wgt id="638">5.6298e-12</wgt>
  <wgt id="639">5.32685e-12</wgt>
  <wgt id="640">5.36641e-12</wgt>
  <wgt id="641">6.91331e-12</wgt>
  <wgt id="642">4.86919e-12</wgt>
  <wgt id="643">5.82552e-12</wgt>
  <wgt id="644">5.89267e-12</wgt>
  <wgt id="645">6.51338e-12</wgt>
  <wgt id="646">4.64762e-12</wgt>
  <wgt id="647">7.00894e-12</wgt>
  <wgt id="648">7.10436e-12</wgt>
  <wgt id="649">6.61446e-12</wgt>
  <wgt id="650">6.33989e-12</wgt>
  <wgt id="651">6.31027e-12</wgt>
  <wgt id="652">5.61585e-12</wgt>
  <wgt id="653">5.85292e-12</wgt>
  <wgt id="654">6.01629e-12</wgt>
  <wgt id="655">5.11531e-12</wgt>
  <wgt id="656">6.6298e-12</wgt>
  <wgt id="657">7.13803e-12</wgt>
  <wgt id="658">5.71877e-12</wgt>
  <wgt id="659">6.18973e-12</wgt>
  <wgt id="660">5.21549e-12</wgt>
  <wgt id="661">5.73492e-12</wgt>
  <wgt id="662">6.29025e-12</wgt>
  <wgt id="663">6.67584e-12</wgt>
  <wgt id="664">6.94418e-12</wgt>
  <wgt id="665">5.70539e-12</wgt>
  <wgt id="666">5.83751e-12</wgt>
  <wgt id="667">6.33556e-12</wgt>
  <wgt id="668">5.98286e-12</wgt>
  <wgt id="669">5.67386e-12</wgt>
  <wgt id="670">6.79626e-12</wgt>
  <wgt id="671">6.35346e-12</wgt>
  <wgt id="672">6.93878e-12</wgt>
  <wgt id="673">7.0894e-12</wgt>
  <wgt id="674">5.84099e-12</wgt>
  <wgt id="675">5.52456e-12</wgt>
  <wgt id="676">8.29838e-12</wgt>
  <wgt id="677">8.14544e-12</wgt>
  <wgt id="678">9.85738e-12</wgt>
  <wgt id="679">9.67184e-12</wgt>
  <wgt id="680">8.66355e-12</wgt>
  <wgt id="681">7.78764e-12</wgt>
  <wgt id="682">9.28276e-12</wgt>
  <wgt id="683">7.08175e-12</wgt>
  <wgt id="684">9.65736e-12</wgt>
  <wgt id="685">8.83749e-12</wgt>
  <wgt id="686">9.04399e-12</wgt>
  <wgt id="687">7.84706e-12</wgt>
  <wgt id="688">8.34953e-12</wgt>
  <wgt id="689">9.96667e-12</wgt>
  <wgt id="690">9.08253e-12</wgt>
  <wgt id="691">8.94937e-12</wgt>
  <wgt id="692">7.60645e-12</wgt>
  <wgt id="693">1.39208e-11</wgt>
  <wgt id="694">1.01741e-11</wgt>
  <wgt id="695">6.64289e-12</wgt>
  <wgt id="696">6.70021e-12</wgt>
  <wgt id="697">6.09774e-12</wgt>
  <wgt id="698">5.29454e-12</wgt>
  <wgt id="699">6.74768e-12</wgt>
  <wgt id="700">6.53649e-12</wgt>
  <wgt id="701">8.51505e-12</wgt>
  <wgt id="702">7.31841e-12</wgt>
  <wgt id="703">1.27055e-11</wgt>
  <wgt id="704">1.00298e-11</wgt>
  <wgt id="705">9.01903e-12</wgt>
  <wgt id="706">6.39607e-12</wgt>
  <wgt id="707">7.18877e-12</wgt>
  <wgt id="708">7.14767e-12</wgt>
  <wgt id="709">7.27975e-12</wgt>
  <wgt id="710">3.8976e-12</wgt>
  <wgt id="711">9.71395e-12</wgt>
  <wgt id="712">7.58824e-12</wgt>
  <wgt id="713">9.10711e-12</wgt>
  <wgt id="714">6.20836e-12</wgt>
  <wgt id="715">6.93063e-12</wgt>
  <wgt id="716">7.55503e-12</wgt>
  <wgt id="717">5.58502e-12</wgt>
  <wgt id="718">8.39411e-12</wgt>
  <wgt id="719">7.63147e-12</wgt>
  <wgt id="720">8.66781e-12</wgt>
  <wgt id="721">6.47203e-12</wgt>
  <wgt id="722">3.76999e-12</wgt>
  <wgt id="723">1.10125e-11</wgt>
  <wgt id="724">9.5682e-12</wgt>
  <wgt id="725">9.15711e-12</wgt>
  <wgt id="726">8.17045e-12</wgt>
  <wgt id="727">8.70868e-12</wgt>
  <wgt id="728">9.85442e-12</wgt>
  <wgt id="729">5.56619e-12</wgt>
  <wgt id="730">1.02681e-11</wgt>
  <wgt id="731">8.23865e-12</wgt>
  <wgt id="732">1.02583e-11</wgt>
  <wgt id="733">7.17187e-12</wgt>
  <wgt id="734">8.83291e-12</wgt>
  <wgt id="735">7.24997e-12</wgt>
  <wgt id="736">6.9245e-12</wgt>
  <wgt id="737">4.74583e-12</wgt>
  <wgt id="738">7.39327e-12</wgt>
  <wgt id="739">8.28203e-12</wgt>
  <wgt id="740">1.15224e-11</wgt>
  <wgt id="741">1.00931e-11</wgt>
  <wgt id="742">6.35063e-12</wgt>
  <wgt id="743">7.29651e-12</wgt>
  <wgt id="744">7.56709e-12</wgt>
  <wgt id="745">1.03276e-11</wgt>
  <wgt id="746">1.08344e-11</wgt>
  <wgt id="747">6.19009e-12</wgt>
  <wgt id="748">7.71476e-12</wgt>
  <wgt id="749">9.59203e-12</wgt>
  <wgt id="750">9.70289e-12</wgt>
  <wgt id="751">8.77653e-12</wgt>
  <wgt id="752">6.88339e-12</wgt>
  <wgt id="753">6.71005e-12</wgt>
  <wgt id="754">8.63999e-12</wgt>
  <wgt id="755">7.391e-12</wgt>
  <wgt id="756">7.45568e-12</wgt>
  <wgt id="757">6.49925e-12</wgt>
  <wgt id="758">8.17243e-12</wgt>
  <wgt id="759">8.86616e-12</wgt>
  <wgt id="760">6.89877e-12</wgt>
  <wgt id="761">1.0407e-11</wgt>
  <wgt id="762">1.05214e-11</wgt>
  <wgt id="763">1.06209e-11</wgt>
  <wgt id="764">1.0038e-11</wgt>
  <wgt id="765">8.96504e-12</wgt>
  <wgt id="766">9.33985e-12</wgt>
  <wgt id="767">9.09453e-12</wgt>
  <wgt id="768">6.94165e-12</wgt>
  <wgt id="769">8.58641e-12</wgt>
  <wgt id="770">5.41964e-12</wgt>
  <wgt id="771">1.2251e-11</wgt>
  <wgt id="772">7.5787e-12</wgt>
  <wgt id="773">9.13336e-12</wgt>
  <wgt id="774">6.00277e-12</wgt>
  <wgt id="775">9.26437e-12</wgt>
  <wgt id="776">1.22076e-11</wgt>
  <wgt id="777">5.1186e-12</wgt>
  <wgt id="778">3.73637e-12</wgt>
  <wgt id="779">6.90562e-20</wgt>
  <wgt id="780">6.86712e-20</wgt>
  <wgt id="781">2.84197e-12</wgt>
  <wgt id="782">3.84425e-12</wgt>
  <wgt id="783">6.91856e-20</wgt>
  <wgt id="784">6.94766e-20</wgt>
  <wgt id="785">8.05968e-12</wgt>
  <wgt id="786">6.83895e-20</wgt>
  <wgt id="787">6.85907e-12</wgt>
  <wgt id="788">6.68171e-20</wgt>
  <wgt id="789">7.28264e-20</wgt>
  <wgt id="790">6.83933e-20</wgt>
  <wgt id="791">3.24586e-12</wgt>
  <wgt id="792">5.22553e-12</wgt>
  <wgt id="793">3.52295e-14</wgt>
  <wgt id="794">6.80842e-20</wgt>
  <wgt id="795">7.4735e-12</wgt>
  <wgt id="796">8.05947e-12</wgt>
  <wgt id="797">6.2943e-12</wgt>
  <wgt id="798">6.83062e-20</wgt>
  <wgt id="799">7.58268e-12</wgt>
  <wgt id="800">7.02509e-20</wgt>
  <wgt id="801">6.20269e-12</wgt>
  <wgt id="802">6.95948e-20</wgt>
  <wgt id="803">7.01729e-12</wgt>
  <wgt id="804">7.86918e-12</wgt>
  <wgt id="805">7.54996e-12</wgt>
  <wgt id="806">4.95416e-12</wgt>
  <wgt id="807">3.12516e-12</wgt>
  <wgt id="808">4.71951e-12</wgt>
  <wgt id="809">1.40074e-12</wgt>
  <wgt id="810">1.06413e-11</wgt>
  <wgt id="811">4.73632e-12</wgt>
  <wgt id="812">6.92864e-20</wgt>
  <wgt id="813">6.87059e-20</wgt>
  <wgt id="814">2.64272e-13</wgt>
  <wgt id="815">6.89322e-20</wgt>
  <wgt id="816">6.99259e-20</wgt>
  <wgt id="817">4.70548e-12</wgt>
  <wgt id="818">6.94922e-12</wgt>
  <wgt id="819">6.96667e-20</wgt>
  <wgt id="820">1.80697e-12</wgt>
  <wgt id="821">6.01364e-12</wgt>
  <wgt id="822">7.06277e-20</wgt>
  <wgt id="823">7.43474e-12</wgt>
  <wgt id="824">6.41589e-12</wgt>
  <wgt id="825">6.81367e-20</wgt>
  <wgt id="826">7.90679e-12</wgt>
  <wgt id="827">6.89899e-20</wgt>
  <wgt id="828">5.60898e-12</wgt>
  <wgt id="829">4.20644e-12</wgt>
  <wgt id="830">6.8573e-20</wgt>
  <wgt id="831">6.30001e-12</wgt>
  <wgt id="832">1.08212e-11</wgt>
  <wgt id="833">9.14335e-13</wgt>
  <wgt id="834">1.11311e-11</wgt>
  <wgt id="835">6.96335e-20</wgt>
  <wgt id="836">7.32056e-20</wgt>
  <wgt id="837">6.01528e-12</wgt>
  <wgt id="838">6.96235e-20</wgt>
  <wgt id="839">7.34551e-12</wgt>
  <wgt id="840">2.29932e-12</wgt>
  <wgt id="841">7.09727e-12</wgt>
  <wgt id="842">2.92991e-12</wgt>
  <wgt id="843">2.88052e-12</wgt>
  <wgt id="844">5.95587e-12</wgt>
  <wgt id="845">1.08953e-11</wgt>
  <wgt id="846">7.24595e-20</wgt>
  <wgt id="847">5.18659e-12</wgt>
  <wgt id="848">7.01792e-20</wgt>
  <wgt id="849">6.03514e-12</wgt>
  <wgt id="850">9.85164e-12</wgt>
  <wgt id="851">6.17516e-12</wgt>
  <wgt id="852">6.97123e-20</wgt>
  <wgt id="853">6.40764e-12</wgt>
  <wgt id="854">8.74309e-12</wgt>
  <wgt id="855">5.25934e-12</wgt>
  <wgt id="856">6.83336e-20</wgt>
  <wgt id="857">1.43634e-13</wgt>
  <wgt id="858">4.95772e-12</wgt>
  <wgt id="859">2.85171e-12</wgt>
  <wgt id="860">3.69226e-12</wgt>
  <wgt id="861">4.03656e-14</wgt>
  <wgt id="862">4.77489e-12</wgt>
  <wgt id="863">6.30057e-12</wgt>
  <wgt id="864">3.52817e-12</wgt>
  <wgt id="865">9.71724e-12</wgt>
  <wgt id="866">1.00696e-11</wgt>
  <wgt id="867">3.94135e-12</wgt>
  <wgt id="868">5.70996e-12</wgt>
  <wgt id="869">6.8778e-20</wgt>
  <wgt id="870">6.94499e-20</wgt>
  <wgt id="871">1.38595e-12</wgt>
  <wgt id="872">1.00445e-11</wgt>
  <wgt id="873">6.65705e-13</wgt>
  <wgt id="874">5.74865e-12</wgt>
  <wgt id="875">6.88762e-20</wgt>
  <wgt id="876">8.92803e-12</wgt>
  <wgt id="877">5.74134e-12</wgt>
  <wgt id="878">7.02342e-20</wgt>
  <wgt id="879">8.29838e-12</wgt>
  <wgt id="880">8.14544e-12</wgt>
  <wgt id="881">9.85738e-12</wgt>
  <wgt id="882">9.67184e-12</wgt>
  <wgt id="883">8.66355e-12</wgt>
  <wgt id="884">7.78764e-12</wgt>
  <wgt id="885">9.28276e-12</wgt>
  <wgt id="886">7.08175e-12</wgt>
  <wgt id="887">9.65736e-12</wgt>
  <wgt id="888">8.83749e-12</wgt>
  <wgt id="889">9.04399e-12</wgt>
  <wgt id="890">7.84706e-12</wgt>
  <wgt id="891">8.34953e-12</wgt>
  <wgt id="892">9.96667e-12</wgt>
  <wgt id="893">9.08253e-12</wgt>
  <wgt id="894">8.94937e-12</wgt>
  <wgt id="895">7.60645e-12</wgt>
  <wgt id="896">1.39208e-11</wgt>
  <wgt id="897">1.01741e-11</wgt>
  <wgt id="898">6.64289e-12</wgt>
  <wgt id="899">6.70021e-12</wgt>
  <wgt id="900">6.09774e-12</wgt>
  <wgt id="901">5.29454e-12</wgt>
  <wgt id="902">6.74768e-12</wgt>
  <wgt id="903">6.53649e-12</wgt>
  <wgt id="904">8.51505e-12</wgt>
  <wgt id="905">7.31841e-12</wgt>
  <wgt id="906">1.27055e-11</wgt>
  <wgt id="907">1.00298e-11</wgt>
  <wgt id="908">9.01903e-12</wgt>
  <wgt id="909">6.39607e-12</wgt>
  <wgt id="910">7.18877e-12</wgt>
  <wgt id="911">7.14767e-12</wgt>
  <wgt id="912">7.27975e-12</wgt>
  <wgt id="913">3.8976e-12</wgt>
  <wgt id="914">9.71395e-12</wgt>
  <wgt id="915">7.58824e-12</wgt>
  <wgt id="916">9.10711e-12</wgt>
  <wgt id="917">6.20836e-12</wgt>
  <wgt id="918">6.93063e-12</wgt>
  <wgt id="919">7.55503e-12</wgt>
  <wgt id="920">5.58502e-12</wgt>
  <wgt id="921">8.39411e-12</wgt>
  <wgt id="922">7.63147e-12</wgt>
  <wgt id="923">8.66781e-12</wgt>
  <wgt id="924">6.47203e-12</wgt>
  <wgt id="925">3.76999e-12</wgt>
  <wgt id="926">1.10125e-11</wgt>
  <wgt id="927">9.5682e-12</wgt>
  <wgt id="928">9.15711e-12</wgt>
  <wgt id="929">8.17045e-12</wgt>
  <wgt id="930">8.70868e-12</wgt>
  <wgt id="931">9.85442e-12</wgt>
  <wgt id="932">5.56619e-12</wgt>
  <wgt id="933">1.02681e-11</wgt>
  <wgt id="934">8.23865e-12</wgt>
  <wgt id="935">1.02583e-11</wgt>
  <wgt id="936">7.17187e-12</wgt>
  <wgt id="937">8.83291e-12</wgt>
  <wgt id="938">7.24997e-12</wgt>
  <wgt id="939">6.9245e-12</wgt>
  <wgt id="940">4.74583e-12</wgt>
  <wgt id="941">7.39327e-12</wgt>
  <wgt id="942">8.28203e-12</wgt>
  <wgt id="943">1.15224e-11</wgt>
  <wgt id="944">1.00931e-11</wgt>
  <wgt id="945">6.35063e-12</wgt>
  <wgt id="946">7.29651e-12</wgt>
  <wgt id="947">7.56709e-12</wgt>
  <wgt id="948">1.03276e-11</wgt>
  <wgt id="949">1.08344e-11</wgt>
  <wgt id="950">6.19009e-12</wgt>
  <wgt id="951">7.71476e-12</wgt>
  <wgt id="952">9.59203e-12</wgt>
  <wgt id="953">9.70289e-12</wgt>
  <wgt id="954">8.77653e-12</wgt>
  <wgt id="955">6.88339e-12</wgt>
  <wgt id="956">6.71005e-12</wgt>
  <wgt id="957">8.63999e-12</wgt>
  <wgt id="958">7.391e-12</wgt>
  <wgt id="959">7.45568e-12</wgt>
  <wgt id="960">6.49925e-12</wgt>
  <wgt id="961">8.17243e-12</wgt>
  <wgt id="962">8.86616e-12</wgt>
  <wgt id="963">6.89877e-12</wgt>
  <wgt id="964">1.0407e-11</wgt>
  <wgt id="965">1.05214e-11</wgt>
  <wgt id="966">1.06209e-11</wgt>
  <wgt id="967">1.0038e-11</wgt>
  <wgt id="968">8.96504e-12</wgt>
  <wgt id="969">9.33985e-12</wgt>
  <wgt id="970">9.09453e-12</wgt>
  <wgt id="971">6.94165e-12</wgt>
  <wgt id="972">8.58641e-12</wgt>
  <wgt id="973">5.41964e-12</wgt>
  <wgt id="974">1.2251e-11</wgt>
  <wgt id="975">7.5787e-12</wgt>
  <wgt id="976">9.13336e-12</wgt>
  <wgt id="977">6.00277e-12</wgt>
  <wgt id="978">9.26437e-12</wgt>
  <wgt id="979">1.22076e-11</wgt>
  <wgt id="980">8.1792e-12</wgt>
  <wgt id="981">9.01094e-12</wgt>
  <wgt id="982">8.38205e-12</wgt>
</rwgt>
</event>
<event>
 5   1  0.5790000E-11  0.2232697E+04  0.7818608E-02  0.7736664E-01
       21   -1    0    0  502  501  0.00000000000E+00  0.00000000000E+00  0.13548618704E+04  0.13548618704E+04  0.00000000000E+00 0.  1.
       21   -1    0    0  501  502 -0.00000000000E+00 -0.00000000000E+00 -0.91982346363E+03  0.91982346363E+03  0.00000000000E+00 0. -1.
       39    2    1    2    0    0  0.00000000000E+00  0.00000000000E+00  0.43503840676E+03  0.22746853340E+04  0.22326967894E+04 0.  0.
       25    1    3    3    0    0  0.22440806172E+03  0.91294444235E+03 -0.38243759896E+03  0.10225996529E+04  0.12500000000E+03 0.  0.
       25    1    3    3    0    0 -0.22440806172E+03 -0.91294444235E+03  0.81747600572E+03  0.12520856811E+04  0.12500000000E+03 0.  0.
<mgrwt>
<rscale>  0 0.22326968E+04</rscale>
<asrwt>0</asrwt>
<pdfrwt beam="1">  1       21 0.20844029E+00 0.22326968E+04</pdfrwt>
<pdfrwt beam="2">  1       21 0.14151130E+00 0.22326968E+04</pdfrwt>
<totfact> 0.16275284E+01</totfact>
</mgrwt>
<rwgt>
  <wgt id="1">5.79e-12</wgt>
  <wgt id="2">5.0496e-12</wgt>
  <wgt id="3">6.70731e-12</wgt>
  <wgt id="4">5.79e-12</wgt>
  <wgt id="5">5.0496e-12</wgt>
  <wgt id="6">6.70731e-12</wgt>
  <wgt id="7">5.79e-12</wgt>
  <wgt id="8">5.0496e-12</wgt>
  <wgt id="9">6.70731e-12</wgt>
  <wgt id="10">5.97378e-12</wgt>
  <wgt id="11">5.96832e-12</wgt>
  <wgt id="12">5.96269e-12</wgt>
  <wgt id="13">5.95358e-12</wgt>
  <wgt id="14">5.99523e-12</wgt>
  <wgt id="15">5.98288e-12</wgt>
  <wgt id="16">5.96201e-12</wgt>
  <wgt id="17">5.98539e-12</wgt>
  <wgt id="18">5.96483e-12</wgt>
  <wgt id="19">5.98629e-12</wgt>
  <wgt id="20">5.95646e-12</wgt>
  <wgt id="21">5.93937e-12</wgt>
  <wgt id="22">5.95297e-12</wgt>
  <wgt id="23">5.92098e-12</wgt>
  <wgt id="24">5.94657e-12</wgt>
  <wgt id="25">5.95928e-12</wgt>
  <wgt id="26">5.99746e-12</wgt>
  <wgt id="27">5.97292e-12</wgt>
  <wgt id="28">5.94571e-12</wgt>
  <wgt id="29">5.97928e-12</wgt>
  <wgt id="30">5.95699e-12</wgt>
  <wgt id="31">5.99071e-12</wgt>
  <wgt id="32">5.96139e-12</wgt>
  <wgt id="33">5.98704e-12</wgt>
  <wgt id="34">5.95499e-12</wgt>
  <wgt id="35">5.96658e-12</wgt>
  <wgt id="36">5.99002e-12</wgt>
  <wgt id="37">5.95844e-12</wgt>
  <wgt id="38">5.9581e-12</wgt>
  <wgt id="39">6.03613e-12</wgt>
  <wgt id="40">5.98669e-12</wgt>
  <wgt id="41">5.9721e-12</wgt>
  <wgt id="42">5.98936e-12</wgt>
  <wgt id="43">5.97662e-12</wgt>
  <wgt id="44">5.95426e-12</wgt>
  <wgt id="45">5.98422e-12</wgt>
  <wgt id="46">5.98046e-12</wgt>
  <wgt id="47">5.95243e-12</wgt>
  <wgt id="48">5.97376e-12</wgt>
  <wgt id="49">5.98739e-12</wgt>
  <wgt id="50">6.00505e-12</wgt>
  <wgt id="51">5.99585e-12</wgt>
  <wgt id="52">5.96176e-12</wgt>
  <wgt id="53">5.93709e-12</wgt>
  <wgt id="54">5.96262e-12</wgt>
  <wgt id="55">5.97263e-12</wgt>
  <wgt id="56">5.99451e-12</wgt>
  <wgt id="57">5.99331e-12</wgt>
  <wgt id="58">5.93573e-12</wgt>
  <wgt id="59">5.95443e-12</wgt>
  <wgt id="60">5.97703e-12</wgt>
  <wgt id="61">5.96044e-12</wgt>
  <wgt id="62">5.96926e-12</wgt>
  <wgt id="63">5.97768e-12</wgt>
  <wgt id="64">5.97997e-12</wgt>
  <wgt id="65">5.981e-12</wgt>
  <wgt id="66">5.96622e-12</wgt>
  <wgt id="67">5.9608e-12</wgt>
  <wgt id="68">5.96831e-12</wgt>
  <wgt id="69">5.97334e-12</wgt>
  <wgt id="70">5.97116e-12</wgt>
  <wgt id="71">5.97187e-12</wgt>
  <wgt id="72">5.96582e-12</wgt>
  <wgt id="73">5.97774e-12</wgt>
  <wgt id="74">5.9764e-12</wgt>
  <wgt id="75">5.96972e-12</wgt>
  <wgt id="76">5.98757e-12</wgt>
  <wgt id="77">5.97279e-12</wgt>
  <wgt id="78">5.9751e-12</wgt>
  <wgt id="79">5.98481e-12</wgt>
  <wgt id="80">5.95142e-12</wgt>
  <wgt id="81">5.9673e-12</wgt>
  <wgt id="82">5.97389e-12</wgt>
  <wgt id="83">5.95283e-12</wgt>
  <wgt id="84">5.96371e-12</wgt>
  <wgt id="85">5.96287e-12</wgt>
  <wgt id="86">5.98802e-12</wgt>
  <wgt id="87">5.94574e-12</wgt>
  <wgt id="88">5.97986e-12</wgt>
  <wgt id="89">5.97903e-12</wgt>
  <wgt id="90">5.98279e-12</wgt>
  <wgt id="91">5.97846e-12</wgt>
  <wgt id="92">5.98424e-12</wgt>
  <wgt id="93">5.9742e-12</wgt>
  <wgt id="94">5.96884e-12</wgt>
  <wgt id="95">5.97858e-12</wgt>
  <wgt id="96">5.97721e-12</wgt>
  <wgt id="97">5.96566e-12</wgt>
  <wgt id="98">5.97632e-12</wgt>
  <wgt id="99">5.96911e-12</wgt>
  <wgt id="100">5.97878e-12</wgt>
  <wgt id="101">5.97296e-12</wgt>
  <wgt id="102">5.96857e-12</wgt>
  <wgt id="103">5.98108e-12</wgt>
  <wgt id="104">5.9709e-12</wgt>
  <wgt id="105">5.97997e-12</wgt>
  <wgt id="106">5.96618e-12</wgt>
  <wgt id="107">5.98882e-12</wgt>
  <wgt id="108">5.96829e-12</wgt>
  <wgt id="109">5.97443e-12</wgt>
  <wgt id="110">5.97382e-12</wgt>
  <wgt id="111">6.0372e-12</wgt>
  <wgt id="112">5.97019e-12</wgt>
  <wgt id="113">7.9538e-12</wgt>
  <wgt id="114">8.22017e-12</wgt>
  <wgt id="115">8.10518e-12</wgt>
  <wgt id="116">1.11735e-11</wgt>
  <wgt id="117">6.60486e-12</wgt>
  <wgt id="118">6.62698e-12</wgt>
  <wgt id="119">6.59243e-12</wgt>
  <wgt id="120">6.60569e-12</wgt>
  <wgt id="121">6.60466e-12</wgt>
  <wgt id="122">6.59311e-12</wgt>
  <wgt id="123">6.62103e-12</wgt>
  <wgt id="124">6.59522e-12</wgt>
  <wgt id="125">6.61106e-12</wgt>
  <wgt id="126">6.61624e-12</wgt>
  <wgt id="127">6.59743e-12</wgt>
  <wgt id="128">6.62557e-12</wgt>
  <wgt id="129">6.58457e-12</wgt>
  <wgt id="130">6.6429e-12</wgt>
  <wgt id="131">6.56611e-12</wgt>
  <wgt id="132">6.43655e-12</wgt>
  <wgt id="133">6.80385e-12</wgt>
  <wgt id="134">6.5359e-12</wgt>
  <wgt id="135">6.65884e-12</wgt>
  <wgt id="136">6.68678e-12</wgt>
  <wgt id="137">6.50585e-12</wgt>
  <wgt id="138">6.85281e-12</wgt>
  <wgt id="139">6.36501e-12</wgt>
  <wgt id="140">6.56064e-12</wgt>
  <wgt id="141">6.63944e-12</wgt>
  <wgt id="142">6.60578e-12</wgt>
  <wgt id="143">6.6138e-12</wgt>
  <wgt id="144">6.43271e-12</wgt>
  <wgt id="145">6.76381e-12</wgt>
  <wgt id="146">6.65956e-12</wgt>
  <wgt id="147">6.56183e-12</wgt>
  <wgt id="148">6.62446e-12</wgt>
  <wgt id="149">6.60341e-12</wgt>
  <wgt id="150">6.66103e-12</wgt>
  <wgt id="151">6.5787e-12</wgt>
  <wgt id="152">6.60778e-12</wgt>
  <wgt id="153">6.604e-12</wgt>
  <wgt id="154">6.66018e-12</wgt>
  <wgt id="155">6.53943e-12</wgt>
  <wgt id="156">6.7239e-12</wgt>
  <wgt id="157">6.4759e-12</wgt>
  <wgt id="158">7.94749e-12</wgt>
  <wgt id="159">7.98061e-12</wgt>
  <wgt id="160">7.92069e-12</wgt>
  <wgt id="161">7.92823e-12</wgt>
  <wgt id="162">7.96873e-12</wgt>
  <wgt id="163">7.9392e-12</wgt>
  <wgt id="164">7.95971e-12</wgt>
  <wgt id="165">7.95054e-12</wgt>
  <wgt id="166">7.94499e-12</wgt>
  <wgt id="167">7.94161e-12</wgt>
  <wgt id="168">7.95564e-12</wgt>
  <wgt id="169">7.91335e-12</wgt>
  <wgt id="170">7.96873e-12</wgt>
  <wgt id="171">7.93914e-12</wgt>
  <wgt id="172">7.95918e-12</wgt>
  <wgt id="173">7.94761e-12</wgt>
  <wgt id="174">7.9472e-12</wgt>
  <wgt id="175">7.72993e-12</wgt>
  <wgt id="176">8.23062e-12</wgt>
  <wgt id="177">7.98812e-12</wgt>
  <wgt id="178">7.90982e-12</wgt>
  <wgt id="179">8.26818e-12</wgt>
  <wgt id="180">7.43965e-12</wgt>
  <wgt id="181">7.72355e-12</wgt>
  <wgt id="182">8.09503e-12</wgt>
  <wgt id="183">7.81046e-12</wgt>
  <wgt id="184">8.01519e-12</wgt>
  <wgt id="185">7.88472e-12</wgt>
  <wgt id="186">8.02226e-12</wgt>
  <wgt id="187">7.87738e-12</wgt>
  <wgt id="188">8.07358e-12</wgt>
  <wgt id="189">7.89836e-12</wgt>
  <wgt id="190">7.96757e-12</wgt>
  <wgt id="191">7.9683e-12</wgt>
  <wgt id="192">7.93501e-12</wgt>
  <wgt id="193">8.05604e-12</wgt>
  <wgt id="194">7.89373e-12</wgt>
  <wgt id="195">7.77024e-12</wgt>
  <wgt id="196">8.2725e-12</wgt>
  <wgt id="197">7.98582e-12</wgt>
  <wgt id="198">7.93823e-12</wgt>
  <wgt id="199">7.94749e-12</wgt>
  <wgt id="200">8.01357e-12</wgt>
  <wgt id="201">7.98935e-12</wgt>
  <wgt id="202">7.96566e-12</wgt>
  <wgt id="203">7.93006e-12</wgt>
  <wgt id="204">7.91324e-12</wgt>
  <wgt id="205">7.89938e-12</wgt>
  <wgt id="206">7.72945e-12</wgt>
  <wgt id="207">7.77432e-12</wgt>
  <wgt id="208">7.68506e-12</wgt>
  <wgt id="209">7.75163e-12</wgt>
  <wgt id="210">7.71333e-12</wgt>
  <wgt id="211">7.72706e-12</wgt>
  <wgt id="212">7.73134e-12</wgt>
  <wgt id="213">7.72886e-12</wgt>
  <wgt id="214">7.73049e-12</wgt>
  <wgt id="215">7.73465e-12</wgt>
  <wgt id="216">7.72562e-12</wgt>
  <wgt id="217">7.75066e-12</wgt>
  <wgt id="218">7.71282e-12</wgt>
  <wgt id="219">7.72045e-12</wgt>
  <wgt id="220">7.73505e-12</wgt>
  <wgt id="221">7.72593e-12</wgt>
  <wgt id="222">7.73751e-12</wgt>
  <wgt id="223">7.33222e-12</wgt>
  <wgt id="224">8.09034e-12</wgt>
  <wgt id="225">7.6403e-12</wgt>
  <wgt id="226">7.84123e-12</wgt>
  <wgt id="227">7.6585e-12</wgt>
  <wgt id="228">7.76067e-12</wgt>
  <wgt id="229">7.625e-12</wgt>
  <wgt id="230">7.78144e-12</wgt>
  <wgt id="231">7.94341e-12</wgt>
  <wgt id="232">7.55318e-12</wgt>
  <wgt id="233">7.69075e-12</wgt>
  <wgt id="234">7.78937e-12</wgt>
  <wgt id="235">7.58839e-12</wgt>
  <wgt id="236">7.86511e-12</wgt>
  <wgt id="237">7.63126e-12</wgt>
  <wgt id="238">7.76316e-12</wgt>
  <wgt id="239">7.68626e-12</wgt>
  <wgt id="240">7.80786e-12</wgt>
  <wgt id="241">7.65401e-12</wgt>
  <wgt id="242">7.82008e-12</wgt>
  <wgt id="243">7.81247e-12</wgt>
  <wgt id="244">7.77503e-12</wgt>
  <wgt id="245">7.72338e-12</wgt>
  <wgt id="246">7.78778e-12</wgt>
  <wgt id="247">7.72945e-12</wgt>
  <wgt id="248">7.79452e-12</wgt>
  <wgt id="249">7.76949e-12</wgt>
  <wgt id="250">7.74636e-12</wgt>
  <wgt id="251">7.71139e-12</wgt>
  <wgt id="252">7.69512e-12</wgt>
  <wgt id="253">7.68317e-12</wgt>
  <wgt id="254">7.56844e-12</wgt>
  <wgt id="255">7.57549e-12</wgt>
  <wgt id="256">7.56055e-12</wgt>
  <wgt id="257">7.57423e-12</wgt>
  <wgt id="258">7.5641e-12</wgt>
  <wgt id="259">7.61861e-12</wgt>
  <wgt id="260">7.51984e-12</wgt>
  <wgt id="261">7.57757e-12</wgt>
  <wgt id="262">7.5574e-12</wgt>
  <wgt id="263">7.56529e-12</wgt>
  <wgt id="264">7.57173e-12</wgt>
  <wgt id="265">7.56021e-12</wgt>
  <wgt id="266">7.58482e-12</wgt>
  <wgt id="267">7.57071e-12</wgt>
  <wgt id="268">7.56507e-12</wgt>
  <wgt id="269">7.5914e-12</wgt>
  <wgt id="270">7.55276e-12</wgt>
  <wgt id="271">7.55555e-12</wgt>
  <wgt id="272">7.58256e-12</wgt>
  <wgt id="273">7.54564e-12</wgt>
  <wgt id="274">7.58571e-12</wgt>
  <wgt id="275">7.53893e-12</wgt>
  <wgt id="276">7.59892e-12</wgt>
  <wgt id="277">7.52646e-12</wgt>
  <wgt id="278">7.60708e-12</wgt>
  <wgt id="279">7.42824e-12</wgt>
  <wgt id="280">7.7439e-12</wgt>
  <wgt id="281">7.53658e-12</wgt>
  <wgt id="282">7.56938e-12</wgt>
  <wgt id="283">7.36116e-12</wgt>
  <wgt id="284">7.82285e-12</wgt>
  <wgt id="285">7.22333e-12</wgt>
  <wgt id="286">7.85263e-12</wgt>
  <wgt id="287">7.59125e-12</wgt>
  <wgt id="288">7.5393e-12</wgt>
  <wgt id="289">7.61898e-12</wgt>
  <wgt id="290">7.4497e-12</wgt>
  <wgt id="291">7.54953e-12</wgt>
  <wgt id="292">7.57289e-12</wgt>
  <wgt id="293">7.51298e-12</wgt>
  <wgt id="294">7.62333e-12</wgt>
  <wgt id="295">7.43119e-12</wgt>
  <wgt id="296">7.73539e-12</wgt>
  <wgt id="297">7.57036e-12</wgt>
  <wgt id="298">7.5935e-12</wgt>
  <wgt id="299">7.54531e-12</wgt>
  <wgt id="300">7.62937e-12</wgt>
  <wgt id="301">7.47821e-12</wgt>
  <wgt id="302">7.8068e-12</wgt>
  <wgt id="303">7.51712e-12</wgt>
  <wgt id="304">7.59788e-12</wgt>
  <wgt id="305">7.60052e-12</wgt>
  <wgt id="306">7.60843e-12</wgt>
  <wgt id="307">7.59212e-12</wgt>
  <wgt id="308">7.60705e-12</wgt>
  <wgt id="309">7.59636e-12</wgt>
  <wgt id="310">7.65301e-12</wgt>
  <wgt id="311">7.55191e-12</wgt>
  <wgt id="312">7.60764e-12</wgt>
  <wgt id="313">7.59355e-12</wgt>
  <wgt id="314">7.59762e-12</wgt>
  <wgt id="315">7.60348e-12</wgt>
  <wgt id="316">7.59277e-12</wgt>
  <wgt id="317">7.61758e-12</wgt>
  <wgt id="318">7.6059e-12</wgt>
  <wgt id="319">7.59166e-12</wgt>
  <wgt id="320">7.6246e-12</wgt>
  <wgt id="321">7.58736e-12</wgt>
  <wgt id="322">7.58394e-12</wgt>
  <wgt id="323">7.62023e-12</wgt>
  <wgt id="324">7.58166e-12</wgt>
  <wgt id="325">7.61718e-12</wgt>
  <wgt id="326">7.57683e-12</wgt>
  <wgt id="327">7.63108e-12</wgt>
  <wgt id="328">7.56238e-12</wgt>
  <wgt id="329">7.62251e-12</wgt>
  <wgt id="330">7.81776e-12</wgt>
  <wgt id="331">7.39309e-12</wgt>
  <wgt id="332">7.57422e-12</wgt>
  <wgt id="333">7.60053e-12</wgt>
  <wgt id="334">7.43744e-12</wgt>
  <wgt id="335">7.80292e-12</wgt>
  <wgt id="336">7.34917e-12</wgt>
  <wgt id="337">7.90506e-12</wgt>
  <wgt id="338">7.68108e-12</wgt>
  <wgt id="339">7.52578e-12</wgt>
  <wgt id="340">7.64863e-12</wgt>
  <wgt id="341">7.47588e-12</wgt>
  <wgt id="342">7.58759e-12</wgt>
  <wgt id="343">7.59354e-12</wgt>
  <wgt id="344">7.54983e-12</wgt>
  <wgt id="345">7.65923e-12</wgt>
  <wgt id="346">7.45772e-12</wgt>
  <wgt id="347">7.76473e-12</wgt>
  <wgt id="348">7.60614e-12</wgt>
  <wgt id="349">7.62065e-12</wgt>
  <wgt id="350">7.57123e-12</wgt>
  <wgt id="351">7.67465e-12</wgt>
  <wgt id="352">7.5001e-12</wgt>
  <wgt id="353">7.85204e-12</wgt>
  <wgt id="354">7.52214e-12</wgt>
  <wgt id="355">7.6491e-12</wgt>
  <wgt id="356">7.56844e-12</wgt>
  <wgt id="357">7.63417e-12</wgt>
  <wgt id="358">7.60052e-12</wgt>
  <wgt id="359">7.59736e-12</wgt>
  <wgt id="360">7.61006e-12</wgt>
  <wgt id="361">7.59014e-12</wgt>
  <wgt id="362">7.71552e-12</wgt>
  <wgt id="363">7.6979e-12</wgt>
  <wgt id="364">7.6735e-12</wgt>
  <wgt id="365">7.64891e-12</wgt>
  <wgt id="366">7.62095e-12</wgt>
  <wgt id="367">7.56317e-12</wgt>
  <wgt id="368">7.53145e-12</wgt>
  <wgt id="369">7.49747e-12</wgt>
  <wgt id="370">7.59014e-12</wgt>
  <wgt id="371">7.62389e-12</wgt>
  <wgt id="372">7.60526e-12</wgt>
  <wgt id="373">7.57767e-12</wgt>
  <wgt id="374">7.57422e-12</wgt>
  <wgt id="375">8.05514e-12</wgt>
  <wgt id="376">8.05606e-12</wgt>
  <wgt id="377">8.0538e-12</wgt>
  <wgt id="378">8.08408e-12</wgt>
  <wgt id="379">8.02613e-12</wgt>
  <wgt id="380">8.07674e-12</wgt>
  <wgt id="381">8.04649e-12</wgt>
  <wgt id="382">8.09505e-12</wgt>
  <wgt id="383">8.01558e-12</wgt>
  <wgt id="384">8.06032e-12</wgt>
  <wgt id="385">8.05017e-12</wgt>
  <wgt id="386">8.08578e-12</wgt>
  <wgt id="387">8.04172e-12</wgt>
  <wgt id="388">8.04766e-12</wgt>
  <wgt id="389">8.06394e-12</wgt>
  <wgt id="390">8.07614e-12</wgt>
  <wgt id="391">8.03294e-12</wgt>
  <wgt id="392">7.99786e-12</wgt>
  <wgt id="393">8.08772e-12</wgt>
  <wgt id="394">8.06655e-12</wgt>
  <wgt id="395">8.03967e-12</wgt>
  <wgt id="396">8.05868e-12</wgt>
  <wgt id="397">8.05273e-12</wgt>
  <wgt id="398">8.02246e-12</wgt>
  <wgt id="399">8.08667e-12</wgt>
  <wgt id="400">8.0423e-12</wgt>
  <wgt id="401">8.08358e-12</wgt>
  <wgt id="402">7.99299e-12</wgt>
  <wgt id="403">8.08139e-12</wgt>
  <wgt id="404">8.23145e-12</wgt>
  <wgt id="405">7.62914e-12</wgt>
  <wgt id="406">7.92821e-12</wgt>
  <wgt id="407">8.32931e-12</wgt>
  <wgt id="408">8.12016e-12</wgt>
  <wgt id="409">7.93022e-12</wgt>
  <wgt id="410">7.84641e-12</wgt>
  <wgt id="411">8.15108e-12</wgt>
  <wgt id="412">8.04168e-12</wgt>
  <wgt id="413">8.07427e-12</wgt>
  <wgt id="414">7.97167e-12</wgt>
  <wgt id="415">8.11991e-12</wgt>
  <wgt id="416">8.25322e-12</wgt>
  <wgt id="417">7.78095e-12</wgt>
  <wgt id="418">8.06543e-12</wgt>
  <wgt id="419">8.00011e-12</wgt>
  <wgt id="420">8.15784e-12</wgt>
  <wgt id="421">7.9996e-12</wgt>
  <wgt id="422">8.04858e-12</wgt>
  <wgt id="423">8.06006e-12</wgt>
  <wgt id="424">8.20092e-12</wgt>
  <wgt id="425">7.96498e-12</wgt>
  <wgt id="426">8.05514e-12</wgt>
  <wgt id="427">7.99261e-12</wgt>
  <wgt id="428">8.24318e-12</wgt>
  <wgt id="429">8.12071e-12</wgt>
  <wgt id="430">8.33734e-12</wgt>
  <wgt id="431">8.29407e-12</wgt>
  <wgt id="432">8.25316e-12</wgt>
  <wgt id="433">8.21343e-12</wgt>
  <wgt id="434">8.16552e-12</wgt>
  <wgt id="435">8.06463e-12</wgt>
  <wgt id="436">8.01259e-12</wgt>
  <wgt id="437">7.963e-12</wgt>
  <wgt id="438">8.12071e-12</wgt>
  <wgt id="439">8.14748e-12</wgt>
  <wgt id="440">8.13174e-12</wgt>
  <wgt id="441">8.11231e-12</wgt>
  <wgt id="442">8.10525e-12</wgt>
  <wgt id="443">7.90063e-12</wgt>
  <wgt id="444">7.94001e-12</wgt>
  <wgt id="445">7.87483e-12</wgt>
  <wgt id="446">7.85178e-12</wgt>
  <wgt id="447">7.87561e-12</wgt>
  <wgt id="448">7.70312e-12</wgt>
  <wgt id="449">8.01615e-12</wgt>
  <wgt id="450">7.87463e-12</wgt>
  <wgt id="451">7.8888e-12</wgt>
  <wgt id="452">8.06599e-12</wgt>
  <wgt id="453">7.96648e-12</wgt>
  <wgt id="454">7.59618e-12</wgt>
  <wgt id="455">7.91192e-12</wgt>
  <wgt id="456">7.81164e-12</wgt>
  <wgt id="457">7.92951e-12</wgt>
  <wgt id="458">7.98755e-12</wgt>
  <wgt id="459">7.95125e-12</wgt>
  <wgt id="460">7.94693e-12</wgt>
  <wgt id="461">7.76759e-12</wgt>
  <wgt id="462">7.84356e-12</wgt>
  <wgt id="463">7.82035e-12</wgt>
  <wgt id="464">7.86154e-12</wgt>
  <wgt id="465">7.9754e-12</wgt>
  <wgt id="466">7.81649e-12</wgt>
  <wgt id="467">7.83152e-12</wgt>
  <wgt id="468">7.88119e-12</wgt>
  <wgt id="469">7.88206e-12</wgt>
  <wgt id="470">7.8334e-12</wgt>
  <wgt id="471">7.8374e-12</wgt>
  <wgt id="472">7.93345e-12</wgt>
  <wgt id="473">7.67187e-12</wgt>
  <wgt id="474">5.79e-12</wgt>
  <wgt id="475">6.1226e-12</wgt>
  <wgt id="476">5.67653e-12</wgt>
  <wgt id="477">5.63806e-12</wgt>
  <wgt id="478">5.82546e-12</wgt>
  <wgt id="479">5.70364e-12</wgt>
  <wgt id="480">5.98277e-12</wgt>
  <wgt id="481">5.67046e-12</wgt>
  <wgt id="482">5.58619e-12</wgt>
  <wgt id="483">5.64342e-12</wgt>
  <wgt id="484">6.1525e-12</wgt>
  <wgt id="485">5.78183e-12</wgt>
  <wgt id="486">5.92531e-12</wgt>
  <wgt id="487">5.87003e-12</wgt>
  <wgt id="488">5.87156e-12</wgt>
  <wgt id="489">5.57116e-12</wgt>
  <wgt id="490">5.61214e-12</wgt>
  <wgt id="491">5.73593e-12</wgt>
  <wgt id="492">5.62535e-12</wgt>
  <wgt id="493">5.58547e-12</wgt>
  <wgt id="494">5.61837e-12</wgt>
  <wgt id="495">5.87843e-12</wgt>
  <wgt id="496">5.59954e-12</wgt>
  <wgt id="497">5.57744e-12</wgt>
  <wgt id="498">5.87673e-12</wgt>
  <wgt id="499">5.65816e-12</wgt>
  <wgt id="500">5.68791e-12</wgt>
  <wgt id="501">6.03745e-12</wgt>
  <wgt id="502">5.65483e-12</wgt>
  <wgt id="503">5.78154e-12</wgt>
  <wgt id="504">5.82302e-12</wgt>
  <wgt id="505">5.7661e-12</wgt>
  <wgt id="506">5.86938e-12</wgt>
  <wgt id="507">5.74153e-12</wgt>
  <wgt id="508">5.8971e-12</wgt>
  <wgt id="509">5.66073e-12</wgt>
  <wgt id="510">5.93012e-12</wgt>
  <wgt id="511">5.66037e-12</wgt>
  <wgt id="512">5.87801e-12</wgt>
  <wgt id="513">6.0054e-12</wgt>
  <wgt id="514">5.76324e-12</wgt>
  <wgt id="515">5.72663e-12</wgt>
  <wgt id="516">5.96821e-12</wgt>
  <wgt id="517">5.91884e-12</wgt>
  <wgt id="518">5.93893e-12</wgt>
  <wgt id="519">5.64697e-12</wgt>
  <wgt id="520">5.84037e-12</wgt>
  <wgt id="521">5.98747e-12</wgt>
  <wgt id="522">6.01508e-12</wgt>
  <wgt id="523">5.88179e-12</wgt>
  <wgt id="524">5.86727e-12</wgt>
  <wgt id="525">5.9456e-12</wgt>
  <wgt id="526">5.80423e-12</wgt>
  <wgt id="527">5.88258e-12</wgt>
  <wgt id="528">5.80134e-12</wgt>
  <wgt id="529">5.71454e-12</wgt>
  <wgt id="530">5.84737e-12</wgt>
  <wgt id="531">5.71588e-12</wgt>
  <wgt id="532">6.10613e-12</wgt>
  <wgt id="533">5.46372e-12</wgt>
  <wgt id="534">5.79699e-12</wgt>
  <wgt id="535">5.87333e-12</wgt>
  <wgt id="536">5.77285e-12</wgt>
  <wgt id="537">5.80616e-12</wgt>
  <wgt id="538">5.87614e-12</wgt>
  <wgt id="539">5.67169e-12</wgt>
  <wgt id="540">5.71942e-12</wgt>
  <wgt id="541">5.66084e-12</wgt>
  <wgt id="542">5.68285e-12</wgt>
  <wgt id="543">5.77975e-12</wgt>
  <wgt id="544">6.06652e-12</wgt>
  <wgt id="545">5.70844e-12</wgt>
  <wgt id="546">5.70898e-12</wgt>
  <wgt id="547">5.62674e-12</wgt>
  <wgt id="548">5.55638e-12</wgt>
  <wgt id="549">5.69962e-12</wgt>
  <wgt id="550">5.76318e-12</wgt>
  <wgt id="551">5.86069e-12</wgt>
  <wgt id="552">5.71384e-12</wgt>
  <wgt id="553">5.76882e-12</wgt>
  <wgt id="554">6.21467e-12</wgt>
  <wgt id="555">5.94865e-12</wgt>
  <wgt id="556">5.61214e-12</wgt>
  <wgt id="557">5.89094e-12</wgt>
  <wgt id="558">5.61395e-12</wgt>
  <wgt id="559">5.70761e-12</wgt>
  <wgt id="560">6.27179e-12</wgt>
  <wgt id="561">5.6738e-12</wgt>
  <wgt id="562">5.88622e-12</wgt>
  <wgt id="563">5.66343e-12</wgt>
  <wgt id="564">5.81643e-12</wgt>
  <wgt id="565">5.60862e-12</wgt>
  <wgt id="566">5.86211e-12</wgt>
  <wgt id="567">5.71226e-12</wgt>
  <wgt id="568">5.78444e-12</wgt>
  <wgt id="569">5.85999e-12</wgt>
  <wgt id="570">5.62682e-12</wgt>
  <wgt id="571">6.40354e-12</wgt>
  <wgt id="572">5.67049e-12</wgt>
  <wgt id="573">5.54591e-12</wgt>
  <wgt id="574">5.59479e-12</wgt>
  <wgt id="575">6.35396e-12</wgt>
  <wgt id="576">6.29724e-12</wgt>
  <wgt id="577">6.55866e-12</wgt>
  <wgt id="578">6.4976e-12</wgt>
  <wgt id="579">6.44425e-12</wgt>
  <wgt id="580">6.47658e-12</wgt>
  <wgt id="581">6.75512e-12</wgt>
  <wgt id="582">6.28352e-12</wgt>
  <wgt id="583">6.41391e-12</wgt>
  <wgt id="584">6.35475e-12</wgt>
  <wgt id="585">6.36788e-12</wgt>
  <wgt id="586">6.20025e-12</wgt>
  <wgt id="587">6.43279e-12</wgt>
  <wgt id="588">6.32515e-12</wgt>
  <wgt id="589">6.4613e-12</wgt>
  <wgt id="590">6.43918e-12</wgt>
  <wgt id="591">6.59993e-12</wgt>
  <wgt id="592">6.19966e-12</wgt>
  <wgt id="593">6.31949e-12</wgt>
  <wgt id="594">6.5781e-12</wgt>
  <wgt id="595">6.32886e-12</wgt>
  <wgt id="596">6.44992e-12</wgt>
  <wgt id="597">6.15434e-12</wgt>
  <wgt id="598">6.22883e-12</wgt>
  <wgt id="599">6.63485e-12</wgt>
  <wgt id="600">6.30682e-12</wgt>
  <wgt id="601">6.17401e-12</wgt>
  <wgt id="602">6.21911e-12</wgt>
  <wgt id="603">6.24906e-12</wgt>
  <wgt id="604">6.44118e-12</wgt>
  <wgt id="605">6.60589e-12</wgt>
  <wgt id="606">6.22646e-12</wgt>
  <wgt id="607">6.28414e-12</wgt>
  <wgt id="608">6.3725e-12</wgt>
  <wgt id="609">6.0099e-12</wgt>
  <wgt id="610">6.11723e-12</wgt>
  <wgt id="611">6.42738e-12</wgt>
  <wgt id="612">6.82347e-12</wgt>
  <wgt id="613">6.34648e-12</wgt>
  <wgt id="614">6.42284e-12</wgt>
  <wgt id="615">6.23783e-12</wgt>
  <wgt id="616">6.72819e-12</wgt>
  <wgt id="617">6.55838e-12</wgt>
  <wgt id="618">6.47677e-12</wgt>
  <wgt id="619">6.30524e-12</wgt>
  <wgt id="620">6.57593e-12</wgt>
  <wgt id="621">6.42853e-12</wgt>
  <wgt id="622">6.43279e-12</wgt>
  <wgt id="623">6.51814e-12</wgt>
  <wgt id="624">6.32368e-12</wgt>
  <wgt id="625">6.2724e-12</wgt>
  <wgt id="626">6.1957e-12</wgt>
  <wgt id="627">6.11462e-12</wgt>
  <wgt id="628">6.65869e-12</wgt>
  <wgt id="629">6.22926e-12</wgt>
  <wgt id="630">6.1664e-12</wgt>
  <wgt id="631">6.36929e-12</wgt>
  <wgt id="632">6.14357e-12</wgt>
  <wgt id="633">6.28509e-12</wgt>
  <wgt id="634">6.35434e-12</wgt>
  <wgt id="635">6.24481e-12</wgt>
  <wgt id="636">6.40017e-12</wgt>
  <wgt id="637">6.36752e-12</wgt>
  <wgt id="638">6.134e-12</wgt>
  <wgt id="639">6.27894e-12</wgt>
  <wgt id="640">6.36388e-12</wgt>
  <wgt id="641">6.39231e-12</wgt>
  <wgt id="642">6.18727e-12</wgt>
  <wgt id="643">6.32584e-12</wgt>
  <wgt id="644">6.09604e-12</wgt>
  <wgt id="645">6.39523e-12</wgt>
  <wgt id="646">6.44135e-12</wgt>
  <wgt id="647">6.262e-12</wgt>
  <wgt id="648">6.39581e-12</wgt>
  <wgt id="649">6.44128e-12</wgt>
  <wgt id="650">6.22953e-12</wgt>
  <wgt id="651">6.42901e-12</wgt>
  <wgt id="652">6.32486e-12</wgt>
  <wgt id="653">6.18383e-12</wgt>
  <wgt id="654">6.30944e-12</wgt>
  <wgt id="655">6.23537e-12</wgt>
  <wgt id="656">6.35168e-12</wgt>
  <wgt id="657">6.55806e-12</wgt>
  <wgt id="658">6.41658e-12</wgt>
  <wgt id="659">6.11468e-12</wgt>
  <wgt id="660">6.46413e-12</wgt>
  <wgt id="661">6.26133e-12</wgt>
  <wgt id="662">6.33089e-12</wgt>
  <wgt id="663">6.34818e-12</wgt>
  <wgt id="664">6.26411e-12</wgt>
  <wgt id="665">6.3363e-12</wgt>
  <wgt id="666">6.32243e-12</wgt>
  <wgt id="667">6.55881e-12</wgt>
  <wgt id="668">6.33341e-12</wgt>
  <wgt id="669">6.50659e-12</wgt>
  <wgt id="670">6.45803e-12</wgt>
  <wgt id="671">6.27542e-12</wgt>
  <wgt id="672">6.09151e-12</wgt>
  <wgt id="673">6.36017e-12</wgt>
  <wgt id="674">6.22421e-12</wgt>
  <wgt id="675">6.24091e-12</wgt>
  <wgt id="676">7.94494e-12</wgt>
  <wgt id="677">8.0478e-12</wgt>
  <wgt id="678">8.3185e-12</wgt>
  <wgt id="679">7.53573e-12</wgt>
  <wgt id="680">7.7185e-12</wgt>
  <wgt id="681">8.13737e-12</wgt>
  <wgt id="682">8.10904e-12</wgt>
  <wgt id="683">7.85368e-12</wgt>
  <wgt id="684">8.285e-12</wgt>
  <wgt id="685">7.56131e-12</wgt>
  <wgt id="686">7.88538e-12</wgt>
  <wgt id="687">8.29372e-12</wgt>
  <wgt id="688">7.88329e-12</wgt>
  <wgt id="689">8.49541e-12</wgt>
  <wgt id="690">8.35737e-12</wgt>
  <wgt id="691">8.36358e-12</wgt>
  <wgt id="692">7.89516e-12</wgt>
  <wgt id="693">9.22041e-12</wgt>
  <wgt id="694">8.4061e-12</wgt>
  <wgt id="695">7.6929e-12</wgt>
  <wgt id="696">7.58399e-12</wgt>
  <wgt id="697">7.68708e-12</wgt>
  <wgt id="698">7.37796e-12</wgt>
  <wgt id="699">7.29906e-12</wgt>
  <wgt id="700">7.03835e-12</wgt>
  <wgt id="701">7.96073e-12</wgt>
  <wgt id="702">7.67028e-12</wgt>
  <wgt id="703">9.03382e-12</wgt>
  <wgt id="704">8.60988e-12</wgt>
  <wgt id="705">8.296e-12</wgt>
  <wgt id="706">7.44479e-12</wgt>
  <wgt id="707">7.63901e-12</wgt>
  <wgt id="708">7.8409e-12</wgt>
  <wgt id="709">7.80729e-12</wgt>
  <wgt id="710">7.18246e-12</wgt>
  <wgt id="711">7.9225e-12</wgt>
  <wgt id="712">7.81413e-12</wgt>
  <wgt id="713">8.50793e-12</wgt>
  <wgt id="714">7.85093e-12</wgt>
  <wgt id="715">7.85796e-12</wgt>
  <wgt id="716">7.65893e-12</wgt>
  <wgt id="717">7.59213e-12</wgt>
  <wgt id="718">7.87975e-12</wgt>
  <wgt id="719">7.26082e-12</wgt>
  <wgt id="720">7.54361e-12</wgt>
  <wgt id="721">7.43151e-12</wgt>
  <wgt id="722">7.13199e-12</wgt>
  <wgt id="723">8.42362e-12</wgt>
  <wgt id="724">8.28395e-12</wgt>
  <wgt id="725">8.37704e-12</wgt>
  <wgt id="726">8.01916e-12</wgt>
  <wgt id="727">7.77221e-12</wgt>
  <wgt id="728">7.82336e-12</wgt>
  <wgt id="729">7.32654e-12</wgt>
  <wgt id="730">8.47303e-12</wgt>
  <wgt id="731">7.85375e-12</wgt>
  <wgt id="732">8.68602e-12</wgt>
  <wgt id="733">7.90656e-12</wgt>
  <wgt id="734">8.1274e-12</wgt>
  <wgt id="735">7.93e-12</wgt>
  <wgt id="736">7.81086e-12</wgt>
  <wgt id="737">8.06505e-12</wgt>
  <wgt id="738">7.62035e-12</wgt>
  <wgt id="739">8.0023e-12</wgt>
  <wgt id="740">8.79236e-12</wgt>
  <wgt id="741">7.11284e-12</wgt>
  <wgt id="742">7.83468e-12</wgt>
  <wgt id="743">7.65183e-12</wgt>
  <wgt id="744">7.78561e-12</wgt>
  <wgt id="745">8.26108e-12</wgt>
  <wgt id="746">8.37748e-12</wgt>
  <wgt id="747">7.26867e-12</wgt>
  <wgt id="748">7.82943e-12</wgt>
  <wgt id="749">8.36163e-12</wgt>
  <wgt id="750">8.04502e-12</wgt>
  <wgt id="751">8.19764e-12</wgt>
  <wgt id="752">7.32887e-12</wgt>
  <wgt id="753">7.55393e-12</wgt>
  <wgt id="754">8.20274e-12</wgt>
  <wgt id="755">7.97823e-12</wgt>
  <wgt id="756">7.9725e-12</wgt>
  <wgt id="757">7.35954e-12</wgt>
  <wgt id="758">8.0157e-12</wgt>
  <wgt id="759">8.06201e-12</wgt>
  <wgt id="760">8.05381e-12</wgt>
  <wgt id="761">8.36802e-12</wgt>
  <wgt id="762">8.38623e-12</wgt>
  <wgt id="763">7.9445e-12</wgt>
  <wgt id="764">8.23514e-12</wgt>
  <wgt id="765">8.02395e-12</wgt>
  <wgt id="766">7.92474e-12</wgt>
  <wgt id="767">8.1227e-12</wgt>
  <wgt id="768">7.53078e-12</wgt>
  <wgt id="769">8.39987e-12</wgt>
  <wgt id="770">7.76128e-12</wgt>
  <wgt id="771">9.30653e-12</wgt>
  <wgt id="772">7.506e-12</wgt>
  <wgt id="773">7.90118e-12</wgt>
  <wgt id="774">7.11802e-12</wgt>
  <wgt id="775">8.31139e-12</wgt>
  <wgt id="776">8.64948e-12</wgt>
  <wgt id="777">7.63126e-12</wgt>
  <wgt id="778">5.91614e-12</wgt>
  <wgt id="779">4.96141e-12</wgt>
  <wgt id="780">4.11652e-12</wgt>
  <wgt id="781">6.07277e-12</wgt>
  <wgt id="782">6.27785e-12</wgt>
  <wgt id="783">5.03742e-12</wgt>
  <wgt id="784">5.20986e-12</wgt>
  <wgt id="785">7.15922e-12</wgt>
  <wgt id="786">4.59725e-12</wgt>
  <wgt id="787">6.67213e-12</wgt>
  <wgt id="788">3.81581e-12</wgt>
  <wgt id="789">4.83124e-12</wgt>
  <wgt id="790">4.55868e-12</wgt>
  <wgt id="791">5.57126e-12</wgt>
  <wgt id="792">7.69757e-12</wgt>
  <wgt id="793">5.77354e-12</wgt>
  <wgt id="794">4.60135e-12</wgt>
  <wgt id="795">6.8374e-12</wgt>
  <wgt id="796">7.69733e-12</wgt>
  <wgt id="797">6.80271e-12</wgt>
  <wgt id="798">5.46474e-12</wgt>
  <wgt id="799">6.67979e-12</wgt>
  <wgt id="800">4.86184e-12</wgt>
  <wgt id="801">5.5528e-12</wgt>
  <wgt id="802">4.63212e-12</wgt>
  <wgt id="803">7.73432e-12</wgt>
  <wgt id="804">6.79291e-12</wgt>
  <wgt id="805">6.90316e-12</wgt>
  <wgt id="806">6.61047e-12</wgt>
  <wgt id="807">5.66554e-12</wgt>
  <wgt id="808">5.75982e-12</wgt>
  <wgt id="809">5.47293e-12</wgt>
  <wgt id="810">6.70886e-12</wgt>
  <wgt id="811">6.41632e-12</wgt>
  <wgt id="812">4.57882e-12</wgt>
  <wgt id="813">4.65918e-12</wgt>
  <wgt id="814">4.9901e-12</wgt>
  <wgt id="815">4.9759e-12</wgt>
  <wgt id="816">4.43933e-12</wgt>
  <wgt id="817">6.20226e-12</wgt>
  <wgt id="818">5.85801e-12</wgt>
  <wgt id="819">4.97637e-12</wgt>
  <wgt id="820">5.92033e-12</wgt>
  <wgt id="821">6.73086e-12</wgt>
  <wgt id="822">5.00804e-12</wgt>
  <wgt id="823">6.76865e-12</wgt>
  <wgt id="824">7.87484e-12</wgt>
  <wgt id="825">4.44103e-12</wgt>
  <wgt id="826">6.21034e-12</wgt>
  <wgt id="827">3.71648e-12</wgt>
  <wgt id="828">7.55694e-12</wgt>
  <wgt id="829">6.11294e-12</wgt>
  <wgt id="830">4.21922e-12</wgt>
  <wgt id="831">6.33883e-12</wgt>
  <wgt id="832">9.54045e-12</wgt>
  <wgt id="833">5.54486e-12</wgt>
  <wgt id="834">8.97182e-12</wgt>
  <wgt id="835">4.84504e-12</wgt>
  <wgt id="836">5.87841e-12</wgt>
  <wgt id="837">6.64726e-12</wgt>
  <wgt id="838">5.62763e-12</wgt>
  <wgt id="839">6.30578e-12</wgt>
  <wgt id="840">5.56524e-12</wgt>
  <wgt id="841">7.18337e-12</wgt>
  <wgt id="842">5.42441e-12</wgt>
  <wgt id="843">5.80647e-12</wgt>
  <wgt id="844">6.1449e-12</wgt>
  <wgt id="845">8.20329e-12</wgt>
  <wgt id="846">5.59779e-12</wgt>
  <wgt id="847">5.9291e-12</wgt>
  <wgt id="848">5.15963e-12</wgt>
  <wgt id="849">6.05931e-12</wgt>
  <wgt id="850">7.60227e-12</wgt>
  <wgt id="851">6.46324e-12</wgt>
  <wgt id="852">5.07622e-12</wgt>
  <wgt id="853">6.45706e-12</wgt>
  <wgt id="854">7.14683e-12</wgt>
  <wgt id="855">6.76846e-12</wgt>
  <wgt id="856">4.31933e-12</wgt>
  <wgt id="857">5.93011e-12</wgt>
  <wgt id="858">5.8156e-12</wgt>
  <wgt id="859">5.53092e-12</wgt>
  <wgt id="860">6.32155e-12</wgt>
  <wgt id="861">5.26905e-12</wgt>
  <wgt id="862">6.00764e-12</wgt>
  <wgt id="863">6.22828e-12</wgt>
  <wgt id="864">6.23445e-12</wgt>
  <wgt id="865">8.32889e-12</wgt>
  <wgt id="866">9.12147e-12</wgt>
  <wgt id="867">5.9903e-12</wgt>
  <wgt id="868">5.83361e-12</wgt>
  <wgt id="869">4.64499e-12</wgt>
  <wgt id="870">4.89013e-12</wgt>
  <wgt id="871">4.75153e-12</wgt>
  <wgt id="872">6.98265e-12</wgt>
  <wgt id="873">4.9384e-12</wgt>
  <wgt id="874">6.19878e-12</wgt>
  <wgt id="875">5.1587e-12</wgt>
  <wgt id="876">6.97926e-12</wgt>
  <wgt id="877">6.69972e-12</wgt>
  <wgt id="878">5.13334e-12</wgt>
  <wgt id="879">7.94494e-12</wgt>
  <wgt id="880">8.0478e-12</wgt>
  <wgt id="881">8.3185e-12</wgt>
  <wgt id="882">7.53573e-12</wgt>
  <wgt id="883">7.7185e-12</wgt>
  <wgt id="884">8.13737e-12</wgt>
  <wgt id="885">8.10904e-12</wgt>
  <wgt id="886">7.85368e-12</wgt>
  <wgt id="887">8.285e-12</wgt>
  <wgt id="888">7.56131e-12</wgt>
  <wgt id="889">7.88538e-12</wgt>
  <wgt id="890">8.29372e-12</wgt>
  <wgt id="891">7.88329e-12</wgt>
  <wgt id="892">8.49541e-12</wgt>
  <wgt id="893">8.35737e-12</wgt>
  <wgt id="894">8.36358e-12</wgt>
  <wgt id="895">7.89516e-12</wgt>
  <wgt id="896">9.22041e-12</wgt>
  <wgt id="897">8.4061e-12</wgt>
  <wgt id="898">7.6929e-12</wgt>
  <wgt id="899">7.58399e-12</wgt>
  <wgt id="900">7.68708e-12</wgt>
  <wgt id="901">7.37796e-12</wgt>
  <wgt id="902">7.29906e-12</wgt>
  <wgt id="903">7.03835e-12</wgt>
  <wgt id="904">7.96073e-12</wgt>
  <wgt id="905">7.67028e-12</wgt>
  <wgt id="906">9.03382e-12</wgt>
  <wgt id="907">8.60988e-12</wgt>
  <wgt id="908">8.296e-12</wgt>
  <wgt id="909">7.44479e-12</wgt>
  <wgt id="910">7.63901e-12</wgt>
  <wgt id="911">7.8409e-12</wgt>
  <wgt id="912">7.80729e-12</wgt>
  <wgt id="913">7.18246e-12</wgt>
  <wgt id="914">7.9225e-12</wgt>
  <wgt id="915">7.81413e-12</wgt>
  <wgt id="916">8.50793e-12</wgt>
  <wgt id="917">7.85093e-12</wgt>
  <wgt id="918">7.85796e-12</wgt>
  <wgt id="919">7.65893e-12</wgt>
  <wgt id="920">7.59213e-12</wgt>
  <wgt id="921">7.87975e-12</wgt>
  <wgt id="922">7.26082e-12</wgt>
  <wgt id="923">7.54361e-12</wgt>
  <wgt id="924">7.43151e-12</wgt>
  <wgt id="925">7.13199e-12</wgt>
  <wgt id="926">8.42362e-12</wgt>
  <wgt id="927">8.28395e-12</wgt>
  <wgt id="928">8.37704e-12</wgt>
  <wgt id="929">8.01916e-12</wgt>
  <wgt id="930">7.77221e-12</wgt>
  <wgt id="931">7.82336e-12</wgt>
  <wgt id="932">7.32654e-12</wgt>
  <wgt id="933">8.47303e-12</wgt>
  <wgt id="934">7.85375e-12</wgt>
  <wgt id="935">8.68602e-12</wgt>
  <wgt id="936">7.90656e-12</wgt>
  <wgt id="937">8.1274e-12</wgt>
  <wgt id="938">7.93e-12</wgt>
  <wgt id="939">7.81086e-12</wgt>
  <wgt id="940">8.06505e-12</wgt>
  <wgt id="941">7.62035e-12</wgt>
  <wgt id="942">8.0023e-12</wgt>
  <wgt id="943">8.79236e-12</wgt>
  <wgt id="944">7.11284e-12</wgt>
  <wgt id="945">7.83468e-12</wgt>
  <wgt id="946">7.65183e-12</wgt>
  <wgt id="947">7.78561e-12</wgt>
  <wgt id="948">8.26108e-12</wgt>
  <wgt id="949">8.37748e-12</wgt>
  <wgt id="950">7.26867e-12</wgt>
  <wgt id="951">7.82943e-12</wgt>
  <wgt id="952">8.36163e-12</wgt>
  <wgt id="953">8.04502e-12</wgt>
  <wgt id="954">8.19764e-12</wgt>
  <wgt id="955">7.32887e-12</wgt>
  <wgt id="956">7.55393e-12</wgt>
  <wgt id="957">8.20274e-12</wgt>
  <wgt id="958">7.97823e-12</wgt>
  <wgt id="959">7.9725e-12</wgt>
  <wgt id="960">7.35954e-12</wgt>
  <wgt id="961">8.0157e-12</wgt>
  <wgt id="962">8.06201e-12</wgt>
  <wgt id="963">8.05381e-12</wgt>
  <wgt id="964">8.36802e-12</wgt>
  <wgt id="965">8.38623e-12</wgt>
  <wgt id="966">7.9445e-12</wgt>
  <wgt id="967">8.23514e-12</wgt>
  <wgt id="968">8.02395e-12</wgt>
  <wgt id="969">7.92474e-12</wgt>
  <wgt id="970">8.1227e-12</wgt>
  <wgt id="971">7.53078e-12</wgt>
  <wgt id="972">8.39987e-12</wgt>
  <wgt id="973">7.76128e-12</wgt>
  <wgt id="974">9.30653e-12</wgt>
  <wgt id="975">7.506e-12</wgt>
  <wgt id="976">7.90118e-12</wgt>
  <wgt id="977">7.11802e-12</wgt>
  <wgt id="978">8.31139e-12</wgt>
  <wgt id="979">8.64948e-12</wgt>
  <wgt id="980">7.95057e-12</wgt>
  <wgt id="981">7.97834e-12</wgt>
  <wgt id="982">7.71932e-12</wgt>
</rwgt>
</event>
<event>
 5   1  0.5790000E-11  0.2188239E+04  0.7818608E-02  0.7753313E-01
       21   -1    0    0  502  501  0.00000000000E+00  0.00000000000E+00  0.95885718805E+03  0.95885718805E+03  0.00000000000E+00 0. -1.
       21   -1    0    0  501  502 -0.00000000000E+00 -0.00000000000E+00 -0.12484632824E+04  0.12484632824E+04  0.00000000000E+00 0.  1.
       39    2    1    2    0    0  0.00000000000E+00  0.00000000000E+00 -0.28960609430E+03  0.22073204704E+04  0.21882394680E+04 0.  0.
       25    1    3    3    0    0  0.49222224631E+03 -0.75590641620E+03  0.46694683285E+03  0.10233970855E+04  0.12500000000E+03 0.  0.
       25    1    3    3    0    0 -0.49222224631E+03  0.75590641620E+03 -0.75655292716E+03  0.11839233849E+04  0.12500000000E+03 0.  0.
<mgrwt>
<rscale>  0 0.21882395E+04</rscale>
<asrwt>0</asrwt>
<pdfrwt beam="1">  1       21 0.14751649E+00 0.21882395E+04</pdfrwt>
<pdfrwt beam="2">  1       21 0.19207127E+00 0.21882395E+04</pdfrwt>
<totfact> 0.19255193E+01</totfact>
</mgrwt>
<rwgt>
  <wgt id="1">5.79e-12</wgt>
  <wgt id="2">5.05646e-12</wgt>
  <wgt id="3">6.69746e-12</wgt>
  <wgt id="4">5.79e-12</wgt>
  <wgt id="5">5.05646e-12</wgt>
  <wgt id="6">6.69746e-12</wgt>
  <wgt id="7">5.79e-12</wgt>
  <wgt id="8">5.05646e-12</wgt>
  <wgt id="9">6.69746e-12</wgt>
  <wgt id="10">5.95563e-12</wgt>
  <wgt id="11">5.94975e-12</wgt>
  <wgt id="12">5.94423e-12</wgt>
  <wgt id="13">5.93523e-12</wgt>
  <wgt id="14">5.97677e-12</wgt>
  <wgt id="15">5.96417e-12</wgt>
  <wgt id="16">5.94265e-12</wgt>
  <wgt id="17">5.96558e-12</wgt>
  <wgt id="18">5.94765e-12</wgt>
  <wgt id="19">5.96778e-12</wgt>
  <wgt id="20">5.93783e-12</wgt>
  <wgt id="21">5.92415e-12</wgt>
  <wgt id="22">5.93778e-12</wgt>
  <wgt id="23">5.9057e-12</wgt>
  <wgt id="24">5.92991e-12</wgt>
  <wgt id="25">5.94126e-12</wgt>
  <wgt id="26">5.9802e-12</wgt>
  <wgt id="27">5.95513e-12</wgt>
  <wgt id="28">5.92777e-12</wgt>
  <wgt id="29">5.96182e-12</wgt>
  <wgt id="30">5.94094e-12</wgt>
  <wgt id="31">5.97106e-12</wgt>
  <wgt id="32">5.94346e-12</wgt>
  <wgt id="33">5.96843e-12</wgt>
  <wgt id="34">5.93861e-12</wgt>
  <wgt id="35">5.9487e-12</wgt>
  <wgt id="36">5.96959e-12</wgt>
  <wgt id="37">5.94052e-12</wgt>
  <wgt id="38">5.94123e-12</wgt>
  <wgt id="39">6.01546e-12</wgt>
  <wgt id="40">5.97051e-12</wgt>
  <wgt id="41">5.95424e-12</wgt>
  <wgt id="42">5.97447e-12</wgt>
  <wgt id="43">5.96085e-12</wgt>
  <wgt id="44">5.93134e-12</wgt>
  <wgt id="45">5.96474e-12</wgt>
  <wgt id="46">5.96268e-12</wgt>
  <wgt id="47">5.92958e-12</wgt>
  <wgt id="48">5.95613e-12</wgt>
  <wgt id="49">5.97817e-12</wgt>
  <wgt id="50">5.99361e-12</wgt>
  <wgt id="51">5.98056e-12</wgt>
  <wgt id="52">5.93505e-12</wgt>
  <wgt id="53">5.91975e-12</wgt>
  <wgt id="54">5.94367e-12</wgt>
  <wgt id="55">5.95408e-12</wgt>
  <wgt id="56">5.9738e-12</wgt>
  <wgt id="57">5.97618e-12</wgt>
  <wgt id="58">5.91531e-12</wgt>
  <wgt id="59">5.93602e-12</wgt>
  <wgt id="60">5.95743e-12</wgt>
  <wgt id="61">5.94962e-12</wgt>
  <wgt id="62">5.95564e-12</wgt>
  <wgt id="63">5.96337e-12</wgt>
  <wgt id="64">5.96255e-12</wgt>
  <wgt id="65">5.96112e-12</wgt>
  <wgt id="66">5.94858e-12</wgt>
  <wgt id="67">5.94879e-12</wgt>
  <wgt id="68">5.94966e-12</wgt>
  <wgt id="69">5.95382e-12</wgt>
  <wgt id="70">5.9517e-12</wgt>
  <wgt id="71">5.95255e-12</wgt>
  <wgt id="72">5.94941e-12</wgt>
  <wgt id="73">5.95985e-12</wgt>
  <wgt id="74">5.95828e-12</wgt>
  <wgt id="75">5.95477e-12</wgt>
  <wgt id="76">5.96957e-12</wgt>
  <wgt id="77">5.95479e-12</wgt>
  <wgt id="78">5.95744e-12</wgt>
  <wgt id="79">5.96504e-12</wgt>
  <wgt id="80">5.93342e-12</wgt>
  <wgt id="81">5.94859e-12</wgt>
  <wgt id="82">5.95576e-12</wgt>
  <wgt id="83">5.936e-12</wgt>
  <wgt id="84">5.9446e-12</wgt>
  <wgt id="85">5.9468e-12</wgt>
  <wgt id="86">5.96687e-12</wgt>
  <wgt id="87">5.93054e-12</wgt>
  <wgt id="88">5.96144e-12</wgt>
  <wgt id="89">5.96058e-12</wgt>
  <wgt id="90">5.96246e-12</wgt>
  <wgt id="91">5.95943e-12</wgt>
  <wgt id="92">5.96525e-12</wgt>
  <wgt id="93">5.95506e-12</wgt>
  <wgt id="94">5.95128e-12</wgt>
  <wgt id="95">5.9588e-12</wgt>
  <wgt id="96">5.95888e-12</wgt>
  <wgt id="97">5.94893e-12</wgt>
  <wgt id="98">5.95832e-12</wgt>
  <wgt id="99">5.95307e-12</wgt>
  <wgt id="100">5.9607e-12</wgt>
  <wgt id="101">5.95419e-12</wgt>
  <wgt id="102">5.95056e-12</wgt>
  <wgt id="103">5.96249e-12</wgt>
  <wgt id="104">5.95193e-12</wgt>
  <wgt id="105">5.96046e-12</wgt>
  <wgt id="106">5.94912e-12</wgt>
  <wgt id="107">5.96933e-12</wgt>
  <wgt id="108">5.95054e-12</wgt>
  <wgt id="109">5.95751e-12</wgt>
  <wgt id="110">5.9548e-12</wgt>
  <wgt id="111">6.02555e-12</wgt>
  <wgt id="112">5.9432e-12</wgt>
  <wgt id="113">7.849e-12</wgt>
  <wgt id="114">8.16749e-12</wgt>
  <wgt id="115">8.05654e-12</wgt>
  <wgt id="116">1.10312e-11</wgt>
  <wgt id="117">6.56428e-12</wgt>
  <wgt id="118">6.58559e-12</wgt>
  <wgt id="119">6.55243e-12</wgt>
  <wgt id="120">6.56516e-12</wgt>
  <wgt id="121">6.56398e-12</wgt>
  <wgt id="122">6.55255e-12</wgt>
  <wgt id="123">6.58063e-12</wgt>
  <wgt id="124">6.55472e-12</wgt>
  <wgt id="125">6.57064e-12</wgt>
  <wgt id="126">6.57546e-12</wgt>
  <wgt id="127">6.55707e-12</wgt>
  <wgt id="128">6.58494e-12</wgt>
  <wgt id="129">6.54403e-12</wgt>
  <wgt id="130">6.60221e-12</wgt>
  <wgt id="131">6.52565e-12</wgt>
  <wgt id="132">6.39938e-12</wgt>
  <wgt id="133">6.75893e-12</wgt>
  <wgt id="134">6.49686e-12</wgt>
  <wgt id="135">6.61701e-12</wgt>
  <wgt id="136">6.64339e-12</wgt>
  <wgt id="137">6.46877e-12</wgt>
  <wgt id="138">6.804e-12</wgt>
  <wgt id="139">6.33181e-12</wgt>
  <wgt id="140">6.51938e-12</wgt>
  <wgt id="141">6.59959e-12</wgt>
  <wgt id="142">6.56543e-12</wgt>
  <wgt id="143">6.57214e-12</wgt>
  <wgt id="144">6.40525e-12</wgt>
  <wgt id="145">6.71013e-12</wgt>
  <wgt id="146">6.61487e-12</wgt>
  <wgt id="147">6.52495e-12</wgt>
  <wgt id="148">6.58314e-12</wgt>
  <wgt id="149">6.56297e-12</wgt>
  <wgt id="150">6.61967e-12</wgt>
  <wgt id="151">6.53849e-12</wgt>
  <wgt id="152">6.56704e-12</wgt>
  <wgt id="153">6.5635e-12</wgt>
  <wgt id="154">6.62278e-12</wgt>
  <wgt id="155">6.49607e-12</wgt>
  <wgt id="156">6.67127e-12</wgt>
  <wgt id="157">6.44462e-12</wgt>
  <wgt id="158">7.90036e-12</wgt>
  <wgt id="159">7.93304e-12</wgt>
  <wgt id="160">7.87378e-12</wgt>
  <wgt id="161">7.88154e-12</wgt>
  <wgt id="162">7.92092e-12</wgt>
  <wgt id="163">7.89238e-12</wgt>
  <wgt id="164">7.91217e-12</wgt>
  <wgt id="165">7.90337e-12</wgt>
  <wgt id="166">7.89799e-12</wgt>
  <wgt id="167">7.89452e-12</wgt>
  <wgt id="168">7.90842e-12</wgt>
  <wgt id="169">7.86634e-12</wgt>
  <wgt id="170">7.92164e-12</wgt>
  <wgt id="171">7.89209e-12</wgt>
  <wgt id="172">7.91193e-12</wgt>
  <wgt id="173">7.90167e-12</wgt>
  <wgt id="174">7.89954e-12</wgt>
  <wgt id="175">7.68726e-12</wgt>
  <wgt id="176">8.1771e-12</wgt>
  <wgt id="177">7.94002e-12</wgt>
  <wgt id="178">7.86336e-12</wgt>
  <wgt id="179">8.20888e-12</wgt>
  <wgt id="180">7.41046e-12</wgt>
  <wgt id="181">7.6837e-12</wgt>
  <wgt id="182">8.04297e-12</wgt>
  <wgt id="183">7.76763e-12</wgt>
  <wgt id="184">7.96604e-12</wgt>
  <wgt id="185">7.84021e-12</wgt>
  <wgt id="186">7.97129e-12</wgt>
  <wgt id="187">7.83251e-12</wgt>
  <wgt id="188">8.02269e-12</wgt>
  <wgt id="189">7.85329e-12</wgt>
  <wgt id="190">7.91967e-12</wgt>
  <wgt id="191">7.9203e-12</wgt>
  <wgt id="192">7.88847e-12</wgt>
  <wgt id="193">8.00486e-12</wgt>
  <wgt id="194">7.84859e-12</wgt>
  <wgt id="195">7.73903e-12</wgt>
  <wgt id="196">8.20444e-12</wgt>
  <wgt id="197">7.93758e-12</wgt>
  <wgt id="198">7.89134e-12</wgt>
  <wgt id="199">7.90036e-12</wgt>
  <wgt id="200">7.96469e-12</wgt>
  <wgt id="201">7.94075e-12</wgt>
  <wgt id="202">7.91775e-12</wgt>
  <wgt id="203">7.88267e-12</wgt>
  <wgt id="204">7.86621e-12</wgt>
  <wgt id="205">7.85253e-12</wgt>
  <wgt id="206">7.69031e-12</wgt>
  <wgt id="207">7.73472e-12</wgt>
  <wgt id="208">7.64627e-12</wgt>
  <wgt id="209">7.7114e-12</wgt>
  <wgt id="210">7.67471e-12</wgt>
  <wgt id="211">7.68796e-12</wgt>
  <wgt id="212">7.6921e-12</wgt>
  <wgt id="213">7.6896e-12</wgt>
  <wgt id="214">7.69137e-12</wgt>
  <wgt id="215">7.69523e-12</wgt>
  <wgt id="216">7.68659e-12</wgt>
  <wgt id="217">7.71141e-12</wgt>
  <wgt id="218">7.67385e-12</wgt>
  <wgt id="219">7.68077e-12</wgt>
  <wgt id="220">7.696e-12</wgt>
  <wgt id="221">7.68633e-12</wgt>
  <wgt id="222">7.69933e-12</wgt>
  <wgt id="223">7.30196e-12</wgt>
  <wgt id="224">8.04268e-12</wgt>
  <wgt id="225">7.60353e-12</wgt>
  <wgt id="226">7.79882e-12</wgt>
  <wgt id="227">7.62075e-12</wgt>
  <wgt id="228">7.72082e-12</wgt>
  <wgt id="229">7.58774e-12</wgt>
  <wgt id="230">7.74124e-12</wgt>
  <wgt id="231">7.89774e-12</wgt>
  <wgt id="232">7.5192e-12</wgt>
  <wgt id="233">7.65279e-12</wgt>
  <wgt id="234">7.74719e-12</wgt>
  <wgt id="235">7.56752e-12</wgt>
  <wgt id="236">7.81329e-12</wgt>
  <wgt id="237">7.60123e-12</wgt>
  <wgt id="238">7.72099e-12</wgt>
  <wgt id="239">7.65045e-12</wgt>
  <wgt id="240">7.76261e-12</wgt>
  <wgt id="241">7.61757e-12</wgt>
  <wgt id="242">7.77762e-12</wgt>
  <wgt id="243">7.76482e-12</wgt>
  <wgt id="244">7.74104e-12</wgt>
  <wgt id="245">7.68377e-12</wgt>
  <wgt id="246">7.75016e-12</wgt>
  <wgt id="247">7.69031e-12</wgt>
  <wgt id="248">7.75323e-12</wgt>
  <wgt id="249">7.72882e-12</wgt>
  <wgt id="250">7.70643e-12</wgt>
  <wgt id="251">7.67219e-12</wgt>
  <wgt id="252">7.65638e-12</wgt>
  <wgt id="253">7.64461e-12</wgt>
  <wgt id="254">7.53618e-12</wgt>
  <wgt id="255">7.54343e-12</wgt>
  <wgt id="256">7.52831e-12</wgt>
  <wgt id="257">7.54208e-12</wgt>
  <wgt id="258">7.53181e-12</wgt>
  <wgt id="259">7.58623e-12</wgt>
  <wgt id="260">7.48794e-12</wgt>
  <wgt id="261">7.54462e-12</wgt>
  <wgt id="262">7.52619e-12</wgt>
  <wgt id="263">7.53348e-12</wgt>
  <wgt id="264">7.53919e-12</wgt>
  <wgt id="265">7.5283e-12</wgt>
  <wgt id="266">7.55179e-12</wgt>
  <wgt id="267">7.53852e-12</wgt>
  <wgt id="268">7.53307e-12</wgt>
  <wgt id="269">7.55846e-12</wgt>
  <wgt id="270">7.52105e-12</wgt>
  <wgt id="271">7.5239e-12</wgt>
  <wgt id="272">7.54972e-12</wgt>
  <wgt id="273">7.51372e-12</wgt>
  <wgt id="274">7.5534e-12</wgt>
  <wgt id="275">7.5084e-12</wgt>
  <wgt id="276">7.56487e-12</wgt>
  <wgt id="277">7.49514e-12</wgt>
  <wgt id="278">7.574e-12</wgt>
  <wgt id="279">7.39854e-12</wgt>
  <wgt id="280">7.70833e-12</wgt>
  <wgt id="281">7.50528e-12</wgt>
  <wgt id="282">7.5366e-12</wgt>
  <wgt id="283">7.33538e-12</wgt>
  <wgt id="284">7.78242e-12</wgt>
  <wgt id="285">7.20106e-12</wgt>
  <wgt id="286">7.81139e-12</wgt>
  <wgt id="287">7.55827e-12</wgt>
  <wgt id="288">7.50795e-12</wgt>
  <wgt id="289">7.58507e-12</wgt>
  <wgt id="290">7.42048e-12</wgt>
  <wgt id="291">7.51881e-12</wgt>
  <wgt id="292">7.54048e-12</wgt>
  <wgt id="293">7.48255e-12</wgt>
  <wgt id="294">7.58933e-12</wgt>
  <wgt id="295">7.40286e-12</wgt>
  <wgt id="296">7.69841e-12</wgt>
  <wgt id="297">7.54025e-12</wgt>
  <wgt id="298">7.55931e-12</wgt>
  <wgt id="299">7.5138e-12</wgt>
  <wgt id="300">7.59523e-12</wgt>
  <wgt id="301">7.45535e-12</wgt>
  <wgt id="302">7.75779e-12</wgt>
  <wgt id="303">7.48941e-12</wgt>
  <wgt id="304">7.56345e-12</wgt>
  <wgt id="305">7.57695e-12</wgt>
  <wgt id="306">7.58487e-12</wgt>
  <wgt id="307">7.56876e-12</wgt>
  <wgt id="308">7.58356e-12</wgt>
  <wgt id="309">7.57266e-12</wgt>
  <wgt id="310">7.62916e-12</wgt>
  <wgt id="311">7.52871e-12</wgt>
  <wgt id="312">7.58322e-12</wgt>
  <wgt id="313">7.57108e-12</wgt>
  <wgt id="314">7.57454e-12</wgt>
  <wgt id="315">7.57964e-12</wgt>
  <wgt id="316">7.56967e-12</wgt>
  <wgt id="317">7.59332e-12</wgt>
  <wgt id="318">7.58216e-12</wgt>
  <wgt id="319">7.56862e-12</wgt>
  <wgt id="320">7.60022e-12</wgt>
  <wgt id="321">7.5643e-12</wgt>
  <wgt id="322">7.56081e-12</wgt>
  <wgt id="323">7.59638e-12</wgt>
  <wgt id="324">7.55829e-12</wgt>
  <wgt id="325">7.5936e-12</wgt>
  <wgt id="326">7.55475e-12</wgt>
  <wgt id="327">7.6057e-12</wgt>
  <wgt id="328">7.53964e-12</wgt>
  <wgt id="329">7.59868e-12</wgt>
  <wgt id="330">7.79114e-12</wgt>
  <wgt id="331">7.37235e-12</wgt>
  <wgt id="332">7.55159e-12</wgt>
  <wgt id="333">7.57656e-12</wgt>
  <wgt id="334">7.41836e-12</wgt>
  <wgt id="335">7.77352e-12</wgt>
  <wgt id="336">7.33245e-12</wgt>
  <wgt id="337">7.87258e-12</wgt>
  <wgt id="338">7.65529e-12</wgt>
  <wgt id="339">7.50435e-12</wgt>
  <wgt id="340">7.62389e-12</wgt>
  <wgt id="341">7.45512e-12</wgt>
  <wgt id="342">7.56524e-12</wgt>
  <wgt id="343">7.57054e-12</wgt>
  <wgt id="344">7.52775e-12</wgt>
  <wgt id="345">7.63414e-12</wgt>
  <wgt id="346">7.43804e-12</wgt>
  <wgt id="347">7.73695e-12</wgt>
  <wgt id="348">7.58498e-12</wgt>
  <wgt id="349">7.59487e-12</wgt>
  <wgt id="350">7.54858e-12</wgt>
  <wgt id="351">7.6492e-12</wgt>
  <wgt id="352">7.48601e-12</wgt>
  <wgt id="353">7.81289e-12</wgt>
  <wgt id="354">7.50468e-12</wgt>
  <wgt id="355">7.62224e-12</wgt>
  <wgt id="356">7.53618e-12</wgt>
  <wgt id="357">7.61311e-12</wgt>
  <wgt id="358">7.57695e-12</wgt>
  <wgt id="359">7.56758e-12</wgt>
  <wgt id="360">7.56936e-12</wgt>
  <wgt id="361">7.55609e-12</wgt>
  <wgt id="362">7.6773e-12</wgt>
  <wgt id="363">7.66014e-12</wgt>
  <wgt id="364">7.63728e-12</wgt>
  <wgt id="365">7.61341e-12</wgt>
  <wgt id="366">7.58618e-12</wgt>
  <wgt id="367">7.52898e-12</wgt>
  <wgt id="368">7.49809e-12</wgt>
  <wgt id="369">7.465e-12</wgt>
  <wgt id="370">7.55609e-12</wgt>
  <wgt id="371">7.58955e-12</wgt>
  <wgt id="372">7.57106e-12</wgt>
  <wgt id="373">7.54368e-12</wgt>
  <wgt id="374">7.53912e-12</wgt>
  <wgt id="375">7.97148e-12</wgt>
  <wgt id="376">7.97244e-12</wgt>
  <wgt id="377">7.97025e-12</wgt>
  <wgt id="378">7.99989e-12</wgt>
  <wgt id="379">7.94306e-12</wgt>
  <wgt id="380">7.99295e-12</wgt>
  <wgt id="381">7.96281e-12</wgt>
  <wgt id="382">8.01037e-12</wgt>
  <wgt id="383">7.93299e-12</wgt>
  <wgt id="384">7.97661e-12</wgt>
  <wgt id="385">7.96655e-12</wgt>
  <wgt id="386">8.00139e-12</wgt>
  <wgt id="387">7.9584e-12</wgt>
  <wgt id="388">7.96425e-12</wgt>
  <wgt id="389">7.98014e-12</wgt>
  <wgt id="390">7.9921e-12</wgt>
  <wgt id="391">7.9497e-12</wgt>
  <wgt id="392">7.91727e-12</wgt>
  <wgt id="393">8.0022e-12</wgt>
  <wgt id="394">7.98295e-12</wgt>
  <wgt id="395">7.95573e-12</wgt>
  <wgt id="396">7.97361e-12</wgt>
  <wgt id="397">7.96999e-12</wgt>
  <wgt id="398">7.93881e-12</wgt>
  <wgt id="399">8.00296e-12</wgt>
  <wgt id="400">7.95897e-12</wgt>
  <wgt id="401">7.99916e-12</wgt>
  <wgt id="402">7.9118e-12</wgt>
  <wgt id="403">7.99549e-12</wgt>
  <wgt id="404">8.1397e-12</wgt>
  <wgt id="405">7.56445e-12</wgt>
  <wgt id="406">7.85042e-12</wgt>
  <wgt id="407">8.23223e-12</wgt>
  <wgt id="408">8.03358e-12</wgt>
  <wgt id="409">7.85184e-12</wgt>
  <wgt id="410">7.77173e-12</wgt>
  <wgt id="411">8.06257e-12</wgt>
  <wgt id="412">7.95886e-12</wgt>
  <wgt id="413">7.98909e-12</wgt>
  <wgt id="414">7.89171e-12</wgt>
  <wgt id="415">8.03328e-12</wgt>
  <wgt id="416">8.15816e-12</wgt>
  <wgt id="417">7.71288e-12</wgt>
  <wgt id="418">7.98111e-12</wgt>
  <wgt id="419">7.9199e-12</wgt>
  <wgt id="420">8.06169e-12</wgt>
  <wgt id="421">7.92524e-12</wgt>
  <wgt id="422">7.96944e-12</wgt>
  <wgt id="423">7.9745e-12</wgt>
  <wgt id="424">8.10463e-12</wgt>
  <wgt id="425">7.8906e-12</wgt>
  <wgt id="426">7.97148e-12</wgt>
  <wgt id="427">7.91781e-12</wgt>
  <wgt id="428">8.14044e-12</wgt>
  <wgt id="429">8.03159e-12</wgt>
  <wgt id="430">8.23991e-12</wgt>
  <wgt id="431">8.19848e-12</wgt>
  <wgt id="432">8.15894e-12</wgt>
  <wgt id="433">8.12057e-12</wgt>
  <wgt id="434">8.07477e-12</wgt>
  <wgt id="435">7.97738e-12</wgt>
  <wgt id="436">7.92693e-12</wgt>
  <wgt id="437">7.87918e-12</wgt>
  <wgt id="438">8.03159e-12</wgt>
  <wgt id="439">8.05806e-12</wgt>
  <wgt id="440">8.04264e-12</wgt>
  <wgt id="441">8.02312e-12</wgt>
  <wgt id="442">8.01594e-12</wgt>
  <wgt id="443">7.85437e-12</wgt>
  <wgt id="444">7.88902e-12</wgt>
  <wgt id="445">7.82448e-12</wgt>
  <wgt id="446">7.80749e-12</wgt>
  <wgt id="447">7.82773e-12</wgt>
  <wgt id="448">7.66207e-12</wgt>
  <wgt id="449">7.96456e-12</wgt>
  <wgt id="450">7.82085e-12</wgt>
  <wgt id="451">7.84375e-12</wgt>
  <wgt id="452">8.01338e-12</wgt>
  <wgt id="453">7.91566e-12</wgt>
  <wgt id="454">7.56081e-12</wgt>
  <wgt id="455">7.86299e-12</wgt>
  <wgt id="456">7.74187e-12</wgt>
  <wgt id="457">7.88227e-12</wgt>
  <wgt id="458">7.9357e-12</wgt>
  <wgt id="459">7.9017e-12</wgt>
  <wgt id="460">7.89456e-12</wgt>
  <wgt id="461">7.73081e-12</wgt>
  <wgt id="462">7.79983e-12</wgt>
  <wgt id="463">7.78022e-12</wgt>
  <wgt id="464">7.81745e-12</wgt>
  <wgt id="465">7.92449e-12</wgt>
  <wgt id="466">7.77773e-12</wgt>
  <wgt id="467">7.78866e-12</wgt>
  <wgt id="468">7.83565e-12</wgt>
  <wgt id="469">7.83655e-12</wgt>
  <wgt id="470">7.7919e-12</wgt>
  <wgt id="471">7.79564e-12</wgt>
  <wgt id="472">7.88506e-12</wgt>
  <wgt id="473">7.63683e-12</wgt>
  <wgt id="474">5.79e-12</wgt>
  <wgt id="475">6.15215e-12</wgt>
  <wgt id="476">5.6762e-12</wgt>
  <wgt id="477">5.67243e-12</wgt>
  <wgt id="478">5.82282e-12</wgt>
  <wgt id="479">5.71822e-12</wgt>
  <wgt id="480">5.96567e-12</wgt>
  <wgt id="481">5.64627e-12</wgt>
  <wgt id="482">5.56121e-12</wgt>
  <wgt id="483">5.64306e-12</wgt>
  <wgt id="484">6.20052e-12</wgt>
  <wgt id="485">5.80777e-12</wgt>
  <wgt id="486">5.88723e-12</wgt>
  <wgt id="487">5.87395e-12</wgt>
  <wgt id="488">5.85967e-12</wgt>
  <wgt id="489">5.58611e-12</wgt>
  <wgt id="490">5.62445e-12</wgt>
  <wgt id="491">5.72903e-12</wgt>
  <wgt id="492">5.61279e-12</wgt>
  <wgt id="493">5.59528e-12</wgt>
  <wgt id="494">5.62033e-12</wgt>
  <wgt id="495">5.88869e-12</wgt>
  <wgt id="496">5.59528e-12</wgt>
  <wgt id="497">5.58683e-12</wgt>
  <wgt id="498">5.85805e-12</wgt>
  <wgt id="499">5.64439e-12</wgt>
  <wgt id="500">5.68939e-12</wgt>
  <wgt id="501">6.03362e-12</wgt>
  <wgt id="502">5.6333e-12</wgt>
  <wgt id="503">5.7723e-12</wgt>
  <wgt id="504">5.79616e-12</wgt>
  <wgt id="505">5.83862e-12</wgt>
  <wgt id="506">5.87494e-12</wgt>
  <wgt id="507">5.7261e-12</wgt>
  <wgt id="508">5.88185e-12</wgt>
  <wgt id="509">5.74469e-12</wgt>
  <wgt id="510">5.9224e-12</wgt>
  <wgt id="511">5.66714e-12</wgt>
  <wgt id="512">5.85605e-12</wgt>
  <wgt id="513">5.99463e-12</wgt>
  <wgt id="514">5.74329e-12</wgt>
  <wgt id="515">5.71929e-12</wgt>
  <wgt id="516">5.94018e-12</wgt>
  <wgt id="517">5.91774e-12</wgt>
  <wgt id="518">5.93929e-12</wgt>
  <wgt id="519">5.65741e-12</wgt>
  <wgt id="520">5.81775e-12</wgt>
  <wgt id="521">5.99885e-12</wgt>
  <wgt id="522">6.00527e-12</wgt>
  <wgt id="523">5.90436e-12</wgt>
  <wgt id="524">5.89848e-12</wgt>
  <wgt id="525">5.93247e-12</wgt>
  <wgt id="526">5.78335e-12</wgt>
  <wgt id="527">5.89503e-12</wgt>
  <wgt id="528">5.78683e-12</wgt>
  <wgt id="529">5.71932e-12</wgt>
  <wgt id="530">5.8225e-12</wgt>
  <wgt id="531">5.71701e-12</wgt>
  <wgt id="532">6.0883e-12</wgt>
  <wgt id="533">5.44681e-12</wgt>
  <wgt id="534">5.79761e-12</wgt>
  <wgt id="535">5.88559e-12</wgt>
  <wgt id="536">5.79472e-12</wgt>
  <wgt id="537">5.81105e-12</wgt>
  <wgt id="538">5.88727e-12</wgt>
  <wgt id="539">5.66162e-12</wgt>
  <wgt id="540">5.72887e-12</wgt>
  <wgt id="541">5.694e-12</wgt>
  <wgt id="542">5.66468e-12</wgt>
  <wgt id="543">5.78053e-12</wgt>
  <wgt id="544">6.069e-12</wgt>
  <wgt id="545">5.71422e-12</wgt>
  <wgt id="546">5.73121e-12</wgt>
  <wgt id="547">5.62041e-12</wgt>
  <wgt id="548">5.55594e-12</wgt>
  <wgt id="549">5.70261e-12</wgt>
  <wgt id="550">5.81248e-12</wgt>
  <wgt id="551">5.8591e-12</wgt>
  <wgt id="552">5.73619e-12</wgt>
  <wgt id="553">5.7766e-12</wgt>
  <wgt id="554">6.21955e-12</wgt>
  <wgt id="555">5.94987e-12</wgt>
  <wgt id="556">5.62445e-12</wgt>
  <wgt id="557">5.87654e-12</wgt>
  <wgt id="558">5.60373e-12</wgt>
  <wgt id="559">5.72133e-12</wgt>
  <wgt id="560">6.24522e-12</wgt>
  <wgt id="561">5.6566e-12</wgt>
  <wgt id="562">5.86506e-12</wgt>
  <wgt id="563">5.64653e-12</wgt>
  <wgt id="564">5.78764e-12</wgt>
  <wgt id="565">5.60689e-12</wgt>
  <wgt id="566">5.85027e-12</wgt>
  <wgt id="567">5.70224e-12</wgt>
  <wgt id="568">5.79338e-12</wgt>
  <wgt id="569">5.84086e-12</wgt>
  <wgt id="570">5.65446e-12</wgt>
  <wgt id="571">6.39794e-12</wgt>
  <wgt id="572">5.66558e-12</wgt>
  <wgt id="573">5.53476e-12</wgt>
  <wgt id="574">5.58936e-12</wgt>
  <wgt id="575">6.34032e-12</wgt>
  <wgt id="576">6.24208e-12</wgt>
  <wgt id="577">6.56271e-12</wgt>
  <wgt id="578">6.45794e-12</wgt>
  <wgt id="579">6.4017e-12</wgt>
  <wgt id="580">6.43531e-12</wgt>
  <wgt id="581">6.71164e-12</wgt>
  <wgt id="582">6.22475e-12</wgt>
  <wgt id="583">6.39951e-12</wgt>
  <wgt id="584">6.34478e-12</wgt>
  <wgt id="585">6.38575e-12</wgt>
  <wgt id="586">6.19643e-12</wgt>
  <wgt id="587">6.41009e-12</wgt>
  <wgt id="588">6.29881e-12</wgt>
  <wgt id="589">6.41216e-12</wgt>
  <wgt id="590">6.43713e-12</wgt>
  <wgt id="591">6.59061e-12</wgt>
  <wgt id="592">6.22641e-12</wgt>
  <wgt id="593">6.30953e-12</wgt>
  <wgt id="594">6.595e-12</wgt>
  <wgt id="595">6.29662e-12</wgt>
  <wgt id="596">6.42969e-12</wgt>
  <wgt id="597">6.11136e-12</wgt>
  <wgt id="598">6.27647e-12</wgt>
  <wgt id="599">6.64472e-12</wgt>
  <wgt id="600">6.28056e-12</wgt>
  <wgt id="601">6.16102e-12</wgt>
  <wgt id="602">6.22549e-12</wgt>
  <wgt id="603">6.25768e-12</wgt>
  <wgt id="604">6.42085e-12</wgt>
  <wgt id="605">6.59539e-12</wgt>
  <wgt id="606">6.18555e-12</wgt>
  <wgt id="607">6.2526e-12</wgt>
  <wgt id="608">6.32137e-12</wgt>
  <wgt id="609">5.97276e-12</wgt>
  <wgt id="610">6.09686e-12</wgt>
  <wgt id="611">6.44133e-12</wgt>
  <wgt id="612">6.81152e-12</wgt>
  <wgt id="613">6.34877e-12</wgt>
  <wgt id="614">6.41666e-12</wgt>
  <wgt id="615">6.21494e-12</wgt>
  <wgt id="616">6.75375e-12</wgt>
  <wgt id="617">6.55306e-12</wgt>
  <wgt id="618">6.3521e-12</wgt>
  <wgt id="619">6.30601e-12</wgt>
  <wgt id="620">6.54972e-12</wgt>
  <wgt id="621">6.43195e-12</wgt>
  <wgt id="622">6.41009e-12</wgt>
  <wgt id="623">6.50003e-12</wgt>
  <wgt id="624">6.29949e-12</wgt>
  <wgt id="625">6.26845e-12</wgt>
  <wgt id="626">6.20613e-12</wgt>
  <wgt id="627">6.11925e-12</wgt>
  <wgt id="628">6.67204e-12</wgt>
  <wgt id="629">6.20788e-12</wgt>
  <wgt id="630">6.17201e-12</wgt>
  <wgt id="631">6.3418e-12</wgt>
  <wgt id="632">6.16261e-12</wgt>
  <wgt id="633">6.26133e-12</wgt>
  <wgt id="634">6.37159e-12</wgt>
  <wgt id="635">6.2842e-12</wgt>
  <wgt id="636">6.37895e-12</wgt>
  <wgt id="637">6.36234e-12</wgt>
  <wgt id="638">6.12377e-12</wgt>
  <wgt id="639">6.27456e-12</wgt>
  <wgt id="640">6.35543e-12</wgt>
  <wgt id="641">6.35293e-12</wgt>
  <wgt id="642">6.23157e-12</wgt>
  <wgt id="643">6.3192e-12</wgt>
  <wgt id="644">6.13188e-12</wgt>
  <wgt id="645">6.37716e-12</wgt>
  <wgt id="646">6.46552e-12</wgt>
  <wgt id="647">6.2371e-12</wgt>
  <wgt id="648">6.36609e-12</wgt>
  <wgt id="649">6.4342e-12</wgt>
  <wgt id="650">6.22704e-12</wgt>
  <wgt id="651">6.40632e-12</wgt>
  <wgt id="652">6.33062e-12</wgt>
  <wgt id="653">6.17772e-12</wgt>
  <wgt id="654">6.31327e-12</wgt>
  <wgt id="655">6.2075e-12</wgt>
  <wgt id="656">6.33051e-12</wgt>
  <wgt id="657">6.48381e-12</wgt>
  <wgt id="658">6.44096e-12</wgt>
  <wgt id="659">6.11323e-12</wgt>
  <wgt id="660">6.45807e-12</wgt>
  <wgt id="661">6.24971e-12</wgt>
  <wgt id="662">6.3142e-12</wgt>
  <wgt id="663">6.32189e-12</wgt>
  <wgt id="664">6.23933e-12</wgt>
  <wgt id="665">6.3173e-12</wgt>
  <wgt id="666">6.32451e-12</wgt>
  <wgt id="667">6.53634e-12</wgt>
  <wgt id="668">6.3089e-12</wgt>
  <wgt id="669">6.49621e-12</wgt>
  <wgt id="670">6.41541e-12</wgt>
  <wgt id="671">6.24073e-12</wgt>
  <wgt id="672">6.07724e-12</wgt>
  <wgt id="673">6.31809e-12</wgt>
  <wgt id="674">6.212e-12</wgt>
  <wgt id="675">6.209e-12</wgt>
  <wgt id="676">7.87852e-12</wgt>
  <wgt id="677">7.98726e-12</wgt>
  <wgt id="678">8.23048e-12</wgt>
  <wgt id="679">7.50047e-12</wgt>
  <wgt id="680">7.61134e-12</wgt>
  <wgt id="681">8.10367e-12</wgt>
  <wgt id="682">7.99948e-12</wgt>
  <wgt id="683">7.81514e-12</wgt>
  <wgt id="684">8.21408e-12</wgt>
  <wgt id="685">7.47336e-12</wgt>
  <wgt id="686">7.90164e-12</wgt>
  <wgt id="687">8.21974e-12</wgt>
  <wgt id="688">7.83586e-12</wgt>
  <wgt id="689">8.42717e-12</wgt>
  <wgt id="690">8.31539e-12</wgt>
  <wgt id="691">8.29755e-12</wgt>
  <wgt id="692">7.84967e-12</wgt>
  <wgt id="693">9.05005e-12</wgt>
  <wgt id="694">8.31508e-12</wgt>
  <wgt id="695">7.62688e-12</wgt>
  <wgt id="696">7.51511e-12</wgt>
  <wgt id="697">7.64092e-12</wgt>
  <wgt id="698">7.39901e-12</wgt>
  <wgt id="699">7.30846e-12</wgt>
  <wgt id="700">7.0227e-12</wgt>
  <wgt id="701">7.89453e-12</wgt>
  <wgt id="702">7.55489e-12</wgt>
  <wgt id="703">8.90094e-12</wgt>
  <wgt id="704">8.46412e-12</wgt>
  <wgt id="705">8.16792e-12</wgt>
  <wgt id="706">7.36865e-12</wgt>
  <wgt id="707">7.58643e-12</wgt>
  <wgt id="708">7.78665e-12</wgt>
  <wgt id="709">7.75077e-12</wgt>
  <wgt id="710">7.09467e-12</wgt>
  <wgt id="711">7.86958e-12</wgt>
  <wgt id="712">7.779e-12</wgt>
  <wgt id="713">8.40845e-12</wgt>
  <wgt id="714">7.8433e-12</wgt>
  <wgt id="715">7.80046e-12</wgt>
  <wgt id="716">7.59819e-12</wgt>
  <wgt id="717">7.57779e-12</wgt>
  <wgt id="718">7.75446e-12</wgt>
  <wgt id="719">7.22454e-12</wgt>
  <wgt id="720">7.47728e-12</wgt>
  <wgt id="721">7.47757e-12</wgt>
  <wgt id="722">7.14574e-12</wgt>
  <wgt id="723">8.31523e-12</wgt>
  <wgt id="724">8.18421e-12</wgt>
  <wgt id="725">8.31865e-12</wgt>
  <wgt id="726">7.96471e-12</wgt>
  <wgt id="727">7.70202e-12</wgt>
  <wgt id="728">7.80126e-12</wgt>
  <wgt id="729">7.18211e-12</wgt>
  <wgt id="730">8.35989e-12</wgt>
  <wgt id="731">7.80317e-12</wgt>
  <wgt id="732">8.57137e-12</wgt>
  <wgt id="733">7.8719e-12</wgt>
  <wgt id="734">8.05772e-12</wgt>
  <wgt id="735">7.84107e-12</wgt>
  <wgt id="736">7.77936e-12</wgt>
  <wgt id="737">8.0075e-12</wgt>
  <wgt id="738">7.58344e-12</wgt>
  <wgt id="739">7.86168e-12</wgt>
  <wgt id="740">8.68867e-12</wgt>
  <wgt id="741">7.02927e-12</wgt>
  <wgt id="742">7.76586e-12</wgt>
  <wgt id="743">7.64545e-12</wgt>
  <wgt id="744">7.72493e-12</wgt>
  <wgt id="745">8.16375e-12</wgt>
  <wgt id="746">8.25956e-12</wgt>
  <wgt id="747">7.28217e-12</wgt>
  <wgt id="748">7.75576e-12</wgt>
  <wgt id="749">8.31268e-12</wgt>
  <wgt id="750">7.84954e-12</wgt>
  <wgt id="751">8.15738e-12</wgt>
  <wgt id="752">7.29304e-12</wgt>
  <wgt id="753">7.51872e-12</wgt>
  <wgt id="754">8.10296e-12</wgt>
  <wgt id="755">7.92752e-12</wgt>
  <wgt id="756">7.91834e-12</wgt>
  <wgt id="757">7.34039e-12</wgt>
  <wgt id="758">7.97697e-12</wgt>
  <wgt id="759">7.86954e-12</wgt>
  <wgt id="760">8.02119e-12</wgt>
  <wgt id="761">8.28756e-12</wgt>
  <wgt id="762">8.29038e-12</wgt>
  <wgt id="763">7.89579e-12</wgt>
  <wgt id="764">8.14936e-12</wgt>
  <wgt id="765">7.94794e-12</wgt>
  <wgt id="766">7.85033e-12</wgt>
  <wgt id="767">8.05235e-12</wgt>
  <wgt id="768">7.50152e-12</wgt>
  <wgt id="769">8.3168e-12</wgt>
  <wgt id="770">7.67481e-12</wgt>
  <wgt id="771">9.18391e-12</wgt>
  <wgt id="772">7.42653e-12</wgt>
  <wgt id="773">7.84818e-12</wgt>
  <wgt id="774">7.14138e-12</wgt>
  <wgt id="775">8.22962e-12</wgt>
  <wgt id="776">8.58266e-12</wgt>
  <wgt id="777">7.64313e-12</wgt>
  <wgt id="778">5.92822e-12</wgt>
  <wgt id="779">5.07263e-12</wgt>
  <wgt id="780">4.30696e-12</wgt>
  <wgt id="781">5.93473e-12</wgt>
  <wgt id="782">6.27207e-12</wgt>
  <wgt id="783">5.17082e-12</wgt>
  <wgt id="784">5.29177e-12</wgt>
  <wgt id="785">7.07854e-12</wgt>
  <wgt id="786">4.6608e-12</wgt>
  <wgt id="787">6.60931e-12</wgt>
  <wgt id="788">4.00257e-12</wgt>
  <wgt id="789">4.82796e-12</wgt>
  <wgt id="790">4.6465e-12</wgt>
  <wgt id="791">5.51322e-12</wgt>
  <wgt id="792">7.57575e-12</wgt>
  <wgt id="793">5.73924e-12</wgt>
  <wgt id="794">4.73696e-12</wgt>
  <wgt id="795">6.73893e-12</wgt>
  <wgt id="796">7.65611e-12</wgt>
  <wgt id="797">6.71335e-12</wgt>
  <wgt id="798">5.54736e-12</wgt>
  <wgt id="799">6.64115e-12</wgt>
  <wgt id="800">4.87438e-12</wgt>
  <wgt id="801">5.60902e-12</wgt>
  <wgt id="802">4.78091e-12</wgt>
  <wgt id="803">7.65116e-12</wgt>
  <wgt id="804">6.69683e-12</wgt>
  <wgt id="805">6.82269e-12</wgt>
  <wgt id="806">6.67836e-12</wgt>
  <wgt id="807">5.69988e-12</wgt>
  <wgt id="808">5.7964e-12</wgt>
  <wgt id="809">5.48717e-12</wgt>
  <wgt id="810">6.75673e-12</wgt>
  <wgt id="811">6.42051e-12</wgt>
  <wgt id="812">4.70103e-12</wgt>
  <wgt id="813">4.75541e-12</wgt>
  <wgt id="814">5.02821e-12</wgt>
  <wgt id="815">5.09185e-12</wgt>
  <wgt id="816">4.53687e-12</wgt>
  <wgt id="817">6.24223e-12</wgt>
  <wgt id="818">5.76875e-12</wgt>
  <wgt id="819">5.09325e-12</wgt>
  <wgt id="820">5.95118e-12</wgt>
  <wgt id="821">6.68966e-12</wgt>
  <wgt id="822">5.13404e-12</wgt>
  <wgt id="823">6.70107e-12</wgt>
  <wgt id="824">7.83056e-12</wgt>
  <wgt id="825">4.56373e-12</wgt>
  <wgt id="826">6.14003e-12</wgt>
  <wgt id="827">3.85238e-12</wgt>
  <wgt id="828">7.56913e-12</wgt>
  <wgt id="829">6.10627e-12</wgt>
  <wgt id="830">4.34246e-12</wgt>
  <wgt id="831">6.30439e-12</wgt>
  <wgt id="832">9.42549e-12</wgt>
  <wgt id="833">5.63252e-12</wgt>
  <wgt id="834">8.83909e-12</wgt>
  <wgt id="835">4.88681e-12</wgt>
  <wgt id="836">5.96527e-12</wgt>
  <wgt id="837">6.6086e-12</wgt>
  <wgt id="838">5.69178e-12</wgt>
  <wgt id="839">6.27816e-12</wgt>
  <wgt id="840">5.63731e-12</wgt>
  <wgt id="841">7.07174e-12</wgt>
  <wgt id="842">5.46359e-12</wgt>
  <wgt id="843">5.76227e-12</wgt>
  <wgt id="844">6.12116e-12</wgt>
  <wgt id="845">7.98667e-12</wgt>
  <wgt id="846">5.50028e-12</wgt>
  <wgt id="847">5.87158e-12</wgt>
  <wgt id="848">5.28522e-12</wgt>
  <wgt id="849">6.05387e-12</wgt>
  <wgt id="850">7.48405e-12</wgt>
  <wgt id="851">6.43736e-12</wgt>
  <wgt id="852">5.21961e-12</wgt>
  <wgt id="853">6.40271e-12</wgt>
  <wgt id="854">7.07463e-12</wgt>
  <wgt id="855">6.70324e-12</wgt>
  <wgt id="856">4.45099e-12</wgt>
  <wgt id="857">5.99357e-12</wgt>
  <wgt id="858">5.87934e-12</wgt>
  <wgt id="859">5.54174e-12</wgt>
  <wgt id="860">6.22637e-12</wgt>
  <wgt id="861">5.35452e-12</wgt>
  <wgt id="862">6.01757e-12</wgt>
  <wgt id="863">6.18567e-12</wgt>
  <wgt id="864">6.21906e-12</wgt>
  <wgt id="865">8.20571e-12</wgt>
  <wgt id="866">8.97338e-12</wgt>
  <wgt id="867">5.9713e-12</wgt>
  <wgt id="868">5.82733e-12</wgt>
  <wgt id="869">4.74991e-12</wgt>
  <wgt id="870">4.99204e-12</wgt>
  <wgt id="871">4.85721e-12</wgt>
  <wgt id="872">6.87412e-12</wgt>
  <wgt id="873">4.97664e-12</wgt>
  <wgt id="874">6.16836e-12</wgt>
  <wgt id="875">5.20391e-12</wgt>
  <wgt id="876">6.8845e-12</wgt>
  <wgt id="877">6.65882e-12</wgt>
  <wgt id="878">5.23614e-12</wgt>
  <wgt id="879">7.87852e-12</wgt>
  <wgt id="880">7.98726e-12</wgt>
  <wgt id="881">8.23048e-12</wgt>
  <wgt id="882">7.50047e-12</wgt>
  <wgt id="883">7.61134e-12</wgt>
  <wgt id="884">8.10367e-12</wgt>
  <wgt id="885">7.99948e-12</wgt>
  <wgt id="886">7.81514e-12</wgt>
  <wgt id="887">8.21408e-12</wgt>
  <wgt id="888">7.47336e-12</wgt>
  <wgt id="889">7.90164e-12</wgt>
  <wgt id="890">8.21974e-12</wgt>
  <wgt id="891">7.83586e-12</wgt>
  <wgt id="892">8.42717e-12</wgt>
  <wgt id="893">8.31539e-12</wgt>
  <wgt id="894">8.29755e-12</wgt>
  <wgt id="895">7.84967e-12</wgt>
  <wgt id="896">9.05005e-12</wgt>
  <wgt id="897">8.31508e-12</wgt>
  <wgt id="898">7.62688e-12</wgt>
  <wgt id="899">7.51511e-12</wgt>
  <wgt id="900">7.64092e-12</wgt>
  <wgt id="901">7.39901e-12</wgt>
  <wgt id="902">7.30846e-12</wgt>
  <wgt id="903">7.0227e-12</wgt>
  <wgt id="904">7.89453e-12</wgt>
  <wgt id="905">7.55489e-12</wgt>
  <wgt id="906">8.90094e-12</wgt>
  <wgt id="907">8.46412e-12</wgt>
  <wgt id="908">8.16792e-12</wgt>
  <wgt id="909">7.36865e-12</wgt>
  <wgt id="910">7.58643e-12</wgt>
  <wgt id="911">7.78665e-12</wgt>
  <wgt id="912">7.75077e-12</wgt>
  <wgt id="913">7.09467e-12</wgt>
  <wgt id="914">7.86958e-12</wgt>
  <wgt id="915">7.779e-12</wgt>
  <wgt id="916">8.40845e-12</wgt>
  <wgt id="917">7.8433e-12</wgt>
  <wgt id="918">7.80046e-12</wgt>
  <wgt id="919">7.59819e-12</wgt>
  <wgt id="920">7.57779e-12</wgt>
  <wgt id="921">7.75446e-12</wgt>
  <wgt id="922">7.22454e-12</wgt>
  <wgt id="923">7.47728e-12</wgt>
  <wgt id="924">7.47757e-12</wgt>
  <wgt id="925">7.14574e-12</wgt>
  <wgt id="926">8.31523e-12</wgt>
  <wgt id="927">8.18421e-12</wgt>
  <wgt id="928">8.31865e-12</wgt>
  <wgt id="929">7.96471e-12</wgt>
  <wgt id="930">7.70202e-12</wgt>
  <wgt id="931">7.80126e-12</wgt>
  <wgt id="932">7.18211e-12</wgt>
  <wgt id="933">8.35989e-12</wgt>
  <wgt id="934">7.80317e-12</wgt>
  <wgt id="935">8.57137e-12</wgt>
  <wgt id="936">7.8719e-12</wgt>
  <wgt id="937">8.05772e-12</wgt>
  <wgt id="938">7.84107e-12</wgt>
  <wgt id="939">7.77936e-12</wgt>
  <wgt id="940">8.0075e-12</wgt>
  <wgt id="941">7.58344e-12</wgt>
  <wgt id="942">7.86168e-12</wgt>
  <wgt id="943">8.68867e-12</wgt>
  <wgt id="944">7.02927e-12</wgt>
  <wgt id="945">7.76586e-12</wgt>
  <wgt id="946">7.64545e-12</wgt>
  <wgt id="947">7.72493e-12</wgt>
  <wgt id="948">8.16375e-12</wgt>
  <wgt id="949">8.25956e-12</wgt>
  <wgt id="950">7.28217e-12</wgt>
  <wgt id="951">7.75576e-12</wgt>
  <wgt id="952">8.31268e-12</wgt>
  <wgt id="953">7.84954e-12</wgt>
  <wgt id="954">8.15738e-12</wgt>
  <wgt id="955">7.29304e-12</wgt>
  <wgt id="956">7.51872e-12</wgt>
  <wgt id="957">8.10296e-12</wgt>
  <wgt id="958">7.92752e-12</wgt>
  <wgt id="959">7.91834e-12</wgt>
  <wgt id="960">7.34039e-12</wgt>
  <wgt id="961">7.97697e-12</wgt>
  <wgt id="962">7.86954e-12</wgt>
  <wgt id="963">8.02119e-12</wgt>
  <wgt id="964">8.28756e-12</wgt>
  <wgt id="965">8.29038e-12</wgt>
  <wgt id="966">7.89579e-12</wgt>
  <wgt id="967">8.14936e-12</wgt>
  <wgt id="968">7.94794e-12</wgt>
  <wgt id="969">7.85033e-12</wgt>
  <wgt id="970">8.05235e-12</wgt>
  <wgt id="971">7.50152e-12</wgt>
  <wgt id="972">8.3168e-12</wgt>
  <wgt id="973">7.67481e-12</wgt>
  <wgt id="974">9.18391e-12</wgt>
  <wgt id="975">7.42653e-12</wgt>
  <wgt id="976">7.84818e-12</wgt>
  <wgt id="977">7.14138e-12</wgt>
  <wgt id="978">8.22962e-12</wgt>
  <wgt id="979">8.58266e-12</wgt>
  <wgt id="980">7.89328e-12</wgt>
  <wgt id="981">7.90423e-12</wgt>
  <wgt id="982">7.66185e-12</wgt>
</rwgt>
</event>
<event>
 5   1  0.5790000E-11  0.2109501E+04  0.7818608E-02  0.7783840E-01
       21   -1    0    0  502  501  0.00000000000E+00  0.00000000000E+00  0.10688320227E+04  0.10688320227E+04  0.00000000000E+00 0.  1.
       21   -1    0    0  501  502 -0.00000000000E+00 -0.00000000000E+00 -0.10408541700E+04  0.10408541700E+04  0.00000000000E+00 0. -1.
       39    2    1    2    0    0  0.00000000000E+00  0.00000000000E+00  0.27977852673E+02  0.21096861927E+04  0.21095006687E+04 0.  0.
       25    1    3    3    0    0  0.69493823987E+03  0.75461542082E+03 -0.19695538633E+03  0.10520456334E+04  0.12500000000E+03 0.  0.
       25    1    3    3    0    0 -0.69493823987E+03 -0.75461542082E+03  0.22493323900E+03  0.10576405593E+04  0.12500000000E+03 0.  0.
<mgrwt>
<rscale>  0 0.21095007E+04</rscale>
<asrwt>0</asrwt>
<pdfrwt beam="1">  1       21 0.16443570E+00 0.21095007E+04</pdfrwt>
<pdfrwt beam="2">  1       21 0.16013141E+00 0.21095007E+04</pdfrwt>
<totfact> 0.25247464E+01</totfact>
</mgrwt>
<rwgt>
  <wgt id="1">5.79e-12</wgt>
  <wgt id="2">5.06743e-12</wgt>
  <wgt id="3">6.68163e-12</wgt>
  <wgt id="4">5.79e-12</wgt>
  <wgt id="5">5.06743e-12</wgt>
  <wgt id="6">6.68163e-12</wgt>
  <wgt id="7">5.79e-12</wgt>
  <wgt id="8">5.06743e-12</wgt>
  <wgt id="9">6.68163e-12</wgt>
  <wgt id="10">5.93078e-12</wgt>
  <wgt id="11">5.92484e-12</wgt>
  <wgt id="12">5.91913e-12</wgt>
  <wgt id="13">5.91051e-12</wgt>
  <wgt id="14">5.95134e-12</wgt>
  <wgt id="15">5.93862e-12</wgt>
  <wgt id="16">5.91643e-12</wgt>
  <wgt id="17">5.93963e-12</wgt>
  <wgt id="18">5.92436e-12</wgt>
  <wgt id="19">5.94239e-12</wgt>
  <wgt id="20">5.91321e-12</wgt>
  <wgt id="21">5.9023e-12</wgt>
  <wgt id="22">5.91536e-12</wgt>
  <wgt id="23">5.88322e-12</wgt>
  <wgt id="24">5.90616e-12</wgt>
  <wgt id="25">5.91599e-12</wgt>
  <wgt id="26">5.95557e-12</wgt>
  <wgt id="27">5.93007e-12</wgt>
  <wgt id="28">5.90268e-12</wgt>
  <wgt id="29">5.93787e-12</wgt>
  <wgt id="30">5.91672e-12</wgt>
  <wgt id="31">5.94554e-12</wgt>
  <wgt id="32">5.91707e-12</wgt>
  <wgt id="33">5.9425e-12</wgt>
  <wgt id="34">5.91481e-12</wgt>
  <wgt id="35">5.92205e-12</wgt>
  <wgt id="36">5.94158e-12</wgt>
  <wgt id="37">5.91572e-12</wgt>
  <wgt id="38">5.91841e-12</wgt>
  <wgt id="39">5.98978e-12</wgt>
  <wgt id="40">5.94759e-12</wgt>
  <wgt id="41">5.92929e-12</wgt>
  <wgt id="42">5.95401e-12</wgt>
  <wgt id="43">5.93928e-12</wgt>
  <wgt id="44">5.90108e-12</wgt>
  <wgt id="45">5.9376e-12</wgt>
  <wgt id="46">5.93638e-12</wgt>
  <wgt id="47">5.90165e-12</wgt>
  <wgt id="48">5.93286e-12</wgt>
  <wgt id="49">5.96283e-12</wgt>
  <wgt id="50">5.97344e-12</wgt>
  <wgt id="51">5.95559e-12</wgt>
  <wgt id="52">5.89937e-12</wgt>
  <wgt id="53">5.90086e-12</wgt>
  <wgt id="54">5.91956e-12</wgt>
  <wgt id="55">5.92858e-12</wgt>
  <wgt id="56">5.94517e-12</wgt>
  <wgt id="57">5.95121e-12</wgt>
  <wgt id="58">5.89016e-12</wgt>
  <wgt id="59">5.91228e-12</wgt>
  <wgt id="60">5.93033e-12</wgt>
  <wgt id="61">5.93248e-12</wgt>
  <wgt id="62">5.93501e-12</wgt>
  <wgt id="63">5.94189e-12</wgt>
  <wgt id="64">5.93774e-12</wgt>
  <wgt id="65">5.93381e-12</wgt>
  <wgt id="66">5.92476e-12</wgt>
  <wgt id="67">5.92995e-12</wgt>
  <wgt id="68">5.92489e-12</wgt>
  <wgt id="69">5.92709e-12</wgt>
  <wgt id="70">5.9262e-12</wgt>
  <wgt id="71">5.92527e-12</wgt>
  <wgt id="72">5.92535e-12</wgt>
  <wgt id="73">5.93635e-12</wgt>
  <wgt id="74">5.93306e-12</wgt>
  <wgt id="75">5.93429e-12</wgt>
  <wgt id="76">5.94463e-12</wgt>
  <wgt id="77">5.92972e-12</wgt>
  <wgt id="78">5.93249e-12</wgt>
  <wgt id="79">5.93882e-12</wgt>
  <wgt id="80">5.90904e-12</wgt>
  <wgt id="81">5.92403e-12</wgt>
  <wgt id="82">5.9311e-12</wgt>
  <wgt id="83">5.91341e-12</wgt>
  <wgt id="84">5.91974e-12</wgt>
  <wgt id="85">5.92447e-12</wgt>
  <wgt id="86">5.93872e-12</wgt>
  <wgt id="87">5.9098e-12</wgt>
  <wgt id="88">5.93575e-12</wgt>
  <wgt id="89">5.93505e-12</wgt>
  <wgt id="90">5.93593e-12</wgt>
  <wgt id="91">5.93387e-12</wgt>
  <wgt id="92">5.93935e-12</wgt>
  <wgt id="93">5.9301e-12</wgt>
  <wgt id="94">5.92739e-12</wgt>
  <wgt id="95">5.93346e-12</wgt>
  <wgt id="96">5.93398e-12</wgt>
  <wgt id="97">5.92509e-12</wgt>
  <wgt id="98">5.93384e-12</wgt>
  <wgt id="99">5.92877e-12</wgt>
  <wgt id="100">5.93683e-12</wgt>
  <wgt id="101">5.92984e-12</wgt>
  <wgt id="102">5.92668e-12</wgt>
  <wgt id="103">5.93675e-12</wgt>
  <wgt id="104">5.92657e-12</wgt>
  <wgt id="105">5.93457e-12</wgt>
  <wgt id="106">5.92538e-12</wgt>
  <wgt id="107">5.94325e-12</wgt>
  <wgt id="108">5.92565e-12</wgt>
  <wgt id="109">5.93452e-12</wgt>
  <wgt id="110">5.92903e-12</wgt>
  <wgt id="111">6.00942e-12</wgt>
  <wgt id="112">5.9092e-12</wgt>
  <wgt id="113">7.70928e-12</wgt>
  <wgt id="114">8.07367e-12</wgt>
  <wgt id="115">7.96678e-12</wgt>
  <wgt id="116">1.07648e-11</wgt>
  <wgt id="117">6.48824e-12</wgt>
  <wgt id="118">6.50821e-12</wgt>
  <wgt id="119">6.47703e-12</wgt>
  <wgt id="120">6.48911e-12</wgt>
  <wgt id="121">6.48777e-12</wgt>
  <wgt id="122">6.47636e-12</wgt>
  <wgt id="123">6.50465e-12</wgt>
  <wgt id="124">6.47876e-12</wgt>
  <wgt id="125">6.49454e-12</wgt>
  <wgt id="126">6.49875e-12</wgt>
  <wgt id="127">6.48139e-12</wgt>
  <wgt id="128">6.50872e-12</wgt>
  <wgt id="129">6.46799e-12</wgt>
  <wgt id="130">6.52566e-12</wgt>
  <wgt id="131">6.45001e-12</wgt>
  <wgt id="132">6.32831e-12</wgt>
  <wgt id="133">6.67612e-12</wgt>
  <wgt id="134">6.42323e-12</wgt>
  <wgt id="135">6.53887e-12</wgt>
  <wgt id="136">6.56313e-12</wgt>
  <wgt id="137">6.39756e-12</wgt>
  <wgt id="138">6.71588e-12</wgt>
  <wgt id="139">6.26629e-12</wgt>
  <wgt id="140">6.44279e-12</wgt>
  <wgt id="141">6.5241e-12</wgt>
  <wgt id="142">6.48955e-12</wgt>
  <wgt id="143">6.49461e-12</wgt>
  <wgt id="144">6.34689e-12</wgt>
  <wgt id="145">6.61625e-12</wgt>
  <wgt id="146">6.53297e-12</wgt>
  <wgt id="147">6.45388e-12</wgt>
  <wgt id="148">6.50585e-12</wgt>
  <wgt id="149">6.48705e-12</wgt>
  <wgt id="150">6.54215e-12</wgt>
  <wgt id="151">6.46317e-12</wgt>
  <wgt id="152">6.49066e-12</wgt>
  <wgt id="153">6.48733e-12</wgt>
  <wgt id="154">6.55002e-12</wgt>
  <wgt id="155">6.41693e-12</wgt>
  <wgt id="156">6.57927e-12</wgt>
  <wgt id="157">6.38105e-12</wgt>
  <wgt id="158">7.81028e-12</wgt>
  <wgt id="159">7.84246e-12</wgt>
  <wgt id="160">7.78429e-12</wgt>
  <wgt id="161">7.79253e-12</wgt>
  <wgt id="162">7.82998e-12</wgt>
  <wgt id="163">7.80276e-12</wgt>
  <wgt id="164">7.8217e-12</wgt>
  <wgt id="165">7.81348e-12</wgt>
  <wgt id="166">7.80807e-12</wgt>
  <wgt id="167">7.80458e-12</wgt>
  <wgt id="168">7.81854e-12</wgt>
  <wgt id="169">7.77648e-12</wgt>
  <wgt id="170">7.83146e-12</wgt>
  <wgt id="171">7.80243e-12</wgt>
  <wgt id="172">7.82159e-12</wgt>
  <wgt id="173">7.81307e-12</wgt>
  <wgt id="174">7.80903e-12</wgt>
  <wgt id="175">7.60472e-12</wgt>
  <wgt id="176">8.07687e-12</wgt>
  <wgt id="177">7.84831e-12</wgt>
  <wgt id="178">7.77492e-12</wgt>
  <wgt id="179">8.10178e-12</wgt>
  <wgt id="180">7.34619e-12</wgt>
  <wgt id="181">7.60449e-12</wgt>
  <wgt id="182">7.94568e-12</wgt>
  <wgt id="183">7.68408e-12</wgt>
  <wgt id="184">7.873e-12</wgt>
  <wgt id="185">7.75351e-12</wgt>
  <wgt id="186">7.87624e-12</wgt>
  <wgt id="187">7.7454e-12</wgt>
  <wgt id="188">7.92728e-12</wgt>
  <wgt id="189">7.766e-12</wgt>
  <wgt id="190">7.82844e-12</wgt>
  <wgt id="191">7.829e-12</wgt>
  <wgt id="192">7.79936e-12</wgt>
  <wgt id="193">7.90888e-12</wgt>
  <wgt id="194">7.76151e-12</wgt>
  <wgt id="195">7.67176e-12</wgt>
  <wgt id="196">8.08467e-12</wgt>
  <wgt id="197">7.84591e-12</wgt>
  <wgt id="198">7.80182e-12</wgt>
  <wgt id="199">7.81028e-12</wgt>
  <wgt id="200">7.872e-12</wgt>
  <wgt id="201">7.8487e-12</wgt>
  <wgt id="202">7.82666e-12</wgt>
  <wgt id="203">7.79255e-12</wgt>
  <wgt id="204">7.77669e-12</wgt>
  <wgt id="205">7.76332e-12</wgt>
  <wgt id="206">7.61733e-12</wgt>
  <wgt id="207">7.66097e-12</wgt>
  <wgt id="208">7.57423e-12</wgt>
  <wgt id="209">7.63685e-12</wgt>
  <wgt id="210">7.60307e-12</wgt>
  <wgt id="211">7.61531e-12</wgt>
  <wgt id="212">7.61887e-12</wgt>
  <wgt id="213">7.61659e-12</wgt>
  <wgt id="214">7.61844e-12</wgt>
  <wgt id="215">7.6221e-12</wgt>
  <wgt id="216">7.61409e-12</wgt>
  <wgt id="217">7.63813e-12</wgt>
  <wgt id="218">7.60161e-12</wgt>
  <wgt id="219">7.60705e-12</wgt>
  <wgt id="220">7.62353e-12</wgt>
  <wgt id="221">7.61327e-12</wgt>
  <wgt id="222">7.62734e-12</wgt>
  <wgt id="223">7.24256e-12</wgt>
  <wgt id="224">7.95706e-12</wgt>
  <wgt id="225">7.53452e-12</wgt>
  <wgt id="226">7.72097e-12</wgt>
  <wgt id="227">7.5503e-12</wgt>
  <wgt id="228">7.64675e-12</wgt>
  <wgt id="229">7.51804e-12</wgt>
  <wgt id="230">7.66668e-12</wgt>
  <wgt id="231">7.81586e-12</wgt>
  <wgt id="232">7.45365e-12</wgt>
  <wgt id="233">7.58182e-12</wgt>
  <wgt id="234">7.67028e-12</wgt>
  <wgt id="235">7.51769e-12</wgt>
  <wgt id="236">7.72446e-12</wgt>
  <wgt id="237">7.53993e-12</wgt>
  <wgt id="238">7.64425e-12</wgt>
  <wgt id="239">7.58209e-12</wgt>
  <wgt id="240">7.68203e-12</wgt>
  <wgt id="241">7.54849e-12</wgt>
  <wgt id="242">7.70017e-12</wgt>
  <wgt id="243">7.67922e-12</wgt>
  <wgt id="244">7.67498e-12</wgt>
  <wgt id="245">7.61031e-12</wgt>
  <wgt id="246">7.67922e-12</wgt>
  <wgt id="247">7.61733e-12</wgt>
  <wgt id="248">7.67782e-12</wgt>
  <wgt id="249">7.65415e-12</wgt>
  <wgt id="250">7.63256e-12</wgt>
  <wgt id="251">7.59947e-12</wgt>
  <wgt id="252">7.58409e-12</wgt>
  <wgt id="253">7.57263e-12</wgt>
  <wgt id="254">7.4686e-12</wgt>
  <wgt id="255">7.47613e-12</wgt>
  <wgt id="256">7.46094e-12</wgt>
  <wgt id="257">7.47473e-12</wgt>
  <wgt id="258">7.46429e-12</wgt>
  <wgt id="259">7.51832e-12</wgt>
  <wgt id="260">7.42097e-12</wgt>
  <wgt id="261">7.47593e-12</wgt>
  <wgt id="262">7.46032e-12</wgt>
  <wgt id="263">7.46648e-12</wgt>
  <wgt id="264">7.47132e-12</wgt>
  <wgt id="265">7.46138e-12</wgt>
  <wgt id="266">7.48314e-12</wgt>
  <wgt id="267">7.47094e-12</wgt>
  <wgt id="268">7.46584e-12</wgt>
  <wgt id="269">7.48969e-12</wgt>
  <wgt id="270">7.4545e-12</wgt>
  <wgt id="271">7.45722e-12</wgt>
  <wgt id="272">7.48172e-12</wgt>
  <wgt id="273">7.4469e-12</wgt>
  <wgt id="274">7.48559e-12</wgt>
  <wgt id="275">7.44311e-12</wgt>
  <wgt id="276">7.49502e-12</wgt>
  <wgt id="277">7.42918e-12</wgt>
  <wgt id="278">7.50522e-12</wgt>
  <wgt id="279">7.33577e-12</wgt>
  <wgt id="280">7.63481e-12</wgt>
  <wgt id="281">7.4396e-12</wgt>
  <wgt id="282">7.46853e-12</wgt>
  <wgt id="283">7.27721e-12</wgt>
  <wgt id="284">7.70313e-12</wgt>
  <wgt id="285">7.14821e-12</wgt>
  <wgt id="286">7.73069e-12</wgt>
  <wgt id="287">7.48975e-12</wgt>
  <wgt id="288">7.44177e-12</wgt>
  <wgt id="289">7.51518e-12</wgt>
  <wgt id="290">7.35743e-12</wgt>
  <wgt id="291">7.45316e-12</wgt>
  <wgt id="292">7.47273e-12</wgt>
  <wgt id="293">7.41767e-12</wgt>
  <wgt id="294">7.51942e-12</wgt>
  <wgt id="295">7.34114e-12</wgt>
  <wgt id="296">7.62393e-12</wgt>
  <wgt id="297">7.47524e-12</wgt>
  <wgt id="298">7.48894e-12</wgt>
  <wgt id="299">7.44743e-12</wgt>
  <wgt id="300">7.52483e-12</wgt>
  <wgt id="301">7.40114e-12</wgt>
  <wgt id="302">7.66631e-12</wgt>
  <wgt id="303">7.42827e-12</wgt>
  <wgt id="304">7.49285e-12</wgt>
  <wgt id="305">7.51956e-12</wgt>
  <wgt id="306">7.52726e-12</wgt>
  <wgt id="307">7.51156e-12</wgt>
  <wgt id="308">7.52637e-12</wgt>
  <wgt id="309">7.51499e-12</wgt>
  <wgt id="310">7.57123e-12</wgt>
  <wgt id="311">7.47175e-12</wgt>
  <wgt id="312">7.52417e-12</wgt>
  <wgt id="313">7.51538e-12</wgt>
  <wgt id="314">7.51746e-12</wgt>
  <wgt id="315">7.52172e-12</wgt>
  <wgt id="316">7.51282e-12</wgt>
  <wgt id="317">7.53464e-12</wgt>
  <wgt id="318">7.52423e-12</wgt>
  <wgt id="319">7.51174e-12</wgt>
  <wgt id="320">7.54138e-12</wgt>
  <wgt id="321">7.50745e-12</wgt>
  <wgt id="322">7.50367e-12</wgt>
  <wgt id="323">7.53827e-12</wgt>
  <wgt id="324">7.50121e-12</wgt>
  <wgt id="325">7.53567e-12</wgt>
  <wgt id="326">7.49897e-12</wgt>
  <wgt id="327">7.54592e-12</wgt>
  <wgt id="328">7.48317e-12</wgt>
  <wgt id="329">7.54056e-12</wgt>
  <wgt id="330">7.72767e-12</wgt>
  <wgt id="331">7.32046e-12</wgt>
  <wgt id="332">7.49558e-12</wgt>
  <wgt id="333">7.51853e-12</wgt>
  <wgt id="334">7.3676e-12</wgt>
  <wgt id="335">7.70718e-12</wgt>
  <wgt id="336">7.28517e-12</wgt>
  <wgt id="337">7.80197e-12</wgt>
  <wgt id="338">7.59465e-12</wgt>
  <wgt id="339">7.44985e-12</wgt>
  <wgt id="340">7.56441e-12</wgt>
  <wgt id="341">7.40199e-12</wgt>
  <wgt id="342">7.50943e-12</wgt>
  <wgt id="343">7.51361e-12</wgt>
  <wgt id="344">7.47253e-12</wgt>
  <wgt id="345">7.57415e-12</wgt>
  <wgt id="346">7.38635e-12</wgt>
  <wgt id="347">7.67302e-12</wgt>
  <wgt id="348">7.53048e-12</wgt>
  <wgt id="349">7.53433e-12</wgt>
  <wgt id="350">7.49247e-12</wgt>
  <wgt id="351">7.58857e-12</wgt>
  <wgt id="352">7.44241e-12</wgt>
  <wgt id="353">7.73221e-12</wgt>
  <wgt id="354">7.45601e-12</wgt>
  <wgt id="355">7.56003e-12</wgt>
  <wgt id="356">7.4686e-12</wgt>
  <wgt id="357">7.55832e-12</wgt>
  <wgt id="358">7.51956e-12</wgt>
  <wgt id="359">7.50286e-12</wgt>
  <wgt id="360">7.49164e-12</wgt>
  <wgt id="361">7.48621e-12</wgt>
  <wgt id="362">7.6015e-12</wgt>
  <wgt id="363">7.58513e-12</wgt>
  <wgt id="364">7.56408e-12</wgt>
  <wgt id="365">7.5414e-12</wgt>
  <wgt id="366">7.51517e-12</wgt>
  <wgt id="367">7.45949e-12</wgt>
  <wgt id="368">7.42983e-12</wgt>
  <wgt id="369">7.39788e-12</wgt>
  <wgt id="370">7.48621e-12</wgt>
  <wgt id="371">7.51918e-12</wgt>
  <wgt id="372">7.50113e-12</wgt>
  <wgt id="373">7.47391e-12</wgt>
  <wgt id="374">7.46837e-12</wgt>
  <wgt id="375">7.8444e-12</wgt>
  <wgt id="376">7.84535e-12</wgt>
  <wgt id="377">7.84323e-12</wgt>
  <wgt id="378">7.87227e-12</wgt>
  <wgt id="379">7.81687e-12</wgt>
  <wgt id="380">7.86587e-12</wgt>
  <wgt id="381">7.83579e-12</wgt>
  <wgt id="382">7.88147e-12</wgt>
  <wgt id="383">7.80767e-12</wgt>
  <wgt id="384">7.84959e-12</wgt>
  <wgt id="385">7.83948e-12</wgt>
  <wgt id="386">7.87295e-12</wgt>
  <wgt id="387">7.83202e-12</wgt>
  <wgt id="388">7.8376e-12</wgt>
  <wgt id="389">7.85277e-12</wgt>
  <wgt id="390">7.86414e-12</wgt>
  <wgt id="391">7.82355e-12</wgt>
  <wgt id="392">7.79457e-12</wgt>
  <wgt id="393">7.87251e-12</wgt>
  <wgt id="394">7.85579e-12</wgt>
  <wgt id="395">7.82855e-12</wgt>
  <wgt id="396">7.84475e-12</wgt>
  <wgt id="397">7.84399e-12</wgt>
  <wgt id="398">7.81277e-12</wgt>
  <wgt id="399">7.87491e-12</wgt>
  <wgt id="400">7.83263e-12</wgt>
  <wgt id="401">7.87055e-12</wgt>
  <wgt id="402">7.78814e-12</wgt>
  <wgt id="403">7.86551e-12</wgt>
  <wgt id="404">8.00164e-12</wgt>
  <wgt id="405">7.46268e-12</wgt>
  <wgt id="406">7.73095e-12</wgt>
  <wgt id="407">8.08775e-12</wgt>
  <wgt id="408">7.90256e-12</wgt>
  <wgt id="409">7.73168e-12</wgt>
  <wgt id="410">7.65663e-12</wgt>
  <wgt id="411">7.92926e-12</wgt>
  <wgt id="412">7.83268e-12</wgt>
  <wgt id="413">7.85992e-12</wgt>
  <wgt id="414">7.76968e-12</wgt>
  <wgt id="415">7.90239e-12</wgt>
  <wgt id="416">8.01574e-12</wgt>
  <wgt id="417">7.60691e-12</wgt>
  <wgt id="418">7.85316e-12</wgt>
  <wgt id="419">7.79688e-12</wgt>
  <wgt id="420">7.91796e-12</wgt>
  <wgt id="421">7.81053e-12</wgt>
  <wgt id="422">7.84816e-12</wgt>
  <wgt id="423">7.84508e-12</wgt>
  <wgt id="424">7.96063e-12</wgt>
  <wgt id="425">7.77592e-12</wgt>
  <wgt id="426">7.8444e-12</wgt>
  <wgt id="427">7.80113e-12</wgt>
  <wgt id="428">7.9895e-12</wgt>
  <wgt id="429">7.89735e-12</wgt>
  <wgt id="430">8.09427e-12</wgt>
  <wgt id="431">8.05535e-12</wgt>
  <wgt id="432">8.01776e-12</wgt>
  <wgt id="433">7.98136e-12</wgt>
  <wgt id="434">7.93852e-12</wgt>
  <wgt id="435">7.84583e-12</wgt>
  <wgt id="436">7.7975e-12</wgt>
  <wgt id="437">7.75229e-12</wgt>
  <wgt id="438">7.89735e-12</wgt>
  <wgt id="439">7.92331e-12</wgt>
  <wgt id="440">7.90839e-12</wgt>
  <wgt id="441">7.88888e-12</wgt>
  <wgt id="442">7.88169e-12</wgt>
  <wgt id="443">7.77429e-12</wgt>
  <wgt id="444">7.80316e-12</wgt>
  <wgt id="445">7.74387e-12</wgt>
  <wgt id="446">7.72989e-12</wgt>
  <wgt id="447">7.74759e-12</wgt>
  <wgt id="448">7.59129e-12</wgt>
  <wgt id="449">7.87742e-12</wgt>
  <wgt id="450">7.73603e-12</wgt>
  <wgt id="451">7.76502e-12</wgt>
  <wgt id="452">7.92277e-12</wgt>
  <wgt id="453">7.828e-12</wgt>
  <wgt id="454">7.49347e-12</wgt>
  <wgt id="455">7.7815e-12</wgt>
  <wgt id="456">7.63801e-12</wgt>
  <wgt id="457">7.79993e-12</wgt>
  <wgt id="458">7.84956e-12</wgt>
  <wgt id="459">7.81794e-12</wgt>
  <wgt id="460">7.81057e-12</wgt>
  <wgt id="461">7.66358e-12</wgt>
  <wgt id="462">7.7248e-12</wgt>
  <wgt id="463">7.70739e-12</wgt>
  <wgt id="464">7.74167e-12</wgt>
  <wgt id="465">7.8372e-12</wgt>
  <wgt id="466">7.70579e-12</wgt>
  <wgt id="467">7.71461e-12</wgt>
  <wgt id="468">7.75713e-12</wgt>
  <wgt id="469">7.75843e-12</wgt>
  <wgt id="470">7.71658e-12</wgt>
  <wgt id="471">7.72175e-12</wgt>
  <wgt id="472">7.80191e-12</wgt>
  <wgt id="473">7.57614e-12</wgt>
  <wgt id="474">5.79e-12</wgt>
  <wgt id="475">6.16997e-12</wgt>
  <wgt id="476">5.68469e-12</wgt>
  <wgt id="477">5.73284e-12</wgt>
  <wgt id="478">5.82243e-12</wgt>
  <wgt id="479">5.73912e-12</wgt>
  <wgt id="480">5.94302e-12</wgt>
  <wgt id="481">5.62459e-12</wgt>
  <wgt id="482">5.54004e-12</wgt>
  <wgt id="483">5.64613e-12</wgt>
  <wgt id="484">6.23944e-12</wgt>
  <wgt id="485">5.82621e-12</wgt>
  <wgt id="486">5.84166e-12</wgt>
  <wgt id="487">5.8652e-12</wgt>
  <wgt id="488">5.84588e-12</wgt>
  <wgt id="489">5.58922e-12</wgt>
  <wgt id="490">5.62702e-12</wgt>
  <wgt id="491">5.72422e-12</wgt>
  <wgt id="492">5.60402e-12</wgt>
  <wgt id="493">5.60611e-12</wgt>
  <wgt id="494">5.61992e-12</wgt>
  <wgt id="495">5.89128e-12</wgt>
  <wgt id="496">5.59001e-12</wgt>
  <wgt id="497">5.59867e-12</wgt>
  <wgt id="498">5.84054e-12</wgt>
  <wgt id="499">5.63565e-12</wgt>
  <wgt id="500">5.68634e-12</wgt>
  <wgt id="501">6.02494e-12</wgt>
  <wgt id="502">5.6181e-12</wgt>
  <wgt id="503">5.75902e-12</wgt>
  <wgt id="504">5.76559e-12</wgt>
  <wgt id="505">5.97156e-12</wgt>
  <wgt id="506">5.83373e-12</wgt>
  <wgt id="507">5.71236e-12</wgt>
  <wgt id="508">5.87672e-12</wgt>
  <wgt id="509">5.83018e-12</wgt>
  <wgt id="510">5.91016e-12</wgt>
  <wgt id="511">5.66847e-12</wgt>
  <wgt id="512">5.83754e-12</wgt>
  <wgt id="513">5.9728e-12</wgt>
  <wgt id="514">5.73143e-12</wgt>
  <wgt id="515">5.71845e-12</wgt>
  <wgt id="516">5.9214e-12</wgt>
  <wgt id="517">5.91985e-12</wgt>
  <wgt id="518">5.94524e-12</wgt>
  <wgt id="519">5.67394e-12</wgt>
  <wgt id="520">5.7928e-12</wgt>
  <wgt id="521">6.00626e-12</wgt>
  <wgt id="522">5.99617e-12</wgt>
  <wgt id="523">5.90882e-12</wgt>
  <wgt id="524">5.92834e-12</wgt>
  <wgt id="525">5.90781e-12</wgt>
  <wgt id="526">5.76327e-12</wgt>
  <wgt id="527">5.90801e-12</wgt>
  <wgt id="528">5.76587e-12</wgt>
  <wgt id="529">5.73102e-12</wgt>
  <wgt id="530">5.79962e-12</wgt>
  <wgt id="531">5.71116e-12</wgt>
  <wgt id="532">6.07009e-12</wgt>
  <wgt id="533">5.43777e-12</wgt>
  <wgt id="534">5.78929e-12</wgt>
  <wgt id="535">5.88418e-12</wgt>
  <wgt id="536">5.82458e-12</wgt>
  <wgt id="537">5.80984e-12</wgt>
  <wgt id="538">5.90312e-12</wgt>
  <wgt id="539">5.6458e-12</wgt>
  <wgt id="540">5.75976e-12</wgt>
  <wgt id="541">5.73724e-12</wgt>
  <wgt id="542">5.6429e-12</wgt>
  <wgt id="543">5.77704e-12</wgt>
  <wgt id="544">6.06567e-12</wgt>
  <wgt id="545">5.71487e-12</wgt>
  <wgt id="546">5.74823e-12</wgt>
  <wgt id="547">5.61729e-12</wgt>
  <wgt id="548">5.55647e-12</wgt>
  <wgt id="549">5.70906e-12</wgt>
  <wgt id="550">5.86388e-12</wgt>
  <wgt id="551">5.86221e-12</wgt>
  <wgt id="552">5.74593e-12</wgt>
  <wgt id="553">5.77889e-12</wgt>
  <wgt id="554">6.22416e-12</wgt>
  <wgt id="555">5.95536e-12</wgt>
  <wgt id="556">5.62702e-12</wgt>
  <wgt id="557">5.86424e-12</wgt>
  <wgt id="558">5.59784e-12</wgt>
  <wgt id="559">5.73063e-12</wgt>
  <wgt id="560">6.2197e-12</wgt>
  <wgt id="561">5.64055e-12</wgt>
  <wgt id="562">5.84448e-12</wgt>
  <wgt id="563">5.6536e-12</wgt>
  <wgt id="564">5.76834e-12</wgt>
  <wgt id="565">5.62102e-12</wgt>
  <wgt id="566">5.82686e-12</wgt>
  <wgt id="567">5.69331e-12</wgt>
  <wgt id="568">5.80543e-12</wgt>
  <wgt id="569">5.80268e-12</wgt>
  <wgt id="570">5.68573e-12</wgt>
  <wgt id="571">6.38934e-12</wgt>
  <wgt id="572">5.66344e-12</wgt>
  <wgt id="573">5.52782e-12</wgt>
  <wgt id="574">5.587e-12</wgt>
  <wgt id="575">6.32186e-12</wgt>
  <wgt id="576">6.1878e-12</wgt>
  <wgt id="577">6.57113e-12</wgt>
  <wgt id="578">6.40267e-12</wgt>
  <wgt id="579">6.34921e-12</wgt>
  <wgt id="580">6.39209e-12</wgt>
  <wgt id="581">6.66233e-12</wgt>
  <wgt id="582">6.16452e-12</wgt>
  <wgt id="583">6.37819e-12</wgt>
  <wgt id="584">6.32654e-12</wgt>
  <wgt id="585">6.3829e-12</wgt>
  <wgt id="586">6.18049e-12</wgt>
  <wgt id="587">6.37844e-12</wgt>
  <wgt id="588">6.27628e-12</wgt>
  <wgt id="589">6.35798e-12</wgt>
  <wgt id="590">6.42142e-12</wgt>
  <wgt id="591">6.57674e-12</wgt>
  <wgt id="592">6.23598e-12</wgt>
  <wgt id="593">6.29019e-12</wgt>
  <wgt id="594">6.61244e-12</wgt>
  <wgt id="595">6.26228e-12</wgt>
  <wgt id="596">6.42474e-12</wgt>
  <wgt id="597">6.06386e-12</wgt>
  <wgt id="598">6.33639e-12</wgt>
  <wgt id="599">6.64164e-12</wgt>
  <wgt id="600">6.25785e-12</wgt>
  <wgt id="601">6.14029e-12</wgt>
  <wgt id="602">6.22554e-12</wgt>
  <wgt id="603">6.26277e-12</wgt>
  <wgt id="604">6.39363e-12</wgt>
  <wgt id="605">6.57549e-12</wgt>
  <wgt id="606">6.14633e-12</wgt>
  <wgt id="607">6.22294e-12</wgt>
  <wgt id="608">6.25757e-12</wgt>
  <wgt id="609">5.93283e-12</wgt>
  <wgt id="610">6.07133e-12</wgt>
  <wgt id="611">6.45041e-12</wgt>
  <wgt id="612">6.81394e-12</wgt>
  <wgt id="613">6.34107e-12</wgt>
  <wgt id="614">6.39941e-12</wgt>
  <wgt id="615">6.1928e-12</wgt>
  <wgt id="616">6.77147e-12</wgt>
  <wgt id="617">6.54604e-12</wgt>
  <wgt id="618">6.21667e-12</wgt>
  <wgt id="619">6.30825e-12</wgt>
  <wgt id="620">6.50444e-12</wgt>
  <wgt id="621">6.42337e-12</wgt>
  <wgt id="622">6.37844e-12</wgt>
  <wgt id="623">6.46815e-12</wgt>
  <wgt id="624">6.27086e-12</wgt>
  <wgt id="625">6.25318e-12</wgt>
  <wgt id="626">6.20582e-12</wgt>
  <wgt id="627">6.11701e-12</wgt>
  <wgt id="628">6.6656e-12</wgt>
  <wgt id="629">6.18942e-12</wgt>
  <wgt id="630">6.19899e-12</wgt>
  <wgt id="631">6.3055e-12</wgt>
  <wgt id="632">6.17483e-12</wgt>
  <wgt id="633">6.23243e-12</wgt>
  <wgt id="634">6.38671e-12</wgt>
  <wgt id="635">6.31979e-12</wgt>
  <wgt id="636">6.35565e-12</wgt>
  <wgt id="637">6.36097e-12</wgt>
  <wgt id="638">6.11486e-12</wgt>
  <wgt id="639">6.2654e-12</wgt>
  <wgt id="640">6.34144e-12</wgt>
  <wgt id="641">6.31081e-12</wgt>
  <wgt id="642">6.33338e-12</wgt>
  <wgt id="643">6.30844e-12</wgt>
  <wgt id="644">6.15174e-12</wgt>
  <wgt id="645">6.34712e-12</wgt>
  <wgt id="646">6.47796e-12</wgt>
  <wgt id="647">6.20443e-12</wgt>
  <wgt id="648">6.33555e-12</wgt>
  <wgt id="649">6.41939e-12</wgt>
  <wgt id="650">6.21359e-12</wgt>
  <wgt id="651">6.40066e-12</wgt>
  <wgt id="652">6.33271e-12</wgt>
  <wgt id="653">6.16894e-12</wgt>
  <wgt id="654">6.31157e-12</wgt>
  <wgt id="655">6.16451e-12</wgt>
  <wgt id="656">6.29312e-12</wgt>
  <wgt id="657">6.39602e-12</wgt>
  <wgt id="658">6.48222e-12</wgt>
  <wgt id="659">6.11427e-12</wgt>
  <wgt id="660">6.43787e-12</wgt>
  <wgt id="661">6.23544e-12</wgt>
  <wgt id="662">6.28004e-12</wgt>
  <wgt id="663">6.28972e-12</wgt>
  <wgt id="664">6.21089e-12</wgt>
  <wgt id="665">6.29271e-12</wgt>
  <wgt id="666">6.32698e-12</wgt>
  <wgt id="667">6.51262e-12</wgt>
  <wgt id="668">6.27362e-12</wgt>
  <wgt id="669">6.47796e-12</wgt>
  <wgt id="670">6.3629e-12</wgt>
  <wgt id="671">6.19453e-12</wgt>
  <wgt id="672">6.05774e-12</wgt>
  <wgt id="673">6.27276e-12</wgt>
  <wgt id="674">6.19119e-12</wgt>
  <wgt id="675">6.15913e-12</wgt>
  <wgt id="676">7.78719e-12</wgt>
  <wgt id="677">7.90641e-12</wgt>
  <wgt id="678">8.1222e-12</wgt>
  <wgt id="679">7.47917e-12</wgt>
  <wgt id="680">7.47343e-12</wgt>
  <wgt id="681">8.04372e-12</wgt>
  <wgt id="682">7.84431e-12</wgt>
  <wgt id="683">7.75104e-12</wgt>
  <wgt id="684">8.11337e-12</wgt>
  <wgt id="685">7.37618e-12</wgt>
  <wgt id="686">7.91876e-12</wgt>
  <wgt id="687">8.10928e-12</wgt>
  <wgt id="688">7.7435e-12</wgt>
  <wgt id="689">8.30526e-12</wgt>
  <wgt id="690">8.24775e-12</wgt>
  <wgt id="691">8.17313e-12</wgt>
  <wgt id="692">7.78939e-12</wgt>
  <wgt id="693">8.84451e-12</wgt>
  <wgt id="694">8.20125e-12</wgt>
  <wgt id="695">7.52911e-12</wgt>
  <wgt id="696">7.43923e-12</wgt>
  <wgt id="697">7.53956e-12</wgt>
  <wgt id="698">7.40904e-12</wgt>
  <wgt id="699">7.30535e-12</wgt>
  <wgt id="700">7.0151e-12</wgt>
  <wgt id="701">7.8e-12</wgt>
  <wgt id="702">7.40966e-12</wgt>
  <wgt id="703">8.73158e-12</wgt>
  <wgt id="704">8.27501e-12</wgt>
  <wgt id="705">8.02662e-12</wgt>
  <wgt id="706">7.27728e-12</wgt>
  <wgt id="707">7.50944e-12</wgt>
  <wgt id="708">7.70698e-12</wgt>
  <wgt id="709">7.67011e-12</wgt>
  <wgt id="710">6.98952e-12</wgt>
  <wgt id="711">7.8052e-12</wgt>
  <wgt id="712">7.71513e-12</wgt>
  <wgt id="713">8.25062e-12</wgt>
  <wgt id="714">7.81034e-12</wgt>
  <wgt id="715">7.70889e-12</wgt>
  <wgt id="716">7.52369e-12</wgt>
  <wgt id="717">7.53111e-12</wgt>
  <wgt id="718">7.58836e-12</wgt>
  <wgt id="719">7.17838e-12</wgt>
  <wgt id="720">7.41732e-12</wgt>
  <wgt id="721">7.52407e-12</wgt>
  <wgt id="722">7.14709e-12</wgt>
  <wgt id="723">8.17542e-12</wgt>
  <wgt id="724">8.05389e-12</wgt>
  <wgt id="725">8.2325e-12</wgt>
  <wgt id="726">7.88387e-12</wgt>
  <wgt id="727">7.6153e-12</wgt>
  <wgt id="728">7.76839e-12</wgt>
  <wgt id="729">7.06294e-12</wgt>
  <wgt id="730">8.19954e-12</wgt>
  <wgt id="731">7.73051e-12</wgt>
  <wgt id="732">8.42908e-12</wgt>
  <wgt id="733">7.79396e-12</wgt>
  <wgt id="734">7.96271e-12</wgt>
  <wgt id="735">7.73101e-12</wgt>
  <wgt id="736">7.72168e-12</wgt>
  <wgt id="737">7.91537e-12</wgt>
  <wgt id="738">7.54661e-12</wgt>
  <wgt id="739">7.69532e-12</wgt>
  <wgt id="740">8.55904e-12</wgt>
  <wgt id="741">6.94895e-12</wgt>
  <wgt id="742">7.68035e-12</wgt>
  <wgt id="743">7.6289e-12</wgt>
  <wgt id="744">7.64232e-12</wgt>
  <wgt id="745">8.03491e-12</wgt>
  <wgt id="746">8.1061e-12</wgt>
  <wgt id="747">7.28432e-12</wgt>
  <wgt id="748">7.6459e-12</wgt>
  <wgt id="749">8.23691e-12</wgt>
  <wgt id="750">7.61345e-12</wgt>
  <wgt id="751">8.08948e-12</wgt>
  <wgt id="752">7.2464e-12</wgt>
  <wgt id="753">7.44757e-12</wgt>
  <wgt id="754">7.93736e-12</wgt>
  <wgt id="755">7.85113e-12</wgt>
  <wgt id="756">7.82722e-12</wgt>
  <wgt id="757">7.30704e-12</wgt>
  <wgt id="758">7.91073e-12</wgt>
  <wgt id="759">7.64666e-12</wgt>
  <wgt id="760">7.9624e-12</wgt>
  <wgt id="761">8.189e-12</wgt>
  <wgt id="762">8.16584e-12</wgt>
  <wgt id="763">7.83431e-12</wgt>
  <wgt id="764">8.03425e-12</wgt>
  <wgt id="765">7.8151e-12</wgt>
  <wgt id="766">7.75104e-12</wgt>
  <wgt id="767">7.94797e-12</wgt>
  <wgt id="768">7.45631e-12</wgt>
  <wgt id="769">8.19942e-12</wgt>
  <wgt id="770">7.56733e-12</wgt>
  <wgt id="771">9.01563e-12</wgt>
  <wgt id="772">7.3296e-12</wgt>
  <wgt id="773">7.77655e-12</wgt>
  <wgt id="774">7.13998e-12</wgt>
  <wgt id="775">8.09582e-12</wgt>
  <wgt id="776">8.49745e-12</wgt>
  <wgt id="777">7.64843e-12</wgt>
  <wgt id="778">5.93519e-12</wgt>
  <wgt id="779">5.18066e-12</wgt>
  <wgt id="780">4.51881e-12</wgt>
  <wgt id="781">5.83748e-12</wgt>
  <wgt id="782">6.2771e-12</wgt>
  <wgt id="783">5.30456e-12</wgt>
  <wgt id="784">5.37356e-12</wgt>
  <wgt id="785">7.00561e-12</wgt>
  <wgt id="786">4.71639e-12</wgt>
  <wgt id="787">6.52661e-12</wgt>
  <wgt id="788">4.20046e-12</wgt>
  <wgt id="789">4.82893e-12</wgt>
  <wgt id="790">4.73703e-12</wgt>
  <wgt id="791">5.47533e-12</wgt>
  <wgt id="792">7.40404e-12</wgt>
  <wgt id="793">5.68688e-12</wgt>
  <wgt id="794">4.88853e-12</wgt>
  <wgt id="795">6.61281e-12</wgt>
  <wgt id="796">7.58428e-12</wgt>
  <wgt id="797">6.60928e-12</wgt>
  <wgt id="798">5.62353e-12</wgt>
  <wgt id="799">6.58288e-12</wgt>
  <wgt id="800">4.90534e-12</wgt>
  <wgt id="801">5.67314e-12</wgt>
  <wgt id="802">4.94192e-12</wgt>
  <wgt id="803">7.68716e-12</wgt>
  <wgt id="804">6.57627e-12</wgt>
  <wgt id="805">6.7096e-12</wgt>
  <wgt id="806">6.73628e-12</wgt>
  <wgt id="807">5.74367e-12</wgt>
  <wgt id="808">5.82871e-12</wgt>
  <wgt id="809">5.49966e-12</wgt>
  <wgt id="810">6.78834e-12</wgt>
  <wgt id="811">6.39911e-12</wgt>
  <wgt id="812">4.84767e-12</wgt>
  <wgt id="813">4.88085e-12</wgt>
  <wgt id="814">5.02121e-12</wgt>
  <wgt id="815">5.20301e-12</wgt>
  <wgt id="816">4.66857e-12</wgt>
  <wgt id="817">6.27053e-12</wgt>
  <wgt id="818">5.69237e-12</wgt>
  <wgt id="819">5.21309e-12</wgt>
  <wgt id="820">5.97126e-12</wgt>
  <wgt id="821">6.61648e-12</wgt>
  <wgt id="822">5.29676e-12</wgt>
  <wgt id="823">6.60021e-12</wgt>
  <wgt id="824">7.77854e-12</wgt>
  <wgt id="825">4.6977e-12</wgt>
  <wgt id="826">6.05781e-12</wgt>
  <wgt id="827">4.02547e-12</wgt>
  <wgt id="828">7.5605e-12</wgt>
  <wgt id="829">6.07479e-12</wgt>
  <wgt id="830">4.47796e-12</wgt>
  <wgt id="831">6.25579e-12</wgt>
  <wgt id="832">9.24274e-12</wgt>
  <wgt id="833">5.7209e-12</wgt>
  <wgt id="834">8.66644e-12</wgt>
  <wgt id="835">4.92996e-12</wgt>
  <wgt id="836">6.04129e-12</wgt>
  <wgt id="837">6.53663e-12</wgt>
  <wgt id="838">5.73823e-12</wgt>
  <wgt id="839">6.23915e-12</wgt>
  <wgt id="840">5.71362e-12</wgt>
  <wgt id="841">6.92448e-12</wgt>
  <wgt id="842">5.53168e-12</wgt>
  <wgt id="843">5.71359e-12</wgt>
  <wgt id="844">6.08097e-12</wgt>
  <wgt id="845">7.73187e-12</wgt>
  <wgt id="846">5.46124e-12</wgt>
  <wgt id="847">5.77561e-12</wgt>
  <wgt id="848">5.41275e-12</wgt>
  <wgt id="849">6.04183e-12</wgt>
  <wgt id="850">7.3301e-12</wgt>
  <wgt id="851">6.39999e-12</wgt>
  <wgt id="852">5.34777e-12</wgt>
  <wgt id="853">6.33696e-12</wgt>
  <wgt id="854">6.98241e-12</wgt>
  <wgt id="855">6.59472e-12</wgt>
  <wgt id="856">4.58953e-12</wgt>
  <wgt id="857">6.04634e-12</wgt>
  <wgt id="858">5.9088e-12</wgt>
  <wgt id="859">5.56261e-12</wgt>
  <wgt id="860">6.12059e-12</wgt>
  <wgt id="861">5.46658e-12</wgt>
  <wgt id="862">6.01219e-12</wgt>
  <wgt id="863">6.12794e-12</wgt>
  <wgt id="864">6.16504e-12</wgt>
  <wgt id="865">8.02684e-12</wgt>
  <wgt id="866">8.76824e-12</wgt>
  <wgt id="867">5.92542e-12</wgt>
  <wgt id="868">5.8063e-12</wgt>
  <wgt id="869">4.86019e-12</wgt>
  <wgt id="870">5.10889e-12</wgt>
  <wgt id="871">4.97967e-12</wgt>
  <wgt id="872">6.74058e-12</wgt>
  <wgt id="873">5.04767e-12</wgt>
  <wgt id="874">6.1205e-12</wgt>
  <wgt id="875">5.24473e-12</wgt>
  <wgt id="876">6.75386e-12</wgt>
  <wgt id="877">6.57342e-12</wgt>
  <wgt id="878">5.35461e-12</wgt>
  <wgt id="879">7.78719e-12</wgt>
  <wgt id="880">7.90641e-12</wgt>
  <wgt id="881">8.1222e-12</wgt>
  <wgt id="882">7.47917e-12</wgt>
  <wgt id="883">7.47343e-12</wgt>
  <wgt id="884">8.04372e-12</wgt>
  <wgt id="885">7.84431e-12</wgt>
  <wgt id="886">7.75104e-12</wgt>
  <wgt id="887">8.11337e-12</wgt>
  <wgt id="888">7.37618e-12</wgt>
  <wgt id="889">7.91876e-12</wgt>
  <wgt id="890">8.10928e-12</wgt>
  <wgt id="891">7.7435e-12</wgt>
  <wgt id="892">8.30526e-12</wgt>
  <wgt id="893">8.24775e-12</wgt>
  <wgt id="894">8.17313e-12</wgt>
  <wgt id="895">7.78939e-12</wgt>
  <wgt id="896">8.84451e-12</wgt>
  <wgt id="897">8.20125e-12</wgt>
  <wgt id="898">7.52911e-12</wgt>
  <wgt id="899">7.43923e-12</wgt>
  <wgt id="900">7.53956e-12</wgt>
  <wgt id="901">7.40904e-12</wgt>
  <wgt id="902">7.30535e-12</wgt>
  <wgt id="903">7.0151e-12</wgt>
  <wgt id="904">7.8e-12</wgt>
  <wgt id="905">7.40966e-12</wgt>
  <wgt id="906">8.73158e-12</wgt>
  <wgt id="907">8.27501e-12</wgt>
  <wgt id="908">8.02662e-12</wgt>
  <wgt id="909">7.27728e-12</wgt>
  <wgt id="910">7.50944e-12</wgt>
  <wgt id="911">7.70698e-12</wgt>
  <wgt id="912">7.67011e-12</wgt>
  <wgt id="913">6.98952e-12</wgt>
  <wgt id="914">7.8052e-12</wgt>
  <wgt id="915">7.71513e-12</wgt>
  <wgt id="916">8.25062e-12</wgt>
  <wgt id="917">7.81034e-12</wgt>
  <wgt id="918">7.70889e-12</wgt>
  <wgt id="919">7.52369e-12</wgt>
  <wgt id="920">7.53111e-12</wgt>
  <wgt id="921">7.58836e-12</wgt>
  <wgt id="922">7.17838e-12</wgt>
  <wgt id="923">7.41732e-12</wgt>
  <wgt id="924">7.52407e-12</wgt>
  <wgt id="925">7.14709e-12</wgt>
  <wgt id="926">8.17542e-12</wgt>
  <wgt id="927">8.05389e-12</wgt>
  <wgt id="928">8.2325e-12</wgt>
  <wgt id="929">7.88387e-12</wgt>
  <wgt id="930">7.6153e-12</wgt>
  <wgt id="931">7.76839e-12</wgt>
  <wgt id="932">7.06294e-12</wgt>
  <wgt id="933">8.19954e-12</wgt>
  <wgt id="934">7.73051e-12</wgt>
  <wgt id="935">8.42908e-12</wgt>
  <wgt id="936">7.79396e-12</wgt>
  <wgt id="937">7.96271e-12</wgt>
  <wgt id="938">7.73101e-12</wgt>
  <wgt id="939">7.72168e-12</wgt>
  <wgt id="940">7.91537e-12</wgt>
  <wgt id="941">7.54661e-12</wgt>
  <wgt id="942">7.69532e-12</wgt>
  <wgt id="943">8.55904e-12</wgt>
  <wgt id="944">6.94895e-12</wgt>
  <wgt id="945">7.68035e-12</wgt>
  <wgt id="946">7.6289e-12</wgt>
  <wgt id="947">7.64232e-12</wgt>
  <wgt id="948">8.03491e-12</wgt>
  <wgt id="949">8.1061e-12</wgt>
  <wgt id="950">7.28432e-12</wgt>
  <wgt id="951">7.6459e-12</wgt>
  <wgt id="952">8.23691e-12</wgt>
  <wgt id="953">7.61345e-12</wgt>
  <wgt id="954">8.08948e-12</wgt>
  <wgt id="955">7.2464e-12</wgt>
  <wgt id="956">7.44757e-12</wgt>
  <wgt id="957">7.93736e-12</wgt>
  <wgt id="958">7.85113e-12</wgt>
  <wgt id="959">7.82722e-12</wgt>
  <wgt id="960">7.30704e-12</wgt>
  <wgt id="961">7.91073e-12</wgt>
  <wgt id="962">7.64666e-12</wgt>
  <wgt id="963">7.9624e-12</wgt>
  <wgt id="964">8.189e-12</wgt>
  <wgt id="965">8.16584e-12</wgt>
  <wgt id="966">7.83431e-12</wgt>
  <wgt id="967">8.03425e-12</wgt>
  <wgt id="968">7.8151e-12</wgt>
  <wgt id="969">7.75104e-12</wgt>
  <wgt id="970">7.94797e-12</wgt>
  <wgt id="971">7.45631e-12</wgt>
  <wgt id="972">8.19942e-12</wgt>
  <wgt id="973">7.56733e-12</wgt>
  <wgt id="974">9.01563e-12</wgt>
  <wgt id="975">7.3296e-12</wgt>
  <wgt id="976">7.77655e-12</wgt>
  <wgt id="977">7.13998e-12</wgt>
  <wgt id="978">8.09582e-12</wgt>
  <wgt id="979">8.49745e-12</wgt>
  <wgt id="980">7.81348e-12</wgt>
  <wgt id="981">7.80333e-12</wgt>
  <wgt id="982">7.58165e-12</wgt>
</rwgt>
</event>
<event>
 5   1  0.5790000E-11  0.2137338E+04  0.7818608E-02  0.7772892E-01
       21   -1    0    0  502  501  0.00000000000E+00  0.00000000000E+00  0.13166400200E+04  0.13166400200E+04  0.00000000000E+00 0. -1.
       21   -1    0    0  501  502 -0.00000000000E+00 -0.00000000000E+00 -0.86740017650E+03  0.86740017650E+03  0.00000000000E+00 0.  1.
       39    2    1    2    0    0  0.00000000000E+00  0.00000000000E+00  0.44923984347E+03  0.21840401965E+04  0.21373383314E+04 0.  0.
       25    1    3    3    0    0  0.51158407209E+03  0.66454270123E+03 -0.44004925616E+03  0.95530289041E+03  0.12500000000E+03 0.  0.
       25    1    3    3    0    0 -0.51158407209E+03 -0.66454270123E+03  0.88928909963E+03  0.12287373061E+04  0.12500000000E+03 0.  0.
<mgrwt>
<rscale>  0 0.21373383E+04</rscale>
<asrwt>0</asrwt>
<pdfrwt beam="1">  1       21 0.20256000E+00 0.21373383E+04</pdfrwt>
<pdfrwt beam="2">  1       21 0.13344618E+00 0.21373383E+04</pdfrwt>
<totfact> 0.21721742E+01</totfact>
</mgrwt>
<rwgt>
  <wgt id="1">5.79e-12</wgt>
  <wgt id="2">5.06077e-12</wgt>
  <wgt id="3">6.69123e-12</wgt>
  <wgt id="4">5.79e-12</wgt>
  <wgt id="5">5.06077e-12</wgt>
  <wgt id="6">6.69123e-12</wgt>
  <wgt id="7">5.79e-12</wgt>
  <wgt id="8">5.06077e-12</wgt>
  <wgt id="9">6.69123e-12</wgt>
  <wgt id="10">5.95252e-12</wgt>
  <wgt id="11">5.94727e-12</wgt>
  <wgt id="12">5.94195e-12</wgt>
  <wgt id="13">5.93266e-12</wgt>
  <wgt id="14">5.97357e-12</wgt>
  <wgt id="15">5.9615e-12</wgt>
  <wgt id="16">5.94068e-12</wgt>
  <wgt id="17">5.96455e-12</wgt>
  <wgt id="18">5.94511e-12</wgt>
  <wgt id="19">5.96414e-12</wgt>
  <wgt id="20">5.93568e-12</wgt>
  <wgt id="21">5.91913e-12</wgt>
  <wgt id="22">5.93231e-12</wgt>
  <wgt id="23">5.9009e-12</wgt>
  <wgt id="24">5.92526e-12</wgt>
  <wgt id="25">5.9378e-12</wgt>
  <wgt id="26">5.97533e-12</wgt>
  <wgt id="27">5.95128e-12</wgt>
  <wgt id="28">5.92404e-12</wgt>
  <wgt id="29">5.95808e-12</wgt>
  <wgt id="30">5.93436e-12</wgt>
  <wgt id="31">5.9696e-12</wgt>
  <wgt id="32">5.93783e-12</wgt>
  <wgt id="33">5.96442e-12</wgt>
  <wgt id="34">5.9341e-12</wgt>
  <wgt id="35">5.9429e-12</wgt>
  <wgt id="36">5.96627e-12</wgt>
  <wgt id="37">5.93732e-12</wgt>
  <wgt id="38">5.93834e-12</wgt>
  <wgt id="39">6.01499e-12</wgt>
  <wgt id="40">5.96582e-12</wgt>
  <wgt id="41">5.95078e-12</wgt>
  <wgt id="42">5.97011e-12</wgt>
  <wgt id="43">5.95678e-12</wgt>
  <wgt id="44">5.93215e-12</wgt>
  <wgt id="45">5.96069e-12</wgt>
  <wgt id="46">5.95729e-12</wgt>
  <wgt id="47">5.93151e-12</wgt>
  <wgt id="48">5.95254e-12</wgt>
  <wgt id="49">5.96891e-12</wgt>
  <wgt id="50">5.98333e-12</wgt>
  <wgt id="51">5.97248e-12</wgt>
  <wgt id="52">5.93589e-12</wgt>
  <wgt id="53">5.92022e-12</wgt>
  <wgt id="54">5.9427e-12</wgt>
  <wgt id="55">5.9509e-12</wgt>
  <wgt id="56">5.97264e-12</wgt>
  <wgt id="57">5.97225e-12</wgt>
  <wgt id="58">5.91606e-12</wgt>
  <wgt id="59">5.93448e-12</wgt>
  <wgt id="60">5.95645e-12</wgt>
  <wgt id="61">5.94244e-12</wgt>
  <wgt id="62">5.94844e-12</wgt>
  <wgt id="63">5.95674e-12</wgt>
  <wgt id="64">5.95883e-12</wgt>
  <wgt id="65">5.95963e-12</wgt>
  <wgt id="66">5.94563e-12</wgt>
  <wgt id="67">5.94096e-12</wgt>
  <wgt id="68">5.9474e-12</wgt>
  <wgt id="69">5.95196e-12</wgt>
  <wgt id="70">5.95035e-12</wgt>
  <wgt id="71">5.95034e-12</wgt>
  <wgt id="72">5.94517e-12</wgt>
  <wgt id="73">5.95598e-12</wgt>
  <wgt id="74">5.95436e-12</wgt>
  <wgt id="75">5.94919e-12</wgt>
  <wgt id="76">5.96476e-12</wgt>
  <wgt id="77">5.95175e-12</wgt>
  <wgt id="78">5.95426e-12</wgt>
  <wgt id="79">5.96262e-12</wgt>
  <wgt id="80">5.93199e-12</wgt>
  <wgt id="81">5.94594e-12</wgt>
  <wgt id="82">5.95256e-12</wgt>
  <wgt id="83">5.93337e-12</wgt>
  <wgt id="84">5.94324e-12</wgt>
  <wgt id="85">5.94254e-12</wgt>
  <wgt id="86">5.96542e-12</wgt>
  <wgt id="87">5.92686e-12</wgt>
  <wgt id="88">5.958e-12</wgt>
  <wgt id="89">5.95747e-12</wgt>
  <wgt id="90">5.96053e-12</wgt>
  <wgt id="91">5.95692e-12</wgt>
  <wgt id="92">5.96222e-12</wgt>
  <wgt id="93">5.95263e-12</wgt>
  <wgt id="94">5.94809e-12</wgt>
  <wgt id="95">5.95641e-12</wgt>
  <wgt id="96">5.95536e-12</wgt>
  <wgt id="97">5.94526e-12</wgt>
  <wgt id="98">5.95485e-12</wgt>
  <wgt id="99">5.94858e-12</wgt>
  <wgt id="100">5.95669e-12</wgt>
  <wgt id="101">5.95159e-12</wgt>
  <wgt id="102">5.94764e-12</wgt>
  <wgt id="103">5.95915e-12</wgt>
  <wgt id="104">5.94994e-12</wgt>
  <wgt id="105">5.95815e-12</wgt>
  <wgt id="106">5.94559e-12</wgt>
  <wgt id="107">5.96625e-12</wgt>
  <wgt id="108">5.94769e-12</wgt>
  <wgt id="109">5.95286e-12</wgt>
  <wgt id="110">5.95253e-12</wgt>
  <wgt id="111">6.01977e-12</wgt>
  <wgt id="112">5.9453e-12</wgt>
  <wgt id="113">7.83088e-12</wgt>
  <wgt id="114">8.12653e-12</wgt>
  <wgt id="115">8.0127e-12</wgt>
  <wgt id="116">1.08698e-11</wgt>
  <wgt id="117">6.5278e-12</wgt>
  <wgt id="118">6.54851e-12</wgt>
  <wgt id="119">6.51623e-12</wgt>
  <wgt id="120">6.52876e-12</wgt>
  <wgt id="121">6.52756e-12</wgt>
  <wgt id="122">6.51611e-12</wgt>
  <wgt id="123">6.54416e-12</wgt>
  <wgt id="124">6.51821e-12</wgt>
  <wgt id="125">6.53412e-12</wgt>
  <wgt id="126">6.5385e-12</wgt>
  <wgt id="127">6.52087e-12</wgt>
  <wgt id="128">6.5483e-12</wgt>
  <wgt id="129">6.50777e-12</wgt>
  <wgt id="130">6.56497e-12</wgt>
  <wgt id="131">6.48994e-12</wgt>
  <wgt id="132">6.36486e-12</wgt>
  <wgt id="133">6.72009e-12</wgt>
  <wgt id="134">6.46158e-12</wgt>
  <wgt id="135">6.57967e-12</wgt>
  <wgt id="136">6.60594e-12</wgt>
  <wgt id="137">6.43347e-12</wgt>
  <wgt id="138">6.76458e-12</wgt>
  <wgt id="139">6.29832e-12</wgt>
  <wgt id="140">6.48341e-12</wgt>
  <wgt id="141">6.56271e-12</wgt>
  <wgt id="142">6.5288e-12</wgt>
  <wgt id="143">6.53601e-12</wgt>
  <wgt id="144">6.37159e-12</wgt>
  <wgt id="145">6.671e-12</wgt>
  <wgt id="146">6.57722e-12</wgt>
  <wgt id="147">6.48934e-12</wgt>
  <wgt id="148">6.54654e-12</wgt>
  <wgt id="149">6.52652e-12</wgt>
  <wgt id="150">6.58233e-12</wgt>
  <wgt id="151">6.50242e-12</wgt>
  <wgt id="152">6.53046e-12</wgt>
  <wgt id="153">6.52719e-12</wgt>
  <wgt id="154">6.58535e-12</wgt>
  <wgt id="155">6.46049e-12</wgt>
  <wgt id="156">6.63286e-12</wgt>
  <wgt id="157">6.40981e-12</wgt>
  <wgt id="158">7.85718e-12</wgt>
  <wgt id="159">7.88961e-12</wgt>
  <wgt id="160">7.83057e-12</wgt>
  <wgt id="161">7.83881e-12</wgt>
  <wgt id="162">7.8771e-12</wgt>
  <wgt id="163">7.84934e-12</wgt>
  <wgt id="164">7.86854e-12</wgt>
  <wgt id="165">7.86018e-12</wgt>
  <wgt id="166">7.85465e-12</wgt>
  <wgt id="167">7.85125e-12</wgt>
  <wgt id="168">7.86502e-12</wgt>
  <wgt id="169">7.82321e-12</wgt>
  <wgt id="170">7.87819e-12</wgt>
  <wgt id="171">7.84909e-12</wgt>
  <wgt id="172">7.86804e-12</wgt>
  <wgt id="173">7.85808e-12</wgt>
  <wgt id="174">7.85643e-12</wgt>
  <wgt id="175">7.64742e-12</wgt>
  <wgt id="176">8.12915e-12</wgt>
  <wgt id="177">7.89557e-12</wgt>
  <wgt id="178">7.82113e-12</wgt>
  <wgt id="179">8.16163e-12</wgt>
  <wgt id="180">7.3733e-12</wgt>
  <wgt id="181">7.64333e-12</wgt>
  <wgt id="182">7.99768e-12</wgt>
  <wgt id="183">7.72611e-12</wgt>
  <wgt id="184">7.92175e-12</wgt>
  <wgt id="185">7.79687e-12</wgt>
  <wgt id="186">7.92763e-12</wgt>
  <wgt id="187">7.78943e-12</wgt>
  <wgt id="188">7.97877e-12</wgt>
  <wgt id="189">7.8106e-12</wgt>
  <wgt id="190">7.87611e-12</wgt>
  <wgt id="191">7.87682e-12</wgt>
  <wgt id="192">7.84518e-12</wgt>
  <wgt id="193">7.95982e-12</wgt>
  <wgt id="194">7.80615e-12</wgt>
  <wgt id="195">7.70104e-12</wgt>
  <wgt id="196">8.15356e-12</wgt>
  <wgt id="197">7.89368e-12</wgt>
  <wgt id="198">7.84813e-12</wgt>
  <wgt id="199">7.85718e-12</wgt>
  <wgt id="200">7.92068e-12</wgt>
  <wgt id="201">7.89716e-12</wgt>
  <wgt id="202">7.87438e-12</wgt>
  <wgt id="203">7.8398e-12</wgt>
  <wgt id="204">7.82353e-12</wgt>
  <wgt id="205">7.81e-12</wgt>
  <wgt id="206">7.65977e-12</wgt>
  <wgt id="207">7.70393e-12</wgt>
  <wgt id="208">7.61598e-12</wgt>
  <wgt id="209">7.68008e-12</wgt>
  <wgt id="210">7.64482e-12</wgt>
  <wgt id="211">7.65763e-12</wgt>
  <wgt id="212">7.66145e-12</wgt>
  <wgt id="213">7.65906e-12</wgt>
  <wgt id="214">7.6607e-12</wgt>
  <wgt id="215">7.66443e-12</wgt>
  <wgt id="216">7.65618e-12</wgt>
  <wgt id="217">7.68014e-12</wgt>
  <wgt id="218">7.64365e-12</wgt>
  <wgt id="219">7.64967e-12</wgt>
  <wgt id="220">7.66581e-12</wgt>
  <wgt id="221">7.65599e-12</wgt>
  <wgt id="222">7.66795e-12</wgt>
  <wgt id="223">7.27622e-12</wgt>
  <wgt id="224">8.00756e-12</wgt>
  <wgt id="225">7.57449e-12</wgt>
  <wgt id="226">7.76634e-12</wgt>
  <wgt id="227">7.59118e-12</wgt>
  <wgt id="228">7.68987e-12</wgt>
  <wgt id="229">7.55863e-12</wgt>
  <wgt id="230">7.70994e-12</wgt>
  <wgt id="231">7.86544e-12</wgt>
  <wgt id="232">7.48979e-12</wgt>
  <wgt id="233">7.62265e-12</wgt>
  <wgt id="234">7.71598e-12</wgt>
  <wgt id="235">7.53698e-12</wgt>
  <wgt id="236">7.78259e-12</wgt>
  <wgt id="237">7.57108e-12</wgt>
  <wgt id="238">7.69037e-12</wgt>
  <wgt id="239">7.62013e-12</wgt>
  <wgt id="240">7.73176e-12</wgt>
  <wgt id="241">7.58779e-12</wgt>
  <wgt id="242">7.74589e-12</wgt>
  <wgt id="243">7.73053e-12</wgt>
  <wgt id="244">7.71026e-12</wgt>
  <wgt id="245">7.65313e-12</wgt>
  <wgt id="246">7.71908e-12</wgt>
  <wgt id="247">7.65977e-12</wgt>
  <wgt id="248">7.7225e-12</wgt>
  <wgt id="249">7.69825e-12</wgt>
  <wgt id="250">7.67592e-12</wgt>
  <wgt id="251">7.64189e-12</wgt>
  <wgt id="252">7.62624e-12</wgt>
  <wgt id="253">7.61444e-12</wgt>
  <wgt id="254">7.49921e-12</wgt>
  <wgt id="255">7.50613e-12</wgt>
  <wgt id="256">7.49142e-12</wgt>
  <wgt id="257">7.50501e-12</wgt>
  <wgt id="258">7.49473e-12</wgt>
  <wgt id="259">7.54869e-12</wgt>
  <wgt id="260">7.45123e-12</wgt>
  <wgt id="261">7.50683e-12</wgt>
  <wgt id="262">7.49e-12</wgt>
  <wgt id="263">7.49648e-12</wgt>
  <wgt id="264">7.50202e-12</wgt>
  <wgt id="265">7.49151e-12</wgt>
  <wgt id="266">7.51439e-12</wgt>
  <wgt id="267">7.5014e-12</wgt>
  <wgt id="268">7.49612e-12</wgt>
  <wgt id="269">7.52068e-12</wgt>
  <wgt id="270">7.48446e-12</wgt>
  <wgt id="271">7.48655e-12</wgt>
  <wgt id="272">7.51294e-12</wgt>
  <wgt id="273">7.47722e-12</wgt>
  <wgt id="274">7.51585e-12</wgt>
  <wgt id="275">7.47146e-12</wgt>
  <wgt id="276">7.52784e-12</wgt>
  <wgt id="277">7.45854e-12</wgt>
  <wgt id="278">7.5366e-12</wgt>
  <wgt id="279">7.36462e-12</wgt>
  <wgt id="280">7.66752e-12</wgt>
  <wgt id="281">7.46893e-12</wgt>
  <wgt id="282">7.4995e-12</wgt>
  <wgt id="283">7.30104e-12</wgt>
  <wgt id="284">7.74206e-12</wgt>
  <wgt id="285">7.16792e-12</wgt>
  <wgt id="286">7.77125e-12</wgt>
  <wgt id="287">7.52102e-12</wgt>
  <wgt id="288">7.47107e-12</wgt>
  <wgt id="289">7.54753e-12</wgt>
  <wgt id="290">7.38485e-12</wgt>
  <wgt id="291">7.48179e-12</wgt>
  <wgt id="292">7.5033e-12</wgt>
  <wgt id="293">7.44613e-12</wgt>
  <wgt id="294">7.55168e-12</wgt>
  <wgt id="295">7.3672e-12</wgt>
  <wgt id="296">7.65967e-12</wgt>
  <wgt id="297">7.50329e-12</wgt>
  <wgt id="298">7.52156e-12</wgt>
  <wgt id="299">7.47719e-12</wgt>
  <wgt id="300">7.55706e-12</wgt>
  <wgt id="301">7.42152e-12</wgt>
  <wgt id="302">7.71461e-12</wgt>
  <wgt id="303">7.45336e-12</wgt>
  <wgt id="304">7.52575e-12</wgt>
  <wgt id="305">7.53816e-12</wgt>
  <wgt id="306">7.54598e-12</wgt>
  <wgt id="307">7.52985e-12</wgt>
  <wgt id="308">7.54474e-12</wgt>
  <wgt id="309">7.53395e-12</wgt>
  <wgt id="310">7.58995e-12</wgt>
  <wgt id="311">7.49022e-12</wgt>
  <wgt id="312">7.54375e-12</wgt>
  <wgt id="313">7.53292e-12</wgt>
  <wgt id="314">7.5357e-12</wgt>
  <wgt id="315">7.54071e-12</wgt>
  <wgt id="316">7.53099e-12</wgt>
  <wgt id="317">7.55394e-12</wgt>
  <wgt id="318">7.5432e-12</wgt>
  <wgt id="319">7.52997e-12</wgt>
  <wgt id="320">7.56058e-12</wgt>
  <wgt id="321">7.52587e-12</wgt>
  <wgt id="322">7.52177e-12</wgt>
  <wgt id="323">7.55766e-12</wgt>
  <wgt id="324">7.52004e-12</wgt>
  <wgt id="325">7.55423e-12</wgt>
  <wgt id="326">7.51594e-12</wgt>
  <wgt id="327">7.56689e-12</wgt>
  <wgt id="328">7.50095e-12</wgt>
  <wgt id="329">7.55984e-12</wgt>
  <wgt id="330">7.74802e-12</wgt>
  <wgt id="331">7.33741e-12</wgt>
  <wgt id="332">7.51338e-12</wgt>
  <wgt id="333">7.53773e-12</wgt>
  <wgt id="334">7.38186e-12</wgt>
  <wgt id="335">7.73185e-12</wgt>
  <wgt id="336">7.29655e-12</wgt>
  <wgt id="337">7.83004e-12</wgt>
  <wgt id="338">7.61559e-12</wgt>
  <wgt id="339">7.46622e-12</wgt>
  <wgt id="340">7.58438e-12</wgt>
  <wgt id="341">7.41781e-12</wgt>
  <wgt id="342">7.52654e-12</wgt>
  <wgt id="343">7.53163e-12</wgt>
  <wgt id="344">7.48952e-12</wgt>
  <wgt id="345">7.59463e-12</wgt>
  <wgt id="346">7.40071e-12</wgt>
  <wgt id="347">7.69618e-12</wgt>
  <wgt id="348">7.54627e-12</wgt>
  <wgt id="349">7.55539e-12</wgt>
  <wgt id="350">7.51026e-12</wgt>
  <wgt id="351">7.60904e-12</wgt>
  <wgt id="352">7.45125e-12</wgt>
  <wgt id="353">7.76707e-12</wgt>
  <wgt id="354">7.46799e-12</wgt>
  <wgt id="355">7.58223e-12</wgt>
  <wgt id="356">7.49921e-12</wgt>
  <wgt id="357">7.57362e-12</wgt>
  <wgt id="358">7.53816e-12</wgt>
  <wgt id="359">7.52982e-12</wgt>
  <wgt id="360">7.53299e-12</wgt>
  <wgt id="361">7.51894e-12</wgt>
  <wgt id="362">7.63846e-12</wgt>
  <wgt id="363">7.62158e-12</wgt>
  <wgt id="364">7.59902e-12</wgt>
  <wgt id="365">7.5755e-12</wgt>
  <wgt id="366">7.54863e-12</wgt>
  <wgt id="367">7.49253e-12</wgt>
  <wgt id="368">7.46186e-12</wgt>
  <wgt id="369">7.4292e-12</wgt>
  <wgt id="370">7.51894e-12</wgt>
  <wgt id="371">7.5521e-12</wgt>
  <wgt id="372">7.5337e-12</wgt>
  <wgt id="373">7.50669e-12</wgt>
  <wgt id="374">7.50247e-12</wgt>
  <wgt id="375">7.9416e-12</wgt>
  <wgt id="376">7.9425e-12</wgt>
  <wgt id="377">7.94041e-12</wgt>
  <wgt id="378">7.96984e-12</wgt>
  <wgt id="379">7.91324e-12</wgt>
  <wgt id="380">7.96304e-12</wgt>
  <wgt id="381">7.93296e-12</wgt>
  <wgt id="382">7.97938e-12</wgt>
  <wgt id="383">7.90419e-12</wgt>
  <wgt id="384">7.94657e-12</wgt>
  <wgt id="385">7.93676e-12</wgt>
  <wgt id="386">7.97047e-12</wgt>
  <wgt id="387">7.92896e-12</wgt>
  <wgt id="388">7.93446e-12</wgt>
  <wgt id="389">7.94995e-12</wgt>
  <wgt id="390">7.96171e-12</wgt>
  <wgt id="391">7.92035e-12</wgt>
  <wgt id="392">7.88866e-12</wgt>
  <wgt id="393">7.97167e-12</wgt>
  <wgt id="394">7.95276e-12</wgt>
  <wgt id="395">7.92633e-12</wgt>
  <wgt id="396">7.94358e-12</wgt>
  <wgt id="397">7.94023e-12</wgt>
  <wgt id="398">7.91121e-12</wgt>
  <wgt id="399">7.97086e-12</wgt>
  <wgt id="400">7.92968e-12</wgt>
  <wgt id="401">7.9679e-12</wgt>
  <wgt id="402">7.88309e-12</wgt>
  <wgt id="403">7.96527e-12</wgt>
  <wgt id="404">8.10808e-12</wgt>
  <wgt id="405">7.53867e-12</wgt>
  <wgt id="406">7.82149e-12</wgt>
  <wgt id="407">8.20035e-12</wgt>
  <wgt id="408">8.00309e-12</wgt>
  <wgt id="409">7.8231e-12</wgt>
  <wgt id="410">7.74344e-12</wgt>
  <wgt id="411">8.03211e-12</wgt>
  <wgt id="412">7.92895e-12</wgt>
  <wgt id="413">7.95901e-12</wgt>
  <wgt id="414">7.86235e-12</wgt>
  <wgt id="415">8.00303e-12</wgt>
  <wgt id="416">8.12576e-12</wgt>
  <wgt id="417">7.68632e-12</wgt>
  <wgt id="418">7.95129e-12</wgt>
  <wgt id="419">7.88958e-12</wgt>
  <wgt id="420">8.02896e-12</wgt>
  <wgt id="421">7.89711e-12</wgt>
  <wgt id="422">7.94002e-12</wgt>
  <wgt id="423">7.94421e-12</wgt>
  <wgt id="424">8.07197e-12</wgt>
  <wgt id="425">7.86224e-12</wgt>
  <wgt id="426">7.9416e-12</wgt>
  <wgt id="427">7.8872e-12</wgt>
  <wgt id="428">8.10964e-12</wgt>
  <wgt id="429">8.00085e-12</wgt>
  <wgt id="430">8.20678e-12</wgt>
  <wgt id="431">8.16587e-12</wgt>
  <wgt id="432">8.12688e-12</wgt>
  <wgt id="433">8.08889e-12</wgt>
  <wgt id="434">8.04351e-12</wgt>
  <wgt id="435">7.9472e-12</wgt>
  <wgt id="436">7.89731e-12</wgt>
  <wgt id="437">7.85002e-12</wgt>
  <wgt id="438">8.00085e-12</wgt>
  <wgt id="439">8.0271e-12</wgt>
  <wgt id="440">8.01183e-12</wgt>
  <wgt id="441">7.99248e-12</wgt>
  <wgt id="442">7.98535e-12</wgt>
  <wgt id="443">7.82997e-12</wgt>
  <wgt id="444">7.8655e-12</wgt>
  <wgt id="445">7.80753e-12</wgt>
  <wgt id="446">7.78269e-12</wgt>
  <wgt id="447">7.80694e-12</wgt>
  <wgt id="448">7.64191e-12</wgt>
  <wgt id="449">7.93962e-12</wgt>
  <wgt id="450">7.80437e-12</wgt>
  <wgt id="451">7.81916e-12</wgt>
  <wgt id="452">7.98516e-12</wgt>
  <wgt id="453">7.88881e-12</wgt>
  <wgt id="454">7.53615e-12</wgt>
  <wgt id="455">7.84144e-12</wgt>
  <wgt id="456">7.73024e-12</wgt>
  <wgt id="457">7.85595e-12</wgt>
  <wgt id="458">7.91349e-12</wgt>
  <wgt id="459">7.87846e-12</wgt>
  <wgt id="460">7.87598e-12</wgt>
  <wgt id="461">7.70722e-12</wgt>
  <wgt id="462">7.77887e-12</wgt>
  <wgt id="463">7.75457e-12</wgt>
  <wgt id="464">7.79508e-12</wgt>
  <wgt id="465">7.89828e-12</wgt>
  <wgt id="466">7.7522e-12</wgt>
  <wgt id="467">7.76653e-12</wgt>
  <wgt id="468">7.81209e-12</wgt>
  <wgt id="469">7.81422e-12</wgt>
  <wgt id="470">7.76593e-12</wgt>
  <wgt id="471">7.77213e-12</wgt>
  <wgt id="472">7.85971e-12</wgt>
  <wgt id="473">7.62226e-12</wgt>
  <wgt id="474">5.79e-12</wgt>
  <wgt id="475">6.11613e-12</wgt>
  <wgt id="476">5.68336e-12</wgt>
  <wgt id="477">5.66385e-12</wgt>
  <wgt id="478">5.82851e-12</wgt>
  <wgt id="479">5.72136e-12</wgt>
  <wgt id="480">5.96942e-12</wgt>
  <wgt id="481">5.66247e-12</wgt>
  <wgt id="482">5.58523e-12</wgt>
  <wgt id="483">5.64617e-12</wgt>
  <wgt id="484">6.15276e-12</wgt>
  <wgt id="485">5.78727e-12</wgt>
  <wgt id="486">5.90786e-12</wgt>
  <wgt id="487">5.85185e-12</wgt>
  <wgt id="488">5.86819e-12</wgt>
  <wgt id="489">5.56244e-12</wgt>
  <wgt id="490">5.62542e-12</wgt>
  <wgt id="491">5.74097e-12</wgt>
  <wgt id="492">5.6296e-12</wgt>
  <wgt id="493">5.59484e-12</wgt>
  <wgt id="494">5.6217e-12</wgt>
  <wgt id="495">5.85737e-12</wgt>
  <wgt id="496">5.59927e-12</wgt>
  <wgt id="497">5.58869e-12</wgt>
  <wgt id="498">5.87285e-12</wgt>
  <wgt id="499">5.65985e-12</wgt>
  <wgt id="500">5.683e-12</wgt>
  <wgt id="501">6.02351e-12</wgt>
  <wgt id="502">5.65314e-12</wgt>
  <wgt id="503">5.77955e-12</wgt>
  <wgt id="504">5.80804e-12</wgt>
  <wgt id="505">5.76712e-12</wgt>
  <wgt id="506">5.85595e-12</wgt>
  <wgt id="507">5.73983e-12</wgt>
  <wgt id="508">5.90367e-12</wgt>
  <wgt id="509">5.68093e-12</wgt>
  <wgt id="510">5.91559e-12</wgt>
  <wgt id="511">5.65401e-12</wgt>
  <wgt id="512">5.8695e-12</wgt>
  <wgt id="513">5.97377e-12</wgt>
  <wgt id="514">5.7635e-12</wgt>
  <wgt id="515">5.7309e-12</wgt>
  <wgt id="516">5.96497e-12</wgt>
  <wgt id="517">5.92226e-12</wgt>
  <wgt id="518">5.94617e-12</wgt>
  <wgt id="519">5.66282e-12</wgt>
  <wgt id="520">5.8312e-12</wgt>
  <wgt id="521">5.99074e-12</wgt>
  <wgt id="522">6.0125e-12</wgt>
  <wgt id="523">5.86687e-12</wgt>
  <wgt id="524">5.86647e-12</wgt>
  <wgt id="525">5.92877e-12</wgt>
  <wgt id="526">5.79225e-12</wgt>
  <wgt id="527">5.88826e-12</wgt>
  <wgt id="528">5.78792e-12</wgt>
  <wgt id="529">5.73057e-12</wgt>
  <wgt id="530">5.83938e-12</wgt>
  <wgt id="531">5.71089e-12</wgt>
  <wgt id="532">6.09346e-12</wgt>
  <wgt id="533">5.46796e-12</wgt>
  <wgt id="534">5.78889e-12</wgt>
  <wgt id="535">5.86064e-12</wgt>
  <wgt id="536">5.78201e-12</wgt>
  <wgt id="537">5.80796e-12</wgt>
  <wgt id="538">5.88889e-12</wgt>
  <wgt id="539">5.66622e-12</wgt>
  <wgt id="540">5.73924e-12</wgt>
  <wgt id="541">5.68369e-12</wgt>
  <wgt id="542">5.67465e-12</wgt>
  <wgt id="543">5.78243e-12</wgt>
  <wgt id="544">6.06391e-12</wgt>
  <wgt id="545">5.70716e-12</wgt>
  <wgt id="546">5.71034e-12</wgt>
  <wgt id="547">5.63305e-12</wgt>
  <wgt id="548">5.55775e-12</wgt>
  <wgt id="549">5.70672e-12</wgt>
  <wgt id="550">5.78356e-12</wgt>
  <wgt id="551">5.86713e-12</wgt>
  <wgt id="552">5.70988e-12</wgt>
  <wgt id="553">5.77047e-12</wgt>
  <wgt id="554">6.21349e-12</wgt>
  <wgt id="555">5.95458e-12</wgt>
  <wgt id="556">5.62542e-12</wgt>
  <wgt id="557">5.88885e-12</wgt>
  <wgt id="558">5.61703e-12</wgt>
  <wgt id="559">5.70851e-12</wgt>
  <wgt id="560">6.25983e-12</wgt>
  <wgt id="561">5.66718e-12</wgt>
  <wgt id="562">5.88268e-12</wgt>
  <wgt id="563">5.67562e-12</wgt>
  <wgt id="564">5.82019e-12</wgt>
  <wgt id="565">5.62542e-12</wgt>
  <wgt id="566">5.85102e-12</wgt>
  <wgt id="567">5.71165e-12</wgt>
  <wgt id="568">5.79641e-12</wgt>
  <wgt id="569">5.84273e-12</wgt>
  <wgt id="570">5.64492e-12</wgt>
  <wgt id="571">6.39255e-12</wgt>
  <wgt id="572">5.67895e-12</wgt>
  <wgt id="573">5.54992e-12</wgt>
  <wgt id="574">5.59985e-12</wgt>
  <wgt id="575">6.33526e-12</wgt>
  <wgt id="576">6.26491e-12</wgt>
  <wgt id="577">6.56167e-12</wgt>
  <wgt id="578">6.46374e-12</wgt>
  <wgt id="579">6.41049e-12</wgt>
  <wgt id="580">6.45008e-12</wgt>
  <wgt id="581">6.72339e-12</wgt>
  <wgt id="582">6.25316e-12</wgt>
  <wgt id="583">6.38909e-12</wgt>
  <wgt id="584">6.33309e-12</wgt>
  <wgt id="585">6.34528e-12</wgt>
  <wgt id="586">6.18117e-12</wgt>
  <wgt id="587">6.40717e-12</wgt>
  <wgt id="588">6.30291e-12</wgt>
  <wgt id="589">6.42347e-12</wgt>
  <wgt id="590">6.41095e-12</wgt>
  <wgt id="591">6.58617e-12</wgt>
  <wgt id="592">6.18615e-12</wgt>
  <wgt id="593">6.29979e-12</wgt>
  <wgt id="594">6.58609e-12</wgt>
  <wgt id="595">6.30505e-12</wgt>
  <wgt id="596">6.44737e-12</wgt>
  <wgt id="597">6.12609e-12</wgt>
  <wgt id="598">6.24887e-12</wgt>
  <wgt id="599">6.60021e-12</wgt>
  <wgt id="600">6.29253e-12</wgt>
  <wgt id="601">6.15701e-12</wgt>
  <wgt id="602">6.20716e-12</wgt>
  <wgt id="603">6.24514e-12</wgt>
  <wgt id="604">6.41822e-12</wgt>
  <wgt id="605">6.58676e-12</wgt>
  <wgt id="606">6.20936e-12</wgt>
  <wgt id="607">6.26552e-12</wgt>
  <wgt id="608">6.33201e-12</wgt>
  <wgt id="609">5.98836e-12</wgt>
  <wgt id="610">6.09889e-12</wgt>
  <wgt id="611">6.42111e-12</wgt>
  <wgt id="612">6.81038e-12</wgt>
  <wgt id="613">6.34032e-12</wgt>
  <wgt id="614">6.39676e-12</wgt>
  <wgt id="615">6.2243e-12</wgt>
  <wgt id="616">6.72971e-12</wgt>
  <wgt id="617">6.51137e-12</wgt>
  <wgt id="618">6.43293e-12</wgt>
  <wgt id="619">6.30452e-12</wgt>
  <wgt id="620">6.52625e-12</wgt>
  <wgt id="621">6.40769e-12</wgt>
  <wgt id="622">6.40717e-12</wgt>
  <wgt id="623">6.49145e-12</wgt>
  <wgt id="624">6.29606e-12</wgt>
  <wgt id="625">6.25543e-12</wgt>
  <wgt id="626">6.18436e-12</wgt>
  <wgt id="627">6.11068e-12</wgt>
  <wgt id="628">6.59129e-12</wgt>
  <wgt id="629">6.22098e-12</wgt>
  <wgt id="630">6.1655e-12</wgt>
  <wgt id="631">6.33937e-12</wgt>
  <wgt id="632">6.14348e-12</wgt>
  <wgt id="633">6.26654e-12</wgt>
  <wgt id="634">6.35031e-12</wgt>
  <wgt id="635">6.25379e-12</wgt>
  <wgt id="636">6.3852e-12</wgt>
  <wgt id="637">6.36568e-12</wgt>
  <wgt id="638">6.13095e-12</wgt>
  <wgt id="639">6.2706e-12</wgt>
  <wgt id="640">6.35209e-12</wgt>
  <wgt id="641">6.36691e-12</wgt>
  <wgt id="642">6.17695e-12</wgt>
  <wgt id="643">6.31524e-12</wgt>
  <wgt id="644">6.08952e-12</wgt>
  <wgt id="645">6.36774e-12</wgt>
  <wgt id="646">6.43118e-12</wgt>
  <wgt id="647">6.2366e-12</wgt>
  <wgt id="648">6.37605e-12</wgt>
  <wgt id="649">6.41797e-12</wgt>
  <wgt id="650">6.21448e-12</wgt>
  <wgt id="651">6.4285e-12</wgt>
  <wgt id="652">6.31992e-12</wgt>
  <wgt id="653">6.17156e-12</wgt>
  <wgt id="654">6.2887e-12</wgt>
  <wgt id="655">6.2106e-12</wgt>
  <wgt id="656">6.30949e-12</wgt>
  <wgt id="657">6.51655e-12</wgt>
  <wgt id="658">6.4189e-12</wgt>
  <wgt id="659">6.10163e-12</wgt>
  <wgt id="660">6.44353e-12</wgt>
  <wgt id="661">6.25177e-12</wgt>
  <wgt id="662">6.30555e-12</wgt>
  <wgt id="663">6.32468e-12</wgt>
  <wgt id="664">6.24594e-12</wgt>
  <wgt id="665">6.31962e-12</wgt>
  <wgt id="666">6.31802e-12</wgt>
  <wgt id="667">6.54081e-12</wgt>
  <wgt id="668">6.30846e-12</wgt>
  <wgt id="669">6.48983e-12</wgt>
  <wgt id="670">6.4223e-12</wgt>
  <wgt id="671">6.24418e-12</wgt>
  <wgt id="672">6.07712e-12</wgt>
  <wgt id="673">6.32977e-12</wgt>
  <wgt id="674">6.20262e-12</wgt>
  <wgt id="675">6.21208e-12</wgt>
  <wgt id="676">7.87479e-12</wgt>
  <wgt id="677">7.98537e-12</wgt>
  <wgt id="678">8.23351e-12</wgt>
  <wgt id="679">7.51971e-12</wgt>
  <wgt id="680">7.6251e-12</wgt>
  <wgt id="681">8.08168e-12</wgt>
  <wgt id="682">7.99838e-12</wgt>
  <wgt id="683">7.7995e-12</wgt>
  <wgt id="684">8.19809e-12</wgt>
  <wgt id="685">7.5082e-12</wgt>
  <wgt id="686">7.87015e-12</wgt>
  <wgt id="687">8.19071e-12</wgt>
  <wgt id="688">7.81027e-12</wgt>
  <wgt id="689">8.36173e-12</wgt>
  <wgt id="690">8.28825e-12</wgt>
  <wgt id="691">8.26655e-12</wgt>
  <wgt id="692">7.84837e-12</wgt>
  <wgt id="693">9.05684e-12</wgt>
  <wgt id="694">8.31807e-12</wgt>
  <wgt id="695">7.62654e-12</wgt>
  <wgt id="696">7.55294e-12</wgt>
  <wgt id="697">7.61596e-12</wgt>
  <wgt id="698">7.3743e-12</wgt>
  <wgt id="699">7.27901e-12</wgt>
  <wgt id="700">7.03764e-12</wgt>
  <wgt id="701">7.88281e-12</wgt>
  <wgt id="702">7.59288e-12</wgt>
  <wgt id="703">8.89129e-12</wgt>
  <wgt id="704">8.48275e-12</wgt>
  <wgt id="705">8.20677e-12</wgt>
  <wgt id="706">7.40393e-12</wgt>
  <wgt id="707">7.58191e-12</wgt>
  <wgt id="708">7.77277e-12</wgt>
  <wgt id="709">7.73972e-12</wgt>
  <wgt id="710">7.14268e-12</wgt>
  <wgt id="711">7.86289e-12</wgt>
  <wgt id="712">7.75475e-12</wgt>
  <wgt id="713">8.38893e-12</wgt>
  <wgt id="714">7.81008e-12</wgt>
  <wgt id="715">7.79183e-12</wgt>
  <wgt id="716">7.5989e-12</wgt>
  <wgt id="717">7.55106e-12</wgt>
  <wgt id="718">7.78372e-12</wgt>
  <wgt id="719">7.22706e-12</wgt>
  <wgt id="720">7.50616e-12</wgt>
  <wgt id="721">7.44458e-12</wgt>
  <wgt id="722">7.13307e-12</wgt>
  <wgt id="723">8.31211e-12</wgt>
  <wgt id="724">8.18402e-12</wgt>
  <wgt id="725">8.29733e-12</wgt>
  <wgt id="726">7.94729e-12</wgt>
  <wgt id="727">7.70725e-12</wgt>
  <wgt id="728">7.78501e-12</wgt>
  <wgt id="729">7.28195e-12</wgt>
  <wgt id="730">8.32693e-12</wgt>
  <wgt id="731">7.78848e-12</wgt>
  <wgt id="732">8.57241e-12</wgt>
  <wgt id="733">7.83147e-12</wgt>
  <wgt id="734">8.04598e-12</wgt>
  <wgt id="735">7.87066e-12</wgt>
  <wgt id="736">7.75968e-12</wgt>
  <wgt id="737">7.99031e-12</wgt>
  <wgt id="738">7.59803e-12</wgt>
  <wgt id="739">7.88263e-12</wgt>
  <wgt id="740">8.68171e-12</wgt>
  <wgt id="741">7.05763e-12</wgt>
  <wgt id="742">7.77064e-12</wgt>
  <wgt id="743">7.63212e-12</wgt>
  <wgt id="744">7.71769e-12</wgt>
  <wgt id="745">8.15133e-12</wgt>
  <wgt id="746">8.25184e-12</wgt>
  <wgt id="747">7.25894e-12</wgt>
  <wgt id="748">7.75672e-12</wgt>
  <wgt id="749">8.28575e-12</wgt>
  <wgt id="750">7.93821e-12</wgt>
  <wgt id="751">8.12681e-12</wgt>
  <wgt id="752">7.29615e-12</wgt>
  <wgt id="753">7.49761e-12</wgt>
  <wgt id="754">8.07796e-12</wgt>
  <wgt id="755">7.91294e-12</wgt>
  <wgt id="756">7.89298e-12</wgt>
  <wgt id="757">7.33189e-12</wgt>
  <wgt id="758">7.94881e-12</wgt>
  <wgt id="759">7.95063e-12</wgt>
  <wgt id="760">7.99556e-12</wgt>
  <wgt id="761">8.28513e-12</wgt>
  <wgt id="762">8.28303e-12</wgt>
  <wgt id="763">7.89088e-12</wgt>
  <wgt id="764">8.1413e-12</wgt>
  <wgt id="765">7.92931e-12</wgt>
  <wgt id="766">7.84758e-12</wgt>
  <wgt id="767">8.03431e-12</wgt>
  <wgt id="768">7.49073e-12</wgt>
  <wgt id="769">8.30616e-12</wgt>
  <wgt id="770">7.71772e-12</wgt>
  <wgt id="771">9.15689e-12</wgt>
  <wgt id="772">7.44047e-12</wgt>
  <wgt id="773">7.8417e-12</wgt>
  <wgt id="774">7.11032e-12</wgt>
  <wgt id="775">8.20411e-12</wgt>
  <wgt id="776">8.53956e-12</wgt>
  <wgt id="777">7.6232e-12</wgt>
  <wgt id="778">5.91931e-12</wgt>
  <wgt id="779">5.02816e-12</wgt>
  <wgt id="780">4.25575e-12</wgt>
  <wgt id="781">6.03541e-12</wgt>
  <wgt id="782">6.26993e-12</wgt>
  <wgt id="783">5.12113e-12</wgt>
  <wgt id="784">5.26469e-12</wgt>
  <wgt id="785">7.09404e-12</wgt>
  <wgt id="786">4.6551e-12</wgt>
  <wgt id="787">6.60671e-12</wgt>
  <wgt id="788">3.95019e-12</wgt>
  <wgt id="789">4.90378e-12</wgt>
  <wgt id="790">4.62927e-12</wgt>
  <wgt id="791">5.56566e-12</wgt>
  <wgt id="792">7.66706e-12</wgt>
  <wgt id="793">5.76715e-12</wgt>
  <wgt id="794">4.70065e-12</wgt>
  <wgt id="795">6.73733e-12</wgt>
  <wgt id="796">7.62399e-12</wgt>
  <wgt id="797">6.73267e-12</wgt>
  <wgt id="798">5.50321e-12</wgt>
  <wgt id="799">6.62409e-12</wgt>
  <wgt id="800">4.91556e-12</wgt>
  <wgt id="801">5.58794e-12</wgt>
  <wgt id="802">4.74071e-12</wgt>
  <wgt id="803">7.68529e-12</wgt>
  <wgt id="804">6.70016e-12</wgt>
  <wgt id="805">6.80356e-12</wgt>
  <wgt id="806">6.62717e-12</wgt>
  <wgt id="807">5.69476e-12</wgt>
  <wgt id="808">5.77162e-12</wgt>
  <wgt id="809">5.49782e-12</wgt>
  <wgt id="810">6.70594e-12</wgt>
  <wgt id="811">6.38869e-12</wgt>
  <wgt id="812">4.67974e-12</wgt>
  <wgt id="813">4.72523e-12</wgt>
  <wgt id="814">4.9783e-12</wgt>
  <wgt id="815">5.04708e-12</wgt>
  <wgt id="816">4.53964e-12</wgt>
  <wgt id="817">6.20704e-12</wgt>
  <wgt id="818">5.81328e-12</wgt>
  <wgt id="819">5.05574e-12</wgt>
  <wgt id="820">5.92872e-12</wgt>
  <wgt id="821">6.65867e-12</wgt>
  <wgt id="822">5.10744e-12</wgt>
  <wgt id="823">6.68873e-12</wgt>
  <wgt id="824">7.79298e-12</wgt>
  <wgt id="825">4.53694e-12</wgt>
  <wgt id="826">6.15248e-12</wgt>
  <wgt id="827">3.84315e-12</wgt>
  <wgt id="828">7.54433e-12</wgt>
  <wgt id="829">6.08265e-12</wgt>
  <wgt id="830">4.32089e-12</wgt>
  <wgt id="831">6.29928e-12</wgt>
  <wgt id="832">9.39094e-12</wgt>
  <wgt id="833">5.59886e-12</wgt>
  <wgt id="834">8.85175e-12</wgt>
  <wgt id="835">4.89858e-12</wgt>
  <wgt id="836">5.90097e-12</wgt>
  <wgt id="837">6.58112e-12</wgt>
  <wgt id="838">5.63907e-12</wgt>
  <wgt id="839">6.27406e-12</wgt>
  <wgt id="840">5.61492e-12</wgt>
  <wgt id="841">7.06858e-12</wgt>
  <wgt id="842">5.4739e-12</wgt>
  <wgt id="843">5.78186e-12</wgt>
  <wgt id="844">6.11055e-12</wgt>
  <wgt id="845">8.07054e-12</wgt>
  <wgt id="846">5.59927e-12</wgt>
  <wgt id="847">5.8875e-12</wgt>
  <wgt id="848">5.2426e-12</wgt>
  <wgt id="849">6.04647e-12</wgt>
  <wgt id="850">7.47317e-12</wgt>
  <wgt id="851">6.43149e-12</wgt>
  <wgt id="852">5.13801e-12</wgt>
  <wgt id="853">6.40871e-12</wgt>
  <wgt id="854">7.0728e-12</wgt>
  <wgt id="855">6.67152e-12</wgt>
  <wgt id="856">4.4187e-12</wgt>
  <wgt id="857">5.95516e-12</wgt>
  <wgt id="858">5.81288e-12</wgt>
  <wgt id="859">5.55401e-12</wgt>
  <wgt id="860">6.24907e-12</wgt>
  <wgt id="861">5.34184e-12</wgt>
  <wgt id="862">5.99183e-12</wgt>
  <wgt id="863">6.18441e-12</wgt>
  <wgt id="864">6.19709e-12</wgt>
  <wgt id="865">8.16231e-12</wgt>
  <wgt id="866">8.94409e-12</wgt>
  <wgt id="867">5.95039e-12</wgt>
  <wgt id="868">5.80196e-12</wgt>
  <wgt id="869">4.72493e-12</wgt>
  <wgt id="870">4.96974e-12</wgt>
  <wgt id="871">4.83701e-12</wgt>
  <wgt id="872">6.87804e-12</wgt>
  <wgt id="873">4.99794e-12</wgt>
  <wgt id="874">6.16302e-12</wgt>
  <wgt id="875">5.19044e-12</wgt>
  <wgt id="876">6.86866e-12</wgt>
  <wgt id="877">6.62098e-12</wgt>
  <wgt id="878">5.20835e-12</wgt>
  <wgt id="879">7.87479e-12</wgt>
  <wgt id="880">7.98537e-12</wgt>
  <wgt id="881">8.23351e-12</wgt>
  <wgt id="882">7.51971e-12</wgt>
  <wgt id="883">7.6251e-12</wgt>
  <wgt id="884">8.08168e-12</wgt>
  <wgt id="885">7.99838e-12</wgt>
  <wgt id="886">7.7995e-12</wgt>
  <wgt id="887">8.19809e-12</wgt>
  <wgt id="888">7.5082e-12</wgt>
  <wgt id="889">7.87015e-12</wgt>
  <wgt id="890">8.19071e-12</wgt>
  <wgt id="891">7.81027e-12</wgt>
  <wgt id="892">8.36173e-12</wgt>
  <wgt id="893">8.28825e-12</wgt>
  <wgt id="894">8.26655e-12</wgt>
  <wgt id="895">7.84837e-12</wgt>
  <wgt id="896">9.05684e-12</wgt>
  <wgt id="897">8.31807e-12</wgt>
  <wgt id="898">7.62654e-12</wgt>
  <wgt id="899">7.55294e-12</wgt>
  <wgt id="900">7.61596e-12</wgt>
  <wgt id="901">7.3743e-12</wgt>
  <wgt id="902">7.27901e-12</wgt>
  <wgt id="903">7.03764e-12</wgt>
  <wgt id="904">7.88281e-12</wgt>
  <wgt id="905">7.59288e-12</wgt>
  <wgt id="906">8.89129e-12</wgt>
  <wgt id="907">8.48275e-12</wgt>
  <wgt id="908">8.20677e-12</wgt>
  <wgt id="909">7.40393e-12</wgt>
  <wgt id="910">7.58191e-12</wgt>
  <wgt id="911">7.77277e-12</wgt>
  <wgt id="912">7.73972e-12</wgt>
  <wgt id="913">7.14268e-12</wgt>
  <wgt id="914">7.86289e-12</wgt>
  <wgt id="915">7.75475e-12</wgt>
  <wgt id="916">8.38893e-12</wgt>
  <wgt id="917">7.81008e-12</wgt>
  <wgt id="918">7.79183e-12</wgt>
  <wgt id="919">7.5989e-12</wgt>
  <wgt id="920">7.55106e-12</wgt>
  <wgt id="921">7.78372e-12</wgt>
  <wgt id="922">7.22706e-12</wgt>
  <wgt id="923">7.50616e-12</wgt>
  <wgt id="924">7.44458e-12</wgt>
  <wgt id="925">7.13307e-12</wgt>
  <wgt id="926">8.31211e-12</wgt>
  <wgt id="927">8.18402e-12</wgt>
  <wgt id="928">8.29733e-12</wgt>
  <wgt id="929">7.94729e-12</wgt>
  <wgt id="930">7.70725e-12</wgt>
  <wgt id="931">7.78501e-12</wgt>
  <wgt id="932">7.28195e-12</wgt>
  <wgt id="933">8.32693e-12</wgt>
  <wgt id="934">7.78848e-12</wgt>
  <wgt id="935">8.57241e-12</wgt>
  <wgt id="936">7.83147e-12</wgt>
  <wgt id="937">8.04598e-12</wgt>
  <wgt id="938">7.87066e-12</wgt>
  <wgt id="939">7.75968e-12</wgt>
  <wgt id="940">7.99031e-12</wgt>
  <wgt id="941">7.59803e-12</wgt>
  <wgt id="942">7.88263e-12</wgt>
  <wgt id="943">8.68171e-12</wgt>
  <wgt id="944">7.05763e-12</wgt>
  <wgt id="945">7.77064e-12</wgt>
  <wgt id="946">7.63212e-12</wgt>
  <wgt id="947">7.71769e-12</wgt>
  <wgt id="948">8.15133e-12</wgt>
  <wgt id="949">8.25184e-12</wgt>
  <wgt id="950">7.25894e-12</wgt>
  <wgt id="951">7.75672e-12</wgt>
  <wgt id="952">8.28575e-12</wgt>
  <wgt id="953">7.93821e-12</wgt>
  <wgt id="954">8.12681e-12</wgt>
  <wgt id="955">7.29615e-12</wgt>
  <wgt id="956">7.49761e-12</wgt>
  <wgt id="957">8.07796e-12</wgt>
  <wgt id="958">7.91294e-12</wgt>
  <wgt id="959">7.89298e-12</wgt>
  <wgt id="960">7.33189e-12</wgt>
  <wgt id="961">7.94881e-12</wgt>
  <wgt id="962">7.95063e-12</wgt>
  <wgt id="963">7.99556e-12</wgt>
  <wgt id="964">8.28513e-12</wgt>
  <wgt id="965">8.28303e-12</wgt>
  <wgt id="966">7.89088e-12</wgt>
  <wgt id="967">8.1413e-12</wgt>
  <wgt id="968">7.92931e-12</wgt>
  <wgt id="969">7.84758e-12</wgt>
  <wgt id="970">8.03431e-12</wgt>
  <wgt id="971">7.49073e-12</wgt>
  <wgt id="972">8.30616e-12</wgt>
  <wgt id="973">7.71772e-12</wgt>
  <wgt id="974">9.15689e-12</wgt>
  <wgt id="975">7.44047e-12</wgt>
  <wgt id="976">7.8417e-12</wgt>
  <wgt id="977">7.11032e-12</wgt>
  <wgt id="978">8.20411e-12</wgt>
  <wgt id="979">8.53956e-12</wgt>
  <wgt id="980">7.88601e-12</wgt>
  <wgt id="981">7.89834e-12</wgt>
  <wgt id="982">7.65369e-12</wgt>
</rwgt>
</event>
<event>
 5   1  0.5790000E-11  0.2163521E+04  0.7818608E-02  0.7762750E-01
       21   -1    0    0  502  501  0.00000000000E+00  0.00000000000E+00  0.96276653716E+03  0.96276653716E+03  0.00000000000E+00 0. -1.
       21   -1    0    0  501  502 -0.00000000000E+00 -0.00000000000E+00 -0.12154619486E+04  0.12154619486E+04  0.00000000000E+00 0.  1.
       39    2    1    2    0    0  0.00000000000E+00  0.00000000000E+00 -0.25269541144E+03  0.21782284858E+04  0.21635212884E+04 0.  0.
       25    1    3    3    0    0  0.92406229101E+03 -0.48557746230E+03  0.13014774721E+03  0.10593583084E+04  0.12500000000E+03 0.  0.
       25    1    3    3    0    0 -0.92406229101E+03  0.48557746230E+03 -0.38284315865E+03  0.11188701773E+04  0.12500000000E+03 0.  0.
<mgrwt>
<rscale>  0 0.21635213E+04</rscale>
<asrwt>0</asrwt>
<pdfrwt beam="1">  1       21 0.14811793E+00 0.21635213E+04</pdfrwt>
<pdfrwt beam="2">  1       21 0.18699415E+00 0.21635213E+04</pdfrwt>
<totfact> 0.20909837E+01</totfact>
</mgrwt>
<rwgt>
  <wgt id="1">5.79e-12</wgt>
  <wgt id="2">5.05973e-12</wgt>
  <wgt id="3">6.69273e-12</wgt>
  <wgt id="4">5.79e-12</wgt>
  <wgt id="5">5.05973e-12</wgt>
  <wgt id="6">6.69273e-12</wgt>
  <wgt id="7">5.79e-12</wgt>
  <wgt id="8">5.05973e-12</wgt>
  <wgt id="9">6.69273e-12</wgt>
  <wgt id="10">5.9483e-12</wgt>
  <wgt id="11">5.94241e-12</wgt>
  <wgt id="12">5.93687e-12</wgt>
  <wgt id="13">5.92794e-12</wgt>
  <wgt id="14">5.96928e-12</wgt>
  <wgt id="15">5.95667e-12</wgt>
  <wgt id="16">5.93499e-12</wgt>
  <wgt id="17">5.95798e-12</wgt>
  <wgt id="18">5.94079e-12</wgt>
  <wgt id="19">5.96026e-12</wgt>
  <wgt id="20">5.93056e-12</wgt>
  <wgt id="21">5.91764e-12</wgt>
  <wgt id="22">5.93113e-12</wgt>
  <wgt id="23">5.89907e-12</wgt>
  <wgt id="24">5.92287e-12</wgt>
  <wgt id="25">5.93384e-12</wgt>
  <wgt id="26">5.97289e-12</wgt>
  <wgt id="27">5.94775e-12</wgt>
  <wgt id="28">5.92038e-12</wgt>
  <wgt id="29">5.95471e-12</wgt>
  <wgt id="30">5.93374e-12</wgt>
  <wgt id="31">5.96352e-12</wgt>
  <wgt id="32">5.93567e-12</wgt>
  <wgt id="33">5.96076e-12</wgt>
  <wgt id="34">5.93162e-12</wgt>
  <wgt id="35">5.94085e-12</wgt>
  <wgt id="36">5.96133e-12</wgt>
  <wgt id="37">5.93323e-12</wgt>
  <wgt id="38">5.9345e-12</wgt>
  <wgt id="39">6.00785e-12</wgt>
  <wgt id="40">5.96371e-12</wgt>
  <wgt id="41">5.9469e-12</wgt>
  <wgt id="42">5.96834e-12</wgt>
  <wgt id="43">5.95441e-12</wgt>
  <wgt id="44">5.92265e-12</wgt>
  <wgt id="45">5.95672e-12</wgt>
  <wgt id="46">5.95494e-12</wgt>
  <wgt id="47">5.92144e-12</wgt>
  <wgt id="48">5.94915e-12</wgt>
  <wgt id="49">5.97338e-12</wgt>
  <wgt id="50">5.98749e-12</wgt>
  <wgt id="51">5.9732e-12</wgt>
  <wgt id="52">5.92483e-12</wgt>
  <wgt id="53">5.91395e-12</wgt>
  <wgt id="54">5.93655e-12</wgt>
  <wgt id="55">5.94657e-12</wgt>
  <wgt id="56">5.96554e-12</wgt>
  <wgt id="57">5.96888e-12</wgt>
  <wgt id="58">5.90792e-12</wgt>
  <wgt id="59">5.92897e-12</wgt>
  <wgt id="60">5.94963e-12</wgt>
  <wgt id="61">5.94442e-12</wgt>
  <wgt id="62">5.94941e-12</wgt>
  <wgt id="63">5.95693e-12</wgt>
  <wgt id="64">5.95526e-12</wgt>
  <wgt id="65">5.95323e-12</wgt>
  <wgt id="66">5.94153e-12</wgt>
  <wgt id="67">5.94308e-12</wgt>
  <wgt id="68">5.94234e-12</wgt>
  <wgt id="69">5.94606e-12</wgt>
  <wgt id="70">5.94421e-12</wgt>
  <wgt id="71">5.94465e-12</wgt>
  <wgt id="72">5.94238e-12</wgt>
  <wgt id="73">5.95278e-12</wgt>
  <wgt id="74">5.95083e-12</wgt>
  <wgt id="75">5.94856e-12</wgt>
  <wgt id="76">5.96212e-12</wgt>
  <wgt id="77">5.94744e-12</wgt>
  <wgt id="78">5.95014e-12</wgt>
  <wgt id="79">5.9573e-12</wgt>
  <wgt id="80">5.9263e-12</wgt>
  <wgt id="81">5.94129e-12</wgt>
  <wgt id="82">5.94846e-12</wgt>
  <wgt id="83">5.92931e-12</wgt>
  <wgt id="84">5.93728e-12</wgt>
  <wgt id="85">5.94015e-12</wgt>
  <wgt id="86">5.95864e-12</wgt>
  <wgt id="87">5.92434e-12</wgt>
  <wgt id="88">5.95388e-12</wgt>
  <wgt id="89">5.95307e-12</wgt>
  <wgt id="90">5.95461e-12</wgt>
  <wgt id="91">5.95189e-12</wgt>
  <wgt id="92">5.95762e-12</wgt>
  <wgt id="93">5.94765e-12</wgt>
  <wgt id="94">5.94424e-12</wgt>
  <wgt id="95">5.95126e-12</wgt>
  <wgt id="96">5.95149e-12</wgt>
  <wgt id="97">5.94192e-12</wgt>
  <wgt id="98">5.95108e-12</wgt>
  <wgt id="99">5.946e-12</wgt>
  <wgt id="100">5.9535e-12</wgt>
  <wgt id="101">5.94694e-12</wgt>
  <wgt id="102">5.94347e-12</wgt>
  <wgt id="103">5.95492e-12</wgt>
  <wgt id="104">5.9445e-12</wgt>
  <wgt id="105">5.95284e-12</wgt>
  <wgt id="106">5.94209e-12</wgt>
  <wgt id="107">5.96159e-12</wgt>
  <wgt id="108">5.94329e-12</wgt>
  <wgt id="109">5.95056e-12</wgt>
  <wgt id="110">5.94724e-12</wgt>
  <wgt id="111">6.02054e-12</wgt>
  <wgt id="112">5.93322e-12</wgt>
  <wgt id="113">7.80738e-12</wgt>
  <wgt id="114">8.13963e-12</wgt>
  <wgt id="115">8.02977e-12</wgt>
  <wgt id="116">1.09496e-11</wgt>
  <wgt id="117">6.54087e-12</wgt>
  <wgt id="118">6.56176e-12</wgt>
  <wgt id="119">6.52922e-12</wgt>
  <wgt id="120">6.54174e-12</wgt>
  <wgt id="121">6.54051e-12</wgt>
  <wgt id="122">6.5291e-12</wgt>
  <wgt id="123">6.55726e-12</wgt>
  <wgt id="124">6.53135e-12</wgt>
  <wgt id="125">6.54723e-12</wgt>
  <wgt id="126">6.55186e-12</wgt>
  <wgt id="127">6.53377e-12</wgt>
  <wgt id="128">6.56148e-12</wgt>
  <wgt id="129">6.5206e-12</wgt>
  <wgt id="130">6.57862e-12</wgt>
  <wgt id="131">6.50238e-12</wgt>
  <wgt id="132">6.37746e-12</wgt>
  <wgt id="133">6.73347e-12</wgt>
  <wgt id="134">6.47419e-12</wgt>
  <wgt id="135">6.59297e-12</wgt>
  <wgt id="136">6.61871e-12</wgt>
  <wgt id="137">6.4468e-12</wgt>
  <wgt id="138">6.77698e-12</wgt>
  <wgt id="139">6.31154e-12</wgt>
  <wgt id="140">6.49581e-12</wgt>
  <wgt id="141">6.57635e-12</wgt>
  <wgt id="142">6.54207e-12</wgt>
  <wgt id="143">6.54829e-12</wgt>
  <wgt id="144">6.38707e-12</wgt>
  <wgt id="145">6.68144e-12</wgt>
  <wgt id="146">6.58971e-12</wgt>
  <wgt id="147">6.50303e-12</wgt>
  <wgt id="148">6.55938e-12</wgt>
  <wgt id="149">6.53962e-12</wgt>
  <wgt id="150">6.59582e-12</wgt>
  <wgt id="151">6.51529e-12</wgt>
  <wgt id="152">6.54353e-12</wgt>
  <wgt id="153">6.54006e-12</wgt>
  <wgt id="154">6.6003e-12</wgt>
  <wgt id="155">6.47176e-12</wgt>
  <wgt id="156">6.64314e-12</wgt>
  <wgt id="157">6.4249e-12</wgt>
  <wgt id="158">7.87266e-12</wgt>
  <wgt id="159">7.90517e-12</wgt>
  <wgt id="160">7.84625e-12</wgt>
  <wgt id="161">7.85417e-12</wgt>
  <wgt id="162">7.89297e-12</wgt>
  <wgt id="163">7.86483e-12</wgt>
  <wgt id="164">7.88434e-12</wgt>
  <wgt id="165">7.87574e-12</wgt>
  <wgt id="166">7.87035e-12</wgt>
  <wgt id="167">7.86686e-12</wgt>
  <wgt id="168">7.88077e-12</wgt>
  <wgt id="169">7.83871e-12</wgt>
  <wgt id="170">7.89392e-12</wgt>
  <wgt id="171">7.8645e-12</wgt>
  <wgt id="172">7.88414e-12</wgt>
  <wgt id="173">7.87439e-12</wgt>
  <wgt id="174">7.87171e-12</wgt>
  <wgt id="175">7.66185e-12</wgt>
  <wgt id="176">8.14628e-12</wgt>
  <wgt id="177">7.91182e-12</wgt>
  <wgt id="178">7.83615e-12</wgt>
  <wgt id="179">8.1761e-12</wgt>
  <wgt id="180">7.39049e-12</wgt>
  <wgt id="181">7.65927e-12</wgt>
  <wgt id="182">8.01308e-12</wgt>
  <wgt id="183">7.7419e-12</wgt>
  <wgt id="184">7.93747e-12</wgt>
  <wgt id="185">7.81352e-12</wgt>
  <wgt id="186">7.94211e-12</wgt>
  <wgt id="187">7.80569e-12</wgt>
  <wgt id="188">7.99343e-12</wgt>
  <wgt id="189">7.82642e-12</wgt>
  <wgt id="190">7.89163e-12</wgt>
  <wgt id="191">7.89225e-12</wgt>
  <wgt id="192">7.86105e-12</wgt>
  <wgt id="193">7.9754e-12</wgt>
  <wgt id="194">7.82179e-12</wgt>
  <wgt id="195">7.71808e-12</wgt>
  <wgt id="196">8.16786e-12</wgt>
  <wgt id="197">7.90939e-12</wgt>
  <wgt id="198">7.86382e-12</wgt>
  <wgt id="199">7.87266e-12</wgt>
  <wgt id="200">7.93623e-12</wgt>
  <wgt id="201">7.91247e-12</wgt>
  <wgt id="202">7.88977e-12</wgt>
  <wgt id="203">7.85498e-12</wgt>
  <wgt id="204">7.83868e-12</wgt>
  <wgt id="205">7.8251e-12</wgt>
  <wgt id="206">7.66776e-12</wgt>
  <wgt id="207">7.71195e-12</wgt>
  <wgt id="208">7.62402e-12</wgt>
  <wgt id="209">7.68839e-12</wgt>
  <wgt id="210">7.65257e-12</wgt>
  <wgt id="211">7.66552e-12</wgt>
  <wgt id="212">7.66951e-12</wgt>
  <wgt id="213">7.66704e-12</wgt>
  <wgt id="214">7.66884e-12</wgt>
  <wgt id="215">7.67264e-12</wgt>
  <wgt id="216">7.6642e-12</wgt>
  <wgt id="217">7.68877e-12</wgt>
  <wgt id="218">7.65153e-12</wgt>
  <wgt id="219">7.65799e-12</wgt>
  <wgt id="220">7.67361e-12</wgt>
  <wgt id="221">7.66379e-12</wgt>
  <wgt id="222">7.67703e-12</wgt>
  <wgt id="223">7.28357e-12</wgt>
  <wgt id="224">8.01632e-12</wgt>
  <wgt id="225">7.5822e-12</wgt>
  <wgt id="226">7.7748e-12</wgt>
  <wgt id="227">7.59899e-12</wgt>
  <wgt id="228">7.69793e-12</wgt>
  <wgt id="229">7.56619e-12</wgt>
  <wgt id="230">7.71821e-12</wgt>
  <wgt id="231">7.87253e-12</wgt>
  <wgt id="232">7.49888e-12</wgt>
  <wgt id="233">7.63084e-12</wgt>
  <wgt id="234">7.72349e-12</wgt>
  <wgt id="235">7.55175e-12</wgt>
  <wgt id="236">7.78608e-12</wgt>
  <wgt id="237">7.58211e-12</wgt>
  <wgt id="238">7.69736e-12</wgt>
  <wgt id="239">7.62929e-12</wgt>
  <wgt id="240">7.73782e-12</wgt>
  <wgt id="241">7.59621e-12</wgt>
  <wgt id="242">7.75374e-12</wgt>
  <wgt id="243">7.73855e-12</wgt>
  <wgt id="244">7.72048e-12</wgt>
  <wgt id="245">7.66111e-12</wgt>
  <wgt id="246">7.72817e-12</wgt>
  <wgt id="247">7.66776e-12</wgt>
  <wgt id="248">7.72995e-12</wgt>
  <wgt id="249">7.70576e-12</wgt>
  <wgt id="250">7.68363e-12</wgt>
  <wgt id="251">7.64974e-12</wgt>
  <wgt id="252">7.63407e-12</wgt>
  <wgt id="253">7.6224e-12</wgt>
  <wgt id="254">7.51517e-12</wgt>
  <wgt id="255">7.5225e-12</wgt>
  <wgt id="256">7.50736e-12</wgt>
  <wgt id="257">7.52111e-12</wgt>
  <wgt id="258">7.51081e-12</wgt>
  <wgt id="259">7.56512e-12</wgt>
  <wgt id="260">7.46712e-12</wgt>
  <wgt id="261">7.52326e-12</wgt>
  <wgt id="262">7.5057e-12</wgt>
  <wgt id="263">7.51264e-12</wgt>
  <wgt id="264">7.5181e-12</wgt>
  <wgt id="265">7.50747e-12</wgt>
  <wgt id="266">7.53045e-12</wgt>
  <wgt id="267">7.5175e-12</wgt>
  <wgt id="268">7.51219e-12</wgt>
  <wgt id="269">7.53707e-12</wgt>
  <wgt id="270">7.50035e-12</wgt>
  <wgt id="271">7.50316e-12</wgt>
  <wgt id="272">7.5286e-12</wgt>
  <wgt id="273">7.49293e-12</wgt>
  <wgt id="274">7.53232e-12</wgt>
  <wgt id="275">7.48806e-12</wgt>
  <wgt id="276">7.54318e-12</wgt>
  <wgt id="277">7.4746e-12</wgt>
  <wgt id="278">7.55262e-12</wgt>
  <wgt id="279">7.37903e-12</wgt>
  <wgt id="280">7.68547e-12</wgt>
  <wgt id="281">7.48486e-12</wgt>
  <wgt id="282">7.51544e-12</wgt>
  <wgt id="283">7.31721e-12</wgt>
  <wgt id="284">7.7579e-12</wgt>
  <wgt id="285">7.18445e-12</wgt>
  <wgt id="286">7.78646e-12</wgt>
  <wgt id="287">7.53695e-12</wgt>
  <wgt id="288">7.48733e-12</wgt>
  <wgt id="289">7.56336e-12</wgt>
  <wgt id="290">7.40084e-12</wgt>
  <wgt id="291">7.49836e-12</wgt>
  <wgt id="292">7.5194e-12</wgt>
  <wgt id="293">7.46233e-12</wgt>
  <wgt id="294">7.56764e-12</wgt>
  <wgt id="295">7.38359e-12</wgt>
  <wgt id="296">7.67537e-12</wgt>
  <wgt id="297">7.52001e-12</wgt>
  <wgt id="298">7.53747e-12</wgt>
  <wgt id="299">7.49315e-12</wgt>
  <wgt id="300">7.57334e-12</wgt>
  <wgt id="301">7.43828e-12</wgt>
  <wgt id="302">7.72965e-12</wgt>
  <wgt id="303">7.47032e-12</wgt>
  <wgt id="304">7.54156e-12</wgt>
  <wgt id="305">7.55887e-12</wgt>
  <wgt id="306">7.56672e-12</wgt>
  <wgt id="307">7.55074e-12</wgt>
  <wgt id="308">7.56555e-12</wgt>
  <wgt id="309">7.55449e-12</wgt>
  <wgt id="310">7.6109e-12</wgt>
  <wgt id="311">7.51079e-12</wgt>
  <wgt id="312">7.56465e-12</wgt>
  <wgt id="313">7.55352e-12</wgt>
  <wgt id="314">7.55656e-12</wgt>
  <wgt id="315">7.56139e-12</wgt>
  <wgt id="316">7.55173e-12</wgt>
  <wgt id="317">7.57487e-12</wgt>
  <wgt id="318">7.56392e-12</wgt>
  <wgt id="319">7.5507e-12</wgt>
  <wgt id="320">7.58169e-12</wgt>
  <wgt id="321">7.54637e-12</wgt>
  <wgt id="322">7.54278e-12</wgt>
  <wgt id="323">7.57809e-12</wgt>
  <wgt id="324">7.54034e-12</wgt>
  <wgt id="325">7.57534e-12</wgt>
  <wgt id="326">7.53715e-12</wgt>
  <wgt id="327">7.58691e-12</wgt>
  <wgt id="328">7.52182e-12</wgt>
  <wgt id="329">7.58039e-12</wgt>
  <wgt id="330">7.77117e-12</wgt>
  <wgt id="331">7.35599e-12</wgt>
  <wgt id="332">7.53394e-12</wgt>
  <wgt id="333">7.55829e-12</wgt>
  <wgt id="334">7.40226e-12</wgt>
  <wgt id="335">7.75274e-12</wgt>
  <wgt id="336">7.31742e-12</wgt>
  <wgt id="337">7.85053e-12</wgt>
  <wgt id="338">7.63625e-12</wgt>
  <wgt id="339">7.48713e-12</wgt>
  <wgt id="340">7.60518e-12</wgt>
  <wgt id="341">7.43835e-12</wgt>
  <wgt id="342">7.54764e-12</wgt>
  <wgt id="343">7.55262e-12</wgt>
  <wgt id="344">7.51035e-12</wgt>
  <wgt id="345">7.61529e-12</wgt>
  <wgt id="346">7.42167e-12</wgt>
  <wgt id="347">7.71694e-12</wgt>
  <wgt id="348">7.56776e-12</wgt>
  <wgt id="349">7.57586e-12</wgt>
  <wgt id="350">7.53091e-12</wgt>
  <wgt id="351">7.63016e-12</wgt>
  <wgt id="352">7.47203e-12</wgt>
  <wgt id="353">7.78783e-12</wgt>
  <wgt id="354">7.4892e-12</wgt>
  <wgt id="355">7.60273e-12</wgt>
  <wgt id="356">7.51517e-12</wgt>
  <wgt id="357">7.5958e-12</wgt>
  <wgt id="358">7.55887e-12</wgt>
  <wgt id="359">7.54738e-12</wgt>
  <wgt id="360">7.54537e-12</wgt>
  <wgt id="361">7.53439e-12</wgt>
  <wgt id="362">7.65383e-12</wgt>
  <wgt id="363">7.63689e-12</wgt>
  <wgt id="364">7.61457e-12</wgt>
  <wgt id="365">7.59105e-12</wgt>
  <wgt id="366">7.56414e-12</wgt>
  <wgt id="367">7.50742e-12</wgt>
  <wgt id="368">7.4769e-12</wgt>
  <wgt id="369">7.44414e-12</wgt>
  <wgt id="370">7.53439e-12</wgt>
  <wgt id="371">7.5677e-12</wgt>
  <wgt id="372">7.54935e-12</wgt>
  <wgt id="373">7.52204e-12</wgt>
  <wgt id="374">7.5172e-12</wgt>
  <wgt id="375">7.93299e-12</wgt>
  <wgt id="376">7.93396e-12</wgt>
  <wgt id="377">7.93178e-12</wgt>
  <wgt id="378">7.96123e-12</wgt>
  <wgt id="379">7.90484e-12</wgt>
  <wgt id="380">7.95447e-12</wgt>
  <wgt id="381">7.92433e-12</wgt>
  <wgt id="382">7.9713e-12</wgt>
  <wgt id="383">7.89504e-12</wgt>
  <wgt id="384">7.93812e-12</wgt>
  <wgt id="385">7.92806e-12</wgt>
  <wgt id="386">7.96247e-12</wgt>
  <wgt id="387">7.92013e-12</wgt>
  <wgt id="388">7.92588e-12</wgt>
  <wgt id="389">7.94154e-12</wgt>
  <wgt id="390">7.95334e-12</wgt>
  <wgt id="391">7.9115e-12</wgt>
  <wgt id="392">7.88009e-12</wgt>
  <wgt id="393">7.96292e-12</wgt>
  <wgt id="394">7.9444e-12</wgt>
  <wgt id="395">7.9172e-12</wgt>
  <wgt id="396">7.93459e-12</wgt>
  <wgt id="397">7.93179e-12</wgt>
  <wgt id="398">7.90068e-12</wgt>
  <wgt id="399">7.96413e-12</wgt>
  <wgt id="400">7.92072e-12</wgt>
  <wgt id="401">7.96017e-12</wgt>
  <wgt id="402">7.87434e-12</wgt>
  <wgt id="403">7.95611e-12</wgt>
  <wgt id="404">8.0979e-12</wgt>
  <wgt id="405">7.53357e-12</wgt>
  <wgt id="406">7.8142e-12</wgt>
  <wgt id="407">8.18855e-12</wgt>
  <wgt id="408">7.99391e-12</wgt>
  <wgt id="409">7.81541e-12</wgt>
  <wgt id="410">7.73681e-12</wgt>
  <wgt id="411">8.02222e-12</wgt>
  <wgt id="412">7.92062e-12</wgt>
  <wgt id="413">7.94996e-12</wgt>
  <wgt id="414">7.85472e-12</wgt>
  <wgt id="415">7.99365e-12</wgt>
  <wgt id="416">8.11508e-12</wgt>
  <wgt id="417">7.68069e-12</wgt>
  <wgt id="418">7.94234e-12</wgt>
  <wgt id="419">7.8826e-12</wgt>
  <wgt id="420">8.01822e-12</wgt>
  <wgt id="421">7.89041e-12</wgt>
  <wgt id="422">7.93265e-12</wgt>
  <wgt id="423">7.93529e-12</wgt>
  <wgt id="424">8.06108e-12</wgt>
  <wgt id="425">7.85577e-12</wgt>
  <wgt id="426">7.93299e-12</wgt>
  <wgt id="427">7.8824e-12</wgt>
  <wgt id="428">8.09484e-12</wgt>
  <wgt id="429">7.99096e-12</wgt>
  <wgt id="430">8.19583e-12</wgt>
  <wgt id="431">8.15519e-12</wgt>
  <wgt id="432">8.11623e-12</wgt>
  <wgt id="433">8.07844e-12</wgt>
  <wgt id="434">8.03354e-12</wgt>
  <wgt id="435">7.93754e-12</wgt>
  <wgt id="436">7.88774e-12</wgt>
  <wgt id="437">7.84078e-12</wgt>
  <wgt id="438">7.99096e-12</wgt>
  <wgt id="439">8.01726e-12</wgt>
  <wgt id="440">8.00203e-12</wgt>
  <wgt id="441">7.98252e-12</wgt>
  <wgt id="442">7.9753e-12</wgt>
  <wgt id="443">7.83266e-12</wgt>
  <wgt id="444">7.86564e-12</wgt>
  <wgt id="445">7.80269e-12</wgt>
  <wgt id="446">7.78644e-12</wgt>
  <wgt id="447">7.80604e-12</wgt>
  <wgt id="448">7.64309e-12</wgt>
  <wgt id="449">7.94077e-12</wgt>
  <wgt id="450">7.79784e-12</wgt>
  <wgt id="451">7.8224e-12</wgt>
  <wgt id="452">7.98852e-12</wgt>
  <wgt id="453">7.89172e-12</wgt>
  <wgt id="454">7.54286e-12</wgt>
  <wgt id="455">7.84087e-12</wgt>
  <wgt id="456">7.71349e-12</wgt>
  <wgt id="457">7.85985e-12</wgt>
  <wgt id="458">7.91227e-12</wgt>
  <wgt id="459">7.87891e-12</wgt>
  <wgt id="460">7.87175e-12</wgt>
  <wgt id="461">7.7128e-12</wgt>
  <wgt id="462">7.77964e-12</wgt>
  <wgt id="463">7.76057e-12</wgt>
  <wgt id="464">7.79699e-12</wgt>
  <wgt id="465">7.90067e-12</wgt>
  <wgt id="466">7.75842e-12</wgt>
  <wgt id="467">7.76869e-12</wgt>
  <wgt id="468">7.81438e-12</wgt>
  <wgt id="469">7.81543e-12</wgt>
  <wgt id="470">7.77155e-12</wgt>
  <wgt id="471">7.77573e-12</wgt>
  <wgt id="472">7.8624e-12</wgt>
  <wgt id="473">7.62097e-12</wgt>
  <wgt id="474">5.79e-12</wgt>
  <wgt id="475">6.15666e-12</wgt>
  <wgt id="476">5.67832e-12</wgt>
  <wgt id="477">5.68797e-12</wgt>
  <wgt id="478">5.82282e-12</wgt>
  <wgt id="479">5.7243e-12</wgt>
  <wgt id="480">5.95937e-12</wgt>
  <wgt id="481">5.64013e-12</wgt>
  <wgt id="482">5.55569e-12</wgt>
  <wgt id="483">5.64384e-12</wgt>
  <wgt id="484">6.21107e-12</wgt>
  <wgt id="485">5.81305e-12</wgt>
  <wgt id="486">5.87508e-12</wgt>
  <wgt id="487">5.87105e-12</wgt>
  <wgt id="488">5.8561e-12</wgt>
  <wgt id="489">5.58659e-12</wgt>
  <wgt id="490">5.62768e-12</wgt>
  <wgt id="491">5.72807e-12</wgt>
  <wgt id="492">5.6107e-12</wgt>
  <wgt id="493">5.59854e-12</wgt>
  <wgt id="494">5.62055e-12</wgt>
  <wgt id="495">5.88784e-12</wgt>
  <wgt id="496">5.59398e-12</wgt>
  <wgt id="497">5.59041e-12</wgt>
  <wgt id="498">5.85336e-12</wgt>
  <wgt id="499">5.64208e-12</wgt>
  <wgt id="500">5.68854e-12</wgt>
  <wgt id="501">6.03072e-12</wgt>
  <wgt id="502">5.62909e-12</wgt>
  <wgt id="503">5.76905e-12</wgt>
  <wgt id="504">5.78769e-12</wgt>
  <wgt id="505">5.8668e-12</wgt>
  <wgt id="506">5.86722e-12</wgt>
  <wgt id="507">5.72246e-12</wgt>
  <wgt id="508">5.88052e-12</wgt>
  <wgt id="509">5.76743e-12</wgt>
  <wgt id="510">5.91861e-12</wgt>
  <wgt id="511">5.66724e-12</wgt>
  <wgt id="512">5.85069e-12</wgt>
  <wgt id="513">5.98752e-12</wgt>
  <wgt id="514">5.73997e-12</wgt>
  <wgt id="515">5.71905e-12</wgt>
  <wgt id="516">5.93485e-12</wgt>
  <wgt id="517">5.91833e-12</wgt>
  <wgt id="518">5.94099e-12</wgt>
  <wgt id="519">5.66229e-12</wgt>
  <wgt id="520">5.81101e-12</wgt>
  <wgt id="521">6.00109e-12</wgt>
  <wgt id="522">6.00279e-12</wgt>
  <wgt id="523">5.90526e-12</wgt>
  <wgt id="524">5.9059e-12</wgt>
  <wgt id="525">5.92569e-12</wgt>
  <wgt id="526">5.77749e-12</wgt>
  <wgt id="527">5.8986e-12</wgt>
  <wgt id="528">5.78098e-12</wgt>
  <wgt id="529">5.72297e-12</wgt>
  <wgt id="530">5.81616e-12</wgt>
  <wgt id="531">5.71552e-12</wgt>
  <wgt id="532">6.08292e-12</wgt>
  <wgt id="533">5.44446e-12</wgt>
  <wgt id="534">5.79537e-12</wgt>
  <wgt id="535">5.88476e-12</wgt>
  <wgt id="536">5.80247e-12</wgt>
  <wgt id="537">5.81116e-12</wgt>
  <wgt id="538">5.89184e-12</wgt>
  <wgt id="539">5.65759e-12</wgt>
  <wgt id="540">5.73691e-12</wgt>
  <wgt id="541">5.70579e-12</wgt>
  <wgt id="542">5.65886e-12</wgt>
  <wgt id="543">5.78004e-12</wgt>
  <wgt id="544">6.06826e-12</wgt>
  <wgt id="545">5.71452e-12</wgt>
  <wgt id="546">5.73575e-12</wgt>
  <wgt id="547">5.61989e-12</wgt>
  <wgt id="548">5.5561e-12</wgt>
  <wgt id="549">5.7045e-12</wgt>
  <wgt id="550">5.82676e-12</wgt>
  <wgt id="551">5.86007e-12</wgt>
  <wgt id="552">5.7389e-12</wgt>
  <wgt id="553">5.77752e-12</wgt>
  <wgt id="554">6.22058e-12</wgt>
  <wgt id="555">5.95142e-12</wgt>
  <wgt id="556">5.62768e-12</wgt>
  <wgt id="557">5.87321e-12</wgt>
  <wgt id="558">5.60225e-12</wgt>
  <wgt id="559">5.72354e-12</wgt>
  <wgt id="560">6.238e-12</wgt>
  <wgt id="561">5.65209e-12</wgt>
  <wgt id="562">5.85967e-12</wgt>
  <wgt id="563">5.64802e-12</wgt>
  <wgt id="564">5.78264e-12</wgt>
  <wgt id="565">5.61079e-12</wgt>
  <wgt id="566">5.84424e-12</wgt>
  <wgt id="567">5.69992e-12</wgt>
  <wgt id="568">5.79702e-12</wgt>
  <wgt id="569">5.8311e-12</wgt>
  <wgt id="570">5.66332e-12</wgt>
  <wgt id="571">6.39519e-12</wgt>
  <wgt id="572">5.66548e-12</wgt>
  <wgt id="573">5.53309e-12</wgt>
  <wgt id="574">5.58897e-12</wgt>
  <wgt id="575">6.33465e-12</wgt>
  <wgt id="576">6.22633e-12</wgt>
  <wgt id="577">6.56454e-12</wgt>
  <wgt id="578">6.44261e-12</wgt>
  <wgt id="579">6.3868e-12</wgt>
  <wgt id="580">6.42284e-12</wgt>
  <wgt id="581">6.69749e-12</wgt>
  <wgt id="582">6.20777e-12</wgt>
  <wgt id="583">6.39281e-12</wgt>
  <wgt id="584">6.33914e-12</wgt>
  <wgt id="585">6.38442e-12</wgt>
  <wgt id="586">6.19171e-12</wgt>
  <wgt id="587">6.40086e-12</wgt>
  <wgt id="588">6.2915e-12</wgt>
  <wgt id="589">6.39632e-12</wgt>
  <wgt id="590">6.43191e-12</wgt>
  <wgt id="591">6.58643e-12</wgt>
  <wgt id="592">6.22855e-12</wgt>
  <wgt id="593">6.3038e-12</wgt>
  <wgt id="594">6.59985e-12</wgt>
  <wgt id="595">6.28656e-12</wgt>
  <wgt id="596">6.42652e-12</wgt>
  <wgt id="597">6.09782e-12</wgt>
  <wgt id="598">6.29219e-12</wgt>
  <wgt id="599">6.64259e-12</wgt>
  <wgt id="600">6.27379e-12</wgt>
  <wgt id="601">6.15506e-12</wgt>
  <wgt id="602">6.22498e-12</wgt>
  <wgt id="603">6.25882e-12</wgt>
  <wgt id="604">6.41283e-12</wgt>
  <wgt id="605">6.58957e-12</wgt>
  <wgt id="606">6.17453e-12</wgt>
  <wgt id="607">6.24386e-12</wgt>
  <wgt id="608">6.30334e-12</wgt>
  <wgt id="609">5.96148e-12</wgt>
  <wgt id="610">6.08949e-12</wgt>
  <wgt id="611">6.44338e-12</wgt>
  <wgt id="612">6.81023e-12</wgt>
  <wgt id="613">6.34693e-12</wgt>
  <wgt id="614">6.41109e-12</wgt>
  <wgt id="615">6.20847e-12</wgt>
  <wgt id="616">6.75861e-12</wgt>
  <wgt id="617">6.5475e-12</wgt>
  <wgt id="618">6.3153e-12</wgt>
  <wgt id="619">6.30644e-12</wgt>
  <wgt id="620">6.53574e-12</wgt>
  <wgt id="621">6.42896e-12</wgt>
  <wgt id="622">6.40086e-12</wgt>
  <wgt id="623">6.4909e-12</wgt>
  <wgt id="624">6.29057e-12</wgt>
  <wgt id="625">6.264e-12</wgt>
  <wgt id="626">6.20575e-12</wgt>
  <wgt id="627">6.11873e-12</wgt>
  <wgt id="628">6.66688e-12</wgt>
  <wgt id="629">6.20255e-12</wgt>
  <wgt id="630">6.1774e-12</wgt>
  <wgt id="631">6.33112e-12</wgt>
  <wgt id="632">6.16593e-12</wgt>
  <wgt id="633">6.2531e-12</wgt>
  <wgt id="634">6.37513e-12</wgt>
  <wgt id="635">6.29383e-12</wgt>
  <wgt id="636">6.37222e-12</wgt>
  <wgt id="637">6.36187e-12</wgt>
  <wgt id="638">6.12126e-12</wgt>
  <wgt id="639">6.27192e-12</wgt>
  <wgt id="640">6.35139e-12</wgt>
  <wgt id="641">6.34084e-12</wgt>
  <wgt id="642">6.25422e-12</wgt>
  <wgt id="643">6.31598e-12</wgt>
  <wgt id="644">6.13713e-12</wgt>
  <wgt id="645">6.36836e-12</wgt>
  <wgt id="646">6.46846e-12</wgt>
  <wgt id="647">6.22759e-12</wgt>
  <wgt id="648">6.35718e-12</wgt>
  <wgt id="649">6.42924e-12</wgt>
  <wgt id="650">6.22319e-12</wgt>
  <wgt id="651">6.40406e-12</wgt>
  <wgt id="652">6.33096e-12</wgt>
  <wgt id="653">6.17481e-12</wgt>
  <wgt id="654">6.31169e-12</wgt>
  <wgt id="655">6.19583e-12</wgt>
  <wgt id="656">6.31883e-12</wgt>
  <wgt id="657">6.45985e-12</wgt>
  <wgt id="658">6.45057e-12</wgt>
  <wgt id="659">6.11235e-12</wgt>
  <wgt id="660">6.45229e-12</wgt>
  <wgt id="661">6.24562e-12</wgt>
  <wgt id="662">6.30482e-12</wgt>
  <wgt id="663">6.31254e-12</wgt>
  <wgt id="664">6.23118e-12</wgt>
  <wgt id="665">6.3103e-12</wgt>
  <wgt id="666">6.32478e-12</wgt>
  <wgt id="667">6.52927e-12</wgt>
  <wgt id="668">6.29894e-12</wgt>
  <wgt id="669">6.49088e-12</wgt>
  <wgt id="670">6.40037e-12</wgt>
  <wgt id="671">6.22764e-12</wgt>
  <wgt id="672">6.07166e-12</wgt>
  <wgt id="673">6.30489e-12</wgt>
  <wgt id="674">6.20573e-12</wgt>
  <wgt id="675">6.19549e-12</wgt>
  <wgt id="676">7.85406e-12</wgt>
  <wgt id="677">7.96575e-12</wgt>
  <wgt id="678">8.20065e-12</wgt>
  <wgt id="679">7.49538e-12</wgt>
  <wgt id="680">7.57399e-12</wgt>
  <wgt id="681">8.08802e-12</wgt>
  <wgt id="682">7.95731e-12</wgt>
  <wgt id="683">7.79852e-12</wgt>
  <wgt id="684">8.18632e-12</wgt>
  <wgt id="685">7.44807e-12</wgt>
  <wgt id="686">7.90656e-12</wgt>
  <wgt id="687">8.18868e-12</wgt>
  <wgt id="688">7.81179e-12</wgt>
  <wgt id="689">8.39154e-12</wgt>
  <wgt id="690">8.29688e-12</wgt>
  <wgt id="691">8.26456e-12</wgt>
  <wgt id="692">7.8341e-12</wgt>
  <wgt id="693">8.99141e-12</wgt>
  <wgt id="694">8.2838e-12</wgt>
  <wgt id="695">7.60139e-12</wgt>
  <wgt id="696">7.49663e-12</wgt>
  <wgt id="697">7.61524e-12</wgt>
  <wgt id="698">7.40352e-12</wgt>
  <wgt id="699">7.30841e-12</wgt>
  <wgt id="700">7.02225e-12</wgt>
  <wgt id="701">7.86883e-12</wgt>
  <wgt id="702">7.51702e-12</wgt>
  <wgt id="703">8.85271e-12</wgt>
  <wgt id="704">8.4126e-12</wgt>
  <wgt id="705">8.12948e-12</wgt>
  <wgt id="706">7.34597e-12</wgt>
  <wgt id="707">7.56637e-12</wgt>
  <wgt id="708">7.76517e-12</wgt>
  <wgt id="709">7.72902e-12</wgt>
  <wgt id="710">7.0688e-12</wgt>
  <wgt id="711">7.85186e-12</wgt>
  <wgt id="712">7.76214e-12</wgt>
  <wgt id="713">8.36569e-12</wgt>
  <wgt id="714">7.83524e-12</wgt>
  <wgt id="715">7.77665e-12</wgt>
  <wgt id="716">7.57801e-12</wgt>
  <wgt id="717">7.56663e-12</wgt>
  <wgt id="718">7.71065e-12</wgt>
  <wgt id="719">7.21302e-12</wgt>
  <wgt id="720">7.4615e-12</wgt>
  <wgt id="721">7.49171e-12</wgt>
  <wgt id="722">7.14851e-12</wgt>
  <wgt id="723">8.2762e-12</wgt>
  <wgt id="724">8.14831e-12</wgt>
  <wgt id="725">8.29493e-12</wgt>
  <wgt id="726">7.94272e-12</wgt>
  <wgt id="727">7.67867e-12</wgt>
  <wgt id="728">7.79278e-12</wgt>
  <wgt id="729">7.15054e-12</wgt>
  <wgt id="730">8.31375e-12</wgt>
  <wgt id="731">7.78346e-12</wgt>
  <wgt id="732">8.53149e-12</wgt>
  <wgt id="733">7.85102e-12</wgt>
  <wgt id="734">8.03155e-12</wgt>
  <wgt id="735">7.81282e-12</wgt>
  <wgt id="736">7.76454e-12</wgt>
  <wgt id="737">7.98293e-12</wgt>
  <wgt id="738">7.57476e-12</wgt>
  <wgt id="739">7.81522e-12</wgt>
  <wgt id="740">8.65204e-12</wgt>
  <wgt id="741">7.00719e-12</wgt>
  <wgt id="742">7.74289e-12</wgt>
  <wgt id="743">7.64223e-12</wgt>
  <wgt id="744">7.70257e-12</wgt>
  <wgt id="745">8.12748e-12</wgt>
  <wgt id="746">8.21629e-12</wgt>
  <wgt id="747">7.28428e-12</wgt>
  <wgt id="748">7.72711e-12</wgt>
  <wgt id="749">8.29173e-12</wgt>
  <wgt id="750">7.78809e-12</wgt>
  <wgt id="751">8.13869e-12</wgt>
  <wgt id="752">7.28156e-12</wgt>
  <wgt id="753">7.50061e-12</wgt>
  <wgt id="754">8.05809e-12</wgt>
  <wgt id="755">7.90709e-12</wgt>
  <wgt id="756">7.8937e-12</wgt>
  <wgt id="757">7.33266e-12</wgt>
  <wgt id="758">7.95896e-12</wgt>
  <wgt id="759">7.81037e-12</wgt>
  <wgt id="760">8.00561e-12</wgt>
  <wgt id="761">8.26016e-12</wgt>
  <wgt id="762">8.25556e-12</wgt>
  <wgt id="763">7.87932e-12</wgt>
  <wgt id="764">8.11756e-12</wgt>
  <wgt id="765">7.91292e-12</wgt>
  <wgt id="766">7.82339e-12</wgt>
  <wgt id="767">8.02372e-12</wgt>
  <wgt id="768">7.49006e-12</wgt>
  <wgt id="769">8.28472e-12</wgt>
  <wgt id="770">7.64844e-12</wgt>
  <wgt id="771">9.13585e-12</wgt>
  <wgt id="772">7.40064e-12</wgt>
  <wgt id="773">7.82903e-12</wgt>
  <wgt id="774">7.14336e-12</wgt>
  <wgt id="775">8.19325e-12</wgt>
  <wgt id="776">8.55622e-12</wgt>
  <wgt id="777">7.64599e-12</wgt>
  <wgt id="778">5.93188e-12</wgt>
  <wgt id="779">5.10536e-12</wgt>
  <wgt id="780">4.36913e-12</wgt>
  <wgt id="781">5.90792e-12</wgt>
  <wgt id="782">6.2738e-12</wgt>
  <wgt id="783">5.21097e-12</wgt>
  <wgt id="784">5.31718e-12</wgt>
  <wgt id="785">7.05727e-12</wgt>
  <wgt id="786">4.68036e-12</wgt>
  <wgt id="787">6.58675e-12</wgt>
  <wgt id="788">4.06138e-12</wgt>
  <wgt id="789">4.83511e-12</wgt>
  <wgt id="790">4.67497e-12</wgt>
  <wgt id="791">5.50417e-12</wgt>
  <wgt id="792">7.53646e-12</wgt>
  <wgt id="793">5.72848e-12</wgt>
  <wgt id="794">4.78182e-12</wgt>
  <wgt id="795">6.70353e-12</wgt>
  <wgt id="796">7.63615e-12</wgt>
  <wgt id="797">6.68505e-12</wgt>
  <wgt id="798">5.57048e-12</wgt>
  <wgt id="799">6.62526e-12</wgt>
  <wgt id="800">4.88655e-12</wgt>
  <wgt id="801">5.62834e-12</wgt>
  <wgt id="802">4.82896e-12</wgt>
  <wgt id="803">7.65213e-12</wgt>
  <wgt id="804">6.66309e-12</wgt>
  <wgt id="805">6.79072e-12</wgt>
  <wgt id="806">6.69572e-12</wgt>
  <wgt id="807">5.71379e-12</wgt>
  <wgt id="808">5.8068e-12</wgt>
  <wgt id="809">5.49364e-12</wgt>
  <wgt id="810">6.76657e-12</wgt>
  <wgt id="811">6.41594e-12</wgt>
  <wgt id="812">4.74445e-12</wgt>
  <wgt id="813">4.79059e-12</wgt>
  <wgt id="814">5.02877e-12</wgt>
  <wgt id="815">5.12577e-12</wgt>
  <wgt id="816">4.57616e-12</wgt>
  <wgt id="817">6.25155e-12</wgt>
  <wgt id="818">5.7477e-12</wgt>
  <wgt id="819">5.12957e-12</wgt>
  <wgt id="820">5.95868e-12</wgt>
  <wgt id="821">6.66942e-12</wgt>
  <wgt id="822">5.18076e-12</wgt>
  <wgt id="823">6.67359e-12</wgt>
  <wgt id="824">7.81384e-12</wgt>
  <wgt id="825">4.60427e-12</wgt>
  <wgt id="826">6.11772e-12</wgt>
  <wgt id="827">3.90337e-12</wgt>
  <wgt id="828">7.56896e-12</wgt>
  <wgt id="829">6.09894e-12</wgt>
  <wgt id="830">4.38372e-12</wgt>
  <wgt id="831">6.29178e-12</wgt>
  <wgt id="832">9.37495e-12</wgt>
  <wgt id="833">5.65949e-12</wgt>
  <wgt id="834">8.79202e-12</wgt>
  <wgt id="835">4.90267e-12</wgt>
  <wgt id="836">5.98718e-12</wgt>
  <wgt id="837">6.58917e-12</wgt>
  <wgt id="838">5.70603e-12</wgt>
  <wgt id="839">6.26836e-12</wgt>
  <wgt id="840">5.66088e-12</wgt>
  <wgt id="841">7.03049e-12</wgt>
  <wgt id="842">5.48402e-12</wgt>
  <wgt id="843">5.75025e-12</wgt>
  <wgt id="844">6.11104e-12</wgt>
  <wgt id="845">7.91844e-12</wgt>
  <wgt id="846">5.48966e-12</wgt>
  <wgt id="847">5.8484e-12</wgt>
  <wgt id="848">5.32378e-12</wgt>
  <wgt id="849">6.0518e-12</wgt>
  <wgt id="850">7.44019e-12</wgt>
  <wgt id="851">6.42799e-12</wgt>
  <wgt id="852">5.25724e-12</wgt>
  <wgt id="853">6.38518e-12</wgt>
  <wgt id="854">7.04922e-12</wgt>
  <wgt id="855">6.67308e-12</wgt>
  <wgt id="856">4.49306e-12</wgt>
  <wgt id="857">6.01028e-12</wgt>
  <wgt id="858">5.8892e-12</wgt>
  <wgt id="859">5.54958e-12</wgt>
  <wgt id="860">6.19719e-12</wgt>
  <wgt id="861">5.38744e-12</wgt>
  <wgt id="862">6.01723e-12</wgt>
  <wgt id="863">6.17053e-12</wgt>
  <wgt id="864">6.20636e-12</wgt>
  <wgt id="865">8.15394e-12</wgt>
  <wgt id="866">8.9146e-12</wgt>
  <wgt id="867">5.95978e-12</wgt>
  <wgt id="868">5.82192e-12</wgt>
  <wgt id="869">4.78378e-12</wgt>
  <wgt id="870">5.0271e-12</wgt>
  <wgt id="871">4.89397e-12</wgt>
  <wgt id="872">6.8365e-12</wgt>
  <wgt id="873">4.99824e-12</wgt>
  <wgt id="874">6.15636e-12</wgt>
  <wgt id="875">5.21778e-12</wgt>
  <wgt id="876">6.84757e-12</wgt>
  <wgt id="877">6.63565e-12</wgt>
  <wgt id="878">5.27126e-12</wgt>
  <wgt id="879">7.85406e-12</wgt>
  <wgt id="880">7.96575e-12</wgt>
  <wgt id="881">8.20065e-12</wgt>
  <wgt id="882">7.49538e-12</wgt>
  <wgt id="883">7.57399e-12</wgt>
  <wgt id="884">8.08802e-12</wgt>
  <wgt id="885">7.95731e-12</wgt>
  <wgt id="886">7.79852e-12</wgt>
  <wgt id="887">8.18632e-12</wgt>
  <wgt id="888">7.44807e-12</wgt>
  <wgt id="889">7.90656e-12</wgt>
  <wgt id="890">8.18868e-12</wgt>
  <wgt id="891">7.81179e-12</wgt>
  <wgt id="892">8.39154e-12</wgt>
  <wgt id="893">8.29688e-12</wgt>
  <wgt id="894">8.26456e-12</wgt>
  <wgt id="895">7.8341e-12</wgt>
  <wgt id="896">8.99141e-12</wgt>
  <wgt id="897">8.2838e-12</wgt>
  <wgt id="898">7.60139e-12</wgt>
  <wgt id="899">7.49663e-12</wgt>
  <wgt id="900">7.61524e-12</wgt>
  <wgt id="901">7.40352e-12</wgt>
  <wgt id="902">7.30841e-12</wgt>
  <wgt id="903">7.02225e-12</wgt>
  <wgt id="904">7.86883e-12</wgt>
  <wgt id="905">7.51702e-12</wgt>
  <wgt id="906">8.85271e-12</wgt>
  <wgt id="907">8.4126e-12</wgt>
  <wgt id="908">8.12948e-12</wgt>
  <wgt id="909">7.34597e-12</wgt>
  <wgt id="910">7.56637e-12</wgt>
  <wgt id="911">7.76517e-12</wgt>
  <wgt id="912">7.72902e-12</wgt>
  <wgt id="913">7.0688e-12</wgt>
  <wgt id="914">7.85186e-12</wgt>
  <wgt id="915">7.76214e-12</wgt>
  <wgt id="916">8.36569e-12</wgt>
  <wgt id="917">7.83524e-12</wgt>
  <wgt id="918">7.77665e-12</wgt>
  <wgt id="919">7.57801e-12</wgt>
  <wgt id="920">7.56663e-12</wgt>
  <wgt id="921">7.71065e-12</wgt>
  <wgt id="922">7.21302e-12</wgt>
  <wgt id="923">7.4615e-12</wgt>
  <wgt id="924">7.49171e-12</wgt>
  <wgt id="925">7.14851e-12</wgt>
  <wgt id="926">8.2762e-12</wgt>
  <wgt id="927">8.14831e-12</wgt>
  <wgt id="928">8.29493e-12</wgt>
  <wgt id="929">7.94272e-12</wgt>
  <wgt id="930">7.67867e-12</wgt>
  <wgt id="931">7.79278e-12</wgt>
  <wgt id="932">7.15054e-12</wgt>
  <wgt id="933">8.31375e-12</wgt>
  <wgt id="934">7.78346e-12</wgt>
  <wgt id="935">8.53149e-12</wgt>
  <wgt id="936">7.85102e-12</wgt>
  <wgt id="937">8.03155e-12</wgt>
  <wgt id="938">7.81282e-12</wgt>
  <wgt id="939">7.76454e-12</wgt>
  <wgt id="940">7.98293e-12</wgt>
  <wgt id="941">7.57476e-12</wgt>
  <wgt id="942">7.81522e-12</wgt>
  <wgt id="943">8.65204e-12</wgt>
  <wgt id="944">7.00719e-12</wgt>
  <wgt id="945">7.74289e-12</wgt>
  <wgt id="946">7.64223e-12</wgt>
  <wgt id="947">7.70257e-12</wgt>
  <wgt id="948">8.12748e-12</wgt>
  <wgt id="949">8.21629e-12</wgt>
  <wgt id="950">7.28428e-12</wgt>
  <wgt id="951">7.72711e-12</wgt>
  <wgt id="952">8.29173e-12</wgt>
  <wgt id="953">7.78809e-12</wgt>
  <wgt id="954">8.13869e-12</wgt>
  <wgt id="955">7.28156e-12</wgt>
  <wgt id="956">7.50061e-12</wgt>
  <wgt id="957">8.05809e-12</wgt>
  <wgt id="958">7.90709e-12</wgt>
  <wgt id="959">7.8937e-12</wgt>
  <wgt id="960">7.33266e-12</wgt>
  <wgt id="961">7.95896e-12</wgt>
  <wgt id="962">7.81037e-12</wgt>
  <wgt id="963">8.00561e-12</wgt>
  <wgt id="964">8.26016e-12</wgt>
  <wgt id="965">8.25556e-12</wgt>
  <wgt id="966">7.87932e-12</wgt>
  <wgt id="967">8.11756e-12</wgt>
  <wgt id="968">7.91292e-12</wgt>
  <wgt id="969">7.82339e-12</wgt>
  <wgt id="970">8.02372e-12</wgt>
  <wgt id="971">7.49006e-12</wgt>
  <wgt id="972">8.28472e-12</wgt>
  <wgt id="973">7.64844e-12</wgt>
  <wgt id="974">9.13585e-12</wgt>
  <wgt id="975">7.40064e-12</wgt>
  <wgt id="976">7.82903e-12</wgt>
  <wgt id="977">7.14336e-12</wgt>
  <wgt id="978">8.19325e-12</wgt>
  <wgt id="979">8.55622e-12</wgt>
  <wgt id="980">7.87195e-12</wgt>
  <wgt id="981">7.87678e-12</wgt>
  <wgt id="982">7.64028e-12</wgt>
</rwgt>
</event>
<event>
 5   1  0.5790000E-11  0.2189123E+04  0.7818608E-02  0.7752978E-01
       21   -1    0    0  502  501  0.00000000000E+00  0.00000000000E+00  0.84720070568E+03  0.84720070568E+03  0.00000000000E+00 0.  1.
       21   -1    0    0  501  502 -0.00000000000E+00 -0.00000000000E+00 -0.14141452465E+04  0.14141452465E+04  0.00000000000E+00 0. -1.
       39    2    1    2    0    0  0.00000000000E+00  0.00000000000E+00 -0.56694454084E+03  0.22613459522E+04  0.21891229758E+04 0.  0.
       25    1    3    3    0    0  0.47100099494E+03  0.92277159061E+03  0.57713040537E+02  0.10451340300E+04  0.12500000000E+03 0.  0.
       25    1    3    3    0    0 -0.47100099494E+03 -0.92277159061E+03 -0.62465758138E+03  0.12162119222E+04  0.12500000000E+03 0.  0.
<mgrwt>
<rscale>  0 0.21891230E+04</rscale>
<asrwt>0</asrwt>
<pdfrwt beam="1">  1       21 0.13033857E+00 0.21891230E+04</pdfrwt>
<pdfrwt beam="2">  1       21 0.21756081E+00 0.21891230E+04</pdfrwt>
<totfact> 0.17853818E+01</totfact>
</mgrwt>
<rwgt>
  <wgt id="1">5.79e-12</wgt>
  <wgt id="2">5.05269e-12</wgt>
  <wgt id="3">6.70278e-12</wgt>
  <wgt id="4">5.79e-12</wgt>
  <wgt id="5">5.05269e-12</wgt>
  <wgt id="6">6.70278e-12</wgt>
  <wgt id="7">5.79e-12</wgt>
  <wgt id="8">5.05269e-12</wgt>
  <wgt id="9">6.70278e-12</wgt>
  <wgt id="10">5.97266e-12</wgt>
  <wgt id="11">5.96783e-12</wgt>
  <wgt id="12">5.96225e-12</wgt>
  <wgt id="13">5.95301e-12</wgt>
  <wgt id="14">5.99407e-12</wgt>
  <wgt id="15">5.98211e-12</wgt>
  <wgt id="16">5.96186e-12</wgt>
  <wgt id="17">5.98622e-12</wgt>
  <wgt id="18">5.96399e-12</wgt>
  <wgt id="19">5.98489e-12</wgt>
  <wgt id="20">5.95647e-12</wgt>
  <wgt id="21">5.93638e-12</wgt>
  <wgt id="22">5.94935e-12</wgt>
  <wgt id="23">5.91776e-12</wgt>
  <wgt id="24">5.94379e-12</wgt>
  <wgt id="25">5.95763e-12</wgt>
  <wgt id="26">5.99464e-12</wgt>
  <wgt id="27">5.97099e-12</wgt>
  <wgt id="28">5.9439e-12</wgt>
  <wgt id="29">5.97764e-12</wgt>
  <wgt id="30">5.95236e-12</wgt>
  <wgt id="31">5.9913e-12</wgt>
  <wgt id="32">5.95779e-12</wgt>
  <wgt id="33">5.98513e-12</wgt>
  <wgt id="34">5.95224e-12</wgt>
  <wgt id="35">5.96281e-12</wgt>
  <wgt id="36">5.98899e-12</wgt>
  <wgt id="37">5.95713e-12</wgt>
  <wgt id="38">5.95705e-12</wgt>
  <wgt id="39">6.03804e-12</wgt>
  <wgt id="40">5.9839e-12</wgt>
  <wgt id="41">5.97067e-12</wgt>
  <wgt id="42">5.98702e-12</wgt>
  <wgt id="43">5.97466e-12</wgt>
  <wgt id="44">5.95713e-12</wgt>
  <wgt id="45">5.98249e-12</wgt>
  <wgt id="46">5.97698e-12</wgt>
  <wgt id="47">5.95682e-12</wgt>
  <wgt id="48">5.97264e-12</wgt>
  <wgt id="49">5.97999e-12</wgt>
  <wgt id="50">5.99636e-12</wgt>
  <wgt id="51">5.98942e-12</wgt>
  <wgt id="52">5.96473e-12</wgt>
  <wgt id="53">5.94015e-12</wgt>
  <wgt id="54">5.96397e-12</wgt>
  <wgt id="55">5.97148e-12</wgt>
  <wgt id="56">5.99476e-12</wgt>
  <wgt id="57">5.99079e-12</wgt>
  <wgt id="58">5.93854e-12</wgt>
  <wgt id="59">5.95504e-12</wgt>
  <wgt id="60">5.97721e-12</wgt>
  <wgt id="61">5.95514e-12</wgt>
  <wgt id="62">5.96419e-12</wgt>
  <wgt id="63">5.9732e-12</wgt>
  <wgt id="64">5.978e-12</wgt>
  <wgt id="65">5.98083e-12</wgt>
  <wgt id="66">5.96539e-12</wgt>
  <wgt id="67">5.95527e-12</wgt>
  <wgt id="68">5.96808e-12</wgt>
  <wgt id="69">5.97319e-12</wgt>
  <wgt id="70">5.97168e-12</wgt>
  <wgt id="71">5.97115e-12</wgt>
  <wgt id="72">5.96324e-12</wgt>
  <wgt id="73">5.9765e-12</wgt>
  <wgt id="74">5.97469e-12</wgt>
  <wgt id="75">5.9669e-12</wgt>
  <wgt id="76">5.9855e-12</wgt>
  <wgt id="77">5.97147e-12</wgt>
  <wgt id="78">5.97359e-12</wgt>
  <wgt id="79">5.98463e-12</wgt>
  <wgt id="80">5.95123e-12</wgt>
  <wgt id="81">5.96686e-12</wgt>
  <wgt id="82">5.97273e-12</wgt>
  <wgt id="83">5.95202e-12</wgt>
  <wgt id="84">5.96408e-12</wgt>
  <wgt id="85">5.96076e-12</wgt>
  <wgt id="86">5.9883e-12</wgt>
  <wgt id="87">5.94396e-12</wgt>
  <wgt id="88">5.97847e-12</wgt>
  <wgt id="89">5.97778e-12</wgt>
  <wgt id="90">5.98295e-12</wgt>
  <wgt id="91">5.97795e-12</wgt>
  <wgt id="92">5.98338e-12</wgt>
  <wgt id="93">5.97395e-12</wgt>
  <wgt id="94">5.96767e-12</wgt>
  <wgt id="95">5.97871e-12</wgt>
  <wgt id="96">5.97606e-12</wgt>
  <wgt id="97">5.96364e-12</wgt>
  <wgt id="98">5.97506e-12</wgt>
  <wgt id="99">5.96628e-12</wgt>
  <wgt id="100">5.97745e-12</wgt>
  <wgt id="101">5.97258e-12</wgt>
  <wgt id="102">5.96779e-12</wgt>
  <wgt id="103">5.97987e-12</wgt>
  <wgt id="104">5.97055e-12</wgt>
  <wgt id="105">5.97972e-12</wgt>
  <wgt id="106">5.96462e-12</wgt>
  <wgt id="107">5.98796e-12</wgt>
  <wgt id="108">5.96718e-12</wgt>
  <wgt id="109">5.97252e-12</wgt>
  <wgt id="110">5.97319e-12</wgt>
  <wgt id="111">6.03324e-12</wgt>
  <wgt id="112">5.97388e-12</wgt>
  <wgt id="113">7.94951e-12</wgt>
  <wgt id="114">8.18112e-12</wgt>
  <wgt id="115">8.06303e-12</wgt>
  <wgt id="116">1.10288e-11</wgt>
  <wgt id="117">6.58039e-12</wgt>
  <wgt id="118">6.60197e-12</wgt>
  <wgt id="119">6.56798e-12</wgt>
  <wgt id="120">6.58115e-12</wgt>
  <wgt id="121">6.58014e-12</wgt>
  <wgt id="122">6.56855e-12</wgt>
  <wgt id="123">6.59645e-12</wgt>
  <wgt id="124">6.57074e-12</wgt>
  <wgt id="125">6.58639e-12</wgt>
  <wgt id="126">6.59122e-12</wgt>
  <wgt id="127">6.57312e-12</wgt>
  <wgt id="128">6.60095e-12</wgt>
  <wgt id="129">6.56008e-12</wgt>
  <wgt id="130">6.61773e-12</wgt>
  <wgt id="131">6.54222e-12</wgt>
  <wgt id="132">6.41311e-12</wgt>
  <wgt id="133">6.7777e-12</wgt>
  <wgt id="134">6.51226e-12</wgt>
  <wgt id="135">6.63363e-12</wgt>
  <wgt id="136">6.66161e-12</wgt>
  <wgt id="137">6.48188e-12</wgt>
  <wgt id="138">6.82649e-12</wgt>
  <wgt id="139">6.34205e-12</wgt>
  <wgt id="140">6.53666e-12</wgt>
  <wgt id="141">6.61443e-12</wgt>
  <wgt id="142">6.58112e-12</wgt>
  <wgt id="143">6.58955e-12</wgt>
  <wgt id="144">6.40904e-12</wgt>
  <wgt id="145">6.73834e-12</wgt>
  <wgt id="146">6.63436e-12</wgt>
  <wgt id="147">6.53769e-12</wgt>
  <wgt id="148">6.59981e-12</wgt>
  <wgt id="149">6.57892e-12</wgt>
  <wgt id="150">6.63585e-12</wgt>
  <wgt id="151">6.55455e-12</wgt>
  <wgt id="152">6.58312e-12</wgt>
  <wgt id="153">6.5794e-12</wgt>
  <wgt id="154">6.63428e-12</wgt>
  <wgt id="155">6.51595e-12</wgt>
  <wgt id="156">6.69911e-12</wgt>
  <wgt id="157">6.45182e-12</wgt>
  <wgt id="158">7.91809e-12</wgt>
  <wgt id="159">7.95118e-12</wgt>
  <wgt id="160">7.89148e-12</wgt>
  <wgt id="161">7.89946e-12</wgt>
  <wgt id="162">7.93911e-12</wgt>
  <wgt id="163">7.90995e-12</wgt>
  <wgt id="164">7.93018e-12</wgt>
  <wgt id="165">7.92135e-12</wgt>
  <wgt id="166">7.9156e-12</wgt>
  <wgt id="167">7.91222e-12</wgt>
  <wgt id="168">7.92637e-12</wgt>
  <wgt id="169">7.88399e-12</wgt>
  <wgt id="170">7.9392e-12</wgt>
  <wgt id="171">7.91004e-12</wgt>
  <wgt id="172">7.92932e-12</wgt>
  <wgt id="173">7.91784e-12</wgt>
  <wgt id="174">7.91807e-12</wgt>
  <wgt id="175">7.70328e-12</wgt>
  <wgt id="176">8.19766e-12</wgt>
  <wgt id="177">7.95779e-12</wgt>
  <wgt id="178">7.88148e-12</wgt>
  <wgt id="179">8.23686e-12</wgt>
  <wgt id="180">7.41372e-12</wgt>
  <wgt id="181">7.69612e-12</wgt>
  <wgt id="182">8.06431e-12</wgt>
  <wgt id="183">7.78234e-12</wgt>
  <wgt id="184">7.98525e-12</wgt>
  <wgt id="185">7.85495e-12</wgt>
  <wgt id="186">7.99297e-12</wgt>
  <wgt id="187">7.84779e-12</wgt>
  <wgt id="188">8.04403e-12</wgt>
  <wgt id="189">7.86917e-12</wgt>
  <wgt id="190">7.938e-12</wgt>
  <wgt id="191">7.93882e-12</wgt>
  <wgt id="192">7.90567e-12</wgt>
  <wgt id="193">8.02556e-12</wgt>
  <wgt id="194">7.86486e-12</wgt>
  <wgt id="195">7.74397e-12</wgt>
  <wgt id="196">8.23859e-12</wgt>
  <wgt id="197">7.95597e-12</wgt>
  <wgt id="198">7.90904e-12</wgt>
  <wgt id="199">7.91809e-12</wgt>
  <wgt id="200">7.98375e-12</wgt>
  <wgt id="201">7.95983e-12</wgt>
  <wgt id="202">7.93631e-12</wgt>
  <wgt id="203">7.90113e-12</wgt>
  <wgt id="204">7.88445e-12</wgt>
  <wgt id="205">7.87068e-12</wgt>
  <wgt id="206">7.71153e-12</wgt>
  <wgt id="207">7.75621e-12</wgt>
  <wgt id="208">7.66757e-12</wgt>
  <wgt id="209">7.73319e-12</wgt>
  <wgt id="210">7.69622e-12</wgt>
  <wgt id="211">7.70949e-12</wgt>
  <wgt id="212">7.71337e-12</wgt>
  <wgt id="213">7.71104e-12</wgt>
  <wgt id="214">7.71255e-12</wgt>
  <wgt id="215">7.71677e-12</wgt>
  <wgt id="216">7.70808e-12</wgt>
  <wgt id="217">7.73228e-12</wgt>
  <wgt id="218">7.69553e-12</wgt>
  <wgt id="219">7.70209e-12</wgt>
  <wgt id="220">7.71765e-12</wgt>
  <wgt id="221">7.70862e-12</wgt>
  <wgt id="222">7.71871e-12</wgt>
  <wgt id="223">7.31767e-12</wgt>
  <wgt id="224">8.0696e-12</wgt>
  <wgt id="225">7.62374e-12</wgt>
  <wgt id="226">7.82205e-12</wgt>
  <wgt id="227">7.6416e-12</wgt>
  <wgt id="228">7.74245e-12</wgt>
  <wgt id="229">7.60834e-12</wgt>
  <wgt id="230">7.7631e-12</wgt>
  <wgt id="231">7.92492e-12</wgt>
  <wgt id="232">7.53586e-12</wgt>
  <wgt id="233">7.67323e-12</wgt>
  <wgt id="234">7.77144e-12</wgt>
  <wgt id="235">7.56823e-12</wgt>
  <wgt id="236">7.84877e-12</wgt>
  <wgt id="237">7.61253e-12</wgt>
  <wgt id="238">7.74571e-12</wgt>
  <wgt id="239">7.6684e-12</wgt>
  <wgt id="240">7.7906e-12</wgt>
  <wgt id="241">7.63658e-12</wgt>
  <wgt id="242">7.80171e-12</wgt>
  <wgt id="243">7.79212e-12</wgt>
  <wgt id="244">7.75658e-12</wgt>
  <wgt id="245">7.70564e-12</wgt>
  <wgt id="246">7.76942e-12</wgt>
  <wgt id="247">7.71153e-12</wgt>
  <wgt id="248">7.77698e-12</wgt>
  <wgt id="249">7.75194e-12</wgt>
  <wgt id="250">7.72869e-12</wgt>
  <wgt id="251">7.69393e-12</wgt>
  <wgt id="252">7.67754e-12</wgt>
  <wgt id="253">7.66566e-12</wgt>
  <wgt id="254">7.54333e-12</wgt>
  <wgt id="255">7.55018e-12</wgt>
  <wgt id="256">7.53558e-12</wgt>
  <wgt id="257">7.54903e-12</wgt>
  <wgt id="258">7.53896e-12</wgt>
  <wgt id="259">7.59317e-12</wgt>
  <wgt id="260">7.49487e-12</wgt>
  <wgt id="261">7.55181e-12</wgt>
  <wgt id="262">7.53293e-12</wgt>
  <wgt id="263">7.5401e-12</wgt>
  <wgt id="264">7.54662e-12</wgt>
  <wgt id="265">7.53526e-12</wgt>
  <wgt id="266">7.55942e-12</wgt>
  <wgt id="267">7.54541e-12</wgt>
  <wgt id="268">7.54002e-12</wgt>
  <wgt id="269">7.56551e-12</wgt>
  <wgt id="270">7.52804e-12</wgt>
  <wgt id="271">7.53026e-12</wgt>
  <wgt id="272">7.55788e-12</wgt>
  <wgt id="273">7.52095e-12</wgt>
  <wgt id="274">7.56013e-12</wgt>
  <wgt id="275">7.51361e-12</wgt>
  <wgt id="276">7.57394e-12</wgt>
  <wgt id="277">7.50167e-12</wgt>
  <wgt id="278">7.58163e-12</wgt>
  <wgt id="279">7.40575e-12</wgt>
  <wgt id="280">7.71554e-12</wgt>
  <wgt id="281">7.51225e-12</wgt>
  <wgt id="282">7.54432e-12</wgt>
  <wgt id="283">7.33763e-12</wgt>
  <wgt id="284">7.79582e-12</wgt>
  <wgt id="285">7.2005e-12</wgt>
  <wgt id="286">7.8256e-12</wgt>
  <wgt id="287">7.56595e-12</wgt>
  <wgt id="288">7.5142e-12</wgt>
  <wgt id="289">7.59354e-12</wgt>
  <wgt id="290">7.42543e-12</wgt>
  <wgt id="291">7.52415e-12</wgt>
  <wgt id="292">7.54763e-12</wgt>
  <wgt id="293">7.48816e-12</wgt>
  <wgt id="294">7.598e-12</wgt>
  <wgt id="295">7.40685e-12</wgt>
  <wgt id="296">7.70931e-12</wgt>
  <wgt id="297">7.54495e-12</wgt>
  <wgt id="298">7.56787e-12</wgt>
  <wgt id="299">7.52046e-12</wgt>
  <wgt id="300">7.60343e-12</wgt>
  <wgt id="301">7.45479e-12</wgt>
  <wgt id="302">7.77791e-12</wgt>
  <wgt id="303">7.49258e-12</wgt>
  <wgt id="304">7.57241e-12</wgt>
  <wgt id="305">7.57273e-12</wgt>
  <wgt id="306">7.58042e-12</wgt>
  <wgt id="307">7.56424e-12</wgt>
  <wgt id="308">7.57939e-12</wgt>
  <wgt id="309">7.56848e-12</wgt>
  <wgt id="310">7.62494e-12</wgt>
  <wgt id="311">7.52427e-12</wgt>
  <wgt id="312">7.57914e-12</wgt>
  <wgt id="313">7.56632e-12</wgt>
  <wgt id="314">7.56959e-12</wgt>
  <wgt id="315">7.57548e-12</wgt>
  <wgt id="316">7.5649e-12</wgt>
  <wgt id="317">7.58928e-12</wgt>
  <wgt id="318">7.57777e-12</wgt>
  <wgt id="319">7.56385e-12</wgt>
  <wgt id="320">7.59603e-12</wgt>
  <wgt id="321">7.55961e-12</wgt>
  <wgt id="322">7.55566e-12</wgt>
  <wgt id="323">7.59229e-12</wgt>
  <wgt id="324">7.55429e-12</wgt>
  <wgt id="325">7.58865e-12</wgt>
  <wgt id="326">7.54868e-12</wgt>
  <wgt id="327">7.60346e-12</wgt>
  <wgt id="328">7.53435e-12</wgt>
  <wgt id="329">7.59446e-12</wgt>
  <wgt id="330">7.78622e-12</wgt>
  <wgt id="331">7.36861e-12</wgt>
  <wgt id="332">7.54683e-12</wgt>
  <wgt id="333">7.57272e-12</wgt>
  <wgt id="334">7.41101e-12</wgt>
  <wgt id="335">7.7731e-12</wgt>
  <wgt id="336">7.3232e-12</wgt>
  <wgt id="337">7.87491e-12</wgt>
  <wgt id="338">7.65287e-12</wgt>
  <wgt id="339">7.49819e-12</wgt>
  <wgt id="340">7.62015e-12</wgt>
  <wgt id="341">7.44913e-12</wgt>
  <wgt id="342">7.55979e-12</wgt>
  <wgt id="343">7.5655e-12</wgt>
  <wgt id="344">7.52247e-12</wgt>
  <wgt id="345">7.63081e-12</wgt>
  <wgt id="346">7.4308e-12</wgt>
  <wgt id="347">7.73566e-12</wgt>
  <wgt id="348">7.57807e-12</wgt>
  <wgt id="349">7.59248e-12</wgt>
  <wgt id="350">7.54377e-12</wgt>
  <wgt id="351">7.64575e-12</wgt>
  <wgt id="352">7.47493e-12</wgt>
  <wgt id="353">7.81921e-12</wgt>
  <wgt id="354">7.49563e-12</wgt>
  <wgt id="355">7.62052e-12</wgt>
  <wgt id="356">7.54333e-12</wgt>
  <wgt id="357">7.60537e-12</wgt>
  <wgt id="358">7.57273e-12</wgt>
  <wgt id="359">7.57131e-12</wgt>
  <wgt id="360">7.58655e-12</wgt>
  <wgt id="361">7.56508e-12</wgt>
  <wgt id="362">7.68954e-12</wgt>
  <wgt id="363">7.67216e-12</wgt>
  <wgt id="364">7.64761e-12</wgt>
  <wgt id="365">7.62334e-12</wgt>
  <wgt id="366">7.59559e-12</wgt>
  <wgt id="367">7.53898e-12</wgt>
  <wgt id="368">7.50745e-12</wgt>
  <wgt id="369">7.47349e-12</wgt>
  <wgt id="370">7.56508e-12</wgt>
  <wgt id="371">7.59861e-12</wgt>
  <wgt id="372">7.58024e-12</wgt>
  <wgt id="373">7.55278e-12</wgt>
  <wgt id="374">7.54995e-12</wgt>
  <wgt id="375">8.04416e-12</wgt>
  <wgt id="376">8.0451e-12</wgt>
  <wgt id="377">8.04286e-12</wgt>
  <wgt id="378">8.07318e-12</wgt>
  <wgt id="379">8.01528e-12</wgt>
  <wgt id="380">8.06596e-12</wgt>
  <wgt id="381">8.03556e-12</wgt>
  <wgt id="382">8.08316e-12</wgt>
  <wgt id="383">8.00546e-12</wgt>
  <wgt id="384">8.04933e-12</wgt>
  <wgt id="385">8.03922e-12</wgt>
  <wgt id="386">8.07395e-12</wgt>
  <wgt id="387">8.03119e-12</wgt>
  <wgt id="388">8.03679e-12</wgt>
  <wgt id="389">8.05276e-12</wgt>
  <wgt id="390">8.06464e-12</wgt>
  <wgt id="391">8.02257e-12</wgt>
  <wgt id="392">7.98768e-12</wgt>
  <wgt id="393">8.07635e-12</wgt>
  <wgt id="394">8.05519e-12</wgt>
  <wgt id="395">8.02915e-12</wgt>
  <wgt id="396">8.04782e-12</wgt>
  <wgt id="397">8.04159e-12</wgt>
  <wgt id="398">8.01375e-12</wgt>
  <wgt id="399">8.07364e-12</wgt>
  <wgt id="400">8.03198e-12</wgt>
  <wgt id="401">8.07137e-12</wgt>
  <wgt id="402">7.98264e-12</wgt>
  <wgt id="403">8.07035e-12</wgt>
  <wgt id="404">8.21979e-12</wgt>
  <wgt id="405">7.61943e-12</wgt>
  <wgt id="406">7.91725e-12</wgt>
  <wgt id="407">8.31852e-12</wgt>
  <wgt id="408">8.10904e-12</wgt>
  <wgt id="409">7.9195e-12</wgt>
  <wgt id="410">7.83577e-12</wgt>
  <wgt id="411">8.14026e-12</wgt>
  <wgt id="412">8.03045e-12</wgt>
  <wgt id="413">8.06322e-12</wgt>
  <wgt id="414">7.96085e-12</wgt>
  <wgt id="415">8.10903e-12</wgt>
  <wgt id="416">8.2414e-12</wgt>
  <wgt id="417">7.77115e-12</wgt>
  <wgt id="418">8.05446e-12</wgt>
  <wgt id="419">7.98826e-12</wgt>
  <wgt id="420">8.14576e-12</wgt>
  <wgt id="421">7.9891e-12</wgt>
  <wgt id="422">8.03748e-12</wgt>
  <wgt id="423">8.04908e-12</wgt>
  <wgt id="424">8.18897e-12</wgt>
  <wgt id="425">7.95432e-12</wgt>
  <wgt id="426">8.04416e-12</wgt>
  <wgt id="427">7.97978e-12</wgt>
  <wgt id="428">8.2338e-12</wgt>
  <wgt id="429">8.10964e-12</wgt>
  <wgt id="430">8.32512e-12</wgt>
  <wgt id="431">8.28224e-12</wgt>
  <wgt id="432">8.24158e-12</wgt>
  <wgt id="433">8.20209e-12</wgt>
  <wgt id="434">8.1544e-12</wgt>
  <wgt id="435">8.05387e-12</wgt>
  <wgt id="436">8.00202e-12</wgt>
  <wgt id="437">7.95277e-12</wgt>
  <wgt id="438">8.10964e-12</wgt>
  <wgt id="439">8.13623e-12</wgt>
  <wgt id="440">8.12072e-12</wgt>
  <wgt id="441">8.10141e-12</wgt>
  <wgt id="442">8.09442e-12</wgt>
  <wgt id="443">7.88218e-12</wgt>
  <wgt id="444">7.92299e-12</wgt>
  <wgt id="445">7.86428e-12</wgt>
  <wgt id="446">7.83276e-12</wgt>
  <wgt id="447">7.86078e-12</wgt>
  <wgt id="448">7.6882e-12</wgt>
  <wgt id="449">7.99789e-12</wgt>
  <wgt id="450">7.86493e-12</wgt>
  <wgt id="451">7.87003e-12</wgt>
  <wgt id="452">8.0446e-12</wgt>
  <wgt id="453">7.94625e-12</wgt>
  <wgt id="454">7.57586e-12</wgt>
  <wgt id="455">7.89671e-12</wgt>
  <wgt id="456">7.80802e-12</wgt>
  <wgt id="457">7.90943e-12</wgt>
  <wgt id="458">7.9719e-12</wgt>
  <wgt id="459">7.93426e-12</wgt>
  <wgt id="460">7.93507e-12</wgt>
  <wgt id="461">7.74885e-12</wgt>
  <wgt id="462">7.8281e-12</wgt>
  <wgt id="463">7.80003e-12</wgt>
  <wgt id="464">7.84485e-12</wgt>
  <wgt id="465">7.9557e-12</wgt>
  <wgt id="466">7.79568e-12</wgt>
  <wgt id="467">7.81501e-12</wgt>
  <wgt id="468">7.86361e-12</wgt>
  <wgt id="469">7.86544e-12</wgt>
  <wgt id="470">7.81277e-12</wgt>
  <wgt id="471">7.81917e-12</wgt>
  <wgt id="472">7.91445e-12</wgt>
  <wgt id="473">7.66127e-12</wgt>
  <wgt id="474">5.79e-12</wgt>
  <wgt id="475">6.08435e-12</wgt>
  <wgt id="476">5.68403e-12</wgt>
  <wgt id="477">5.63571e-12</wgt>
  <wgt id="478">5.83071e-12</wgt>
  <wgt id="479">5.70398e-12</wgt>
  <wgt id="480">5.98786e-12</wgt>
  <wgt id="481">5.68784e-12</wgt>
  <wgt id="482">5.61062e-12</wgt>
  <wgt id="483">5.64694e-12</wgt>
  <wgt id="484">6.10588e-12</wgt>
  <wgt id="485">5.7574e-12</wgt>
  <wgt id="486">5.94654e-12</wgt>
  <wgt id="487">5.84808e-12</wgt>
  <wgt id="488">5.8795e-12</wgt>
  <wgt id="489">5.54769e-12</wgt>
  <wgt id="490">5.6086e-12</wgt>
  <wgt id="491">5.74654e-12</wgt>
  <wgt id="492">5.64161e-12</wgt>
  <wgt id="493">5.5825e-12</wgt>
  <wgt id="494">5.61737e-12</wgt>
  <wgt id="495">5.85134e-12</wgt>
  <wgt id="496">5.60246e-12</wgt>
  <wgt id="497">5.57686e-12</wgt>
  <wgt id="498">5.89169e-12</wgt>
  <wgt id="499">5.67418e-12</wgt>
  <wgt id="500">5.68128e-12</wgt>
  <wgt id="501">6.02812e-12</wgt>
  <wgt id="502">5.67671e-12</wgt>
  <wgt id="503">5.78711e-12</wgt>
  <wgt id="504">5.83647e-12</wgt>
  <wgt id="505">5.72575e-12</wgt>
  <wgt id="506">5.83686e-12</wgt>
  <wgt id="507">5.75503e-12</wgt>
  <wgt id="508">5.91964e-12</wgt>
  <wgt id="509">5.59757e-12</wgt>
  <wgt id="510">5.92307e-12</wgt>
  <wgt id="511">5.6467e-12</wgt>
  <wgt id="512">5.8939e-12</wgt>
  <wgt id="513">5.98671e-12</wgt>
  <wgt id="514">5.78531e-12</wgt>
  <wgt id="515">5.73895e-12</wgt>
  <wgt id="516">5.99592e-12</wgt>
  <wgt id="517">5.92295e-12</wgt>
  <wgt id="518">5.94534e-12</wgt>
  <wgt id="519">5.65013e-12</wgt>
  <wgt id="520">5.85419e-12</wgt>
  <wgt id="521">5.97651e-12</wgt>
  <wgt id="522">6.02214e-12</wgt>
  <wgt id="523">5.84338e-12</wgt>
  <wgt id="524">5.83685e-12</wgt>
  <wgt id="525">5.94077e-12</wgt>
  <wgt id="526">5.81555e-12</wgt>
  <wgt id="527">5.8741e-12</wgt>
  <wgt id="528">5.80295e-12</wgt>
  <wgt id="529">5.72312e-12</wgt>
  <wgt id="530">5.86578e-12</wgt>
  <wgt id="531">5.70869e-12</wgt>
  <wgt id="532">6.11322e-12</wgt>
  <wgt id="533">5.48598e-12</wgt>
  <wgt id="534">5.78721e-12</wgt>
  <wgt id="535">5.84953e-12</wgt>
  <wgt id="536">5.76386e-12</wgt>
  <wgt id="537">5.79992e-12</wgt>
  <wgt id="538">5.87567e-12</wgt>
  <wgt id="539">5.67566e-12</wgt>
  <wgt id="540">5.73404e-12</wgt>
  <wgt id="541">5.65166e-12</wgt>
  <wgt id="542">5.69273e-12</wgt>
  <wgt id="543">5.77964e-12</wgt>
  <wgt id="544">6.05919e-12</wgt>
  <wgt id="545">5.69959e-12</wgt>
  <wgt id="546">5.68551e-12</wgt>
  <wgt id="547">5.63814e-12</wgt>
  <wgt id="548">5.55795e-12</wgt>
  <wgt id="549">5.70308e-12</wgt>
  <wgt id="550">5.7358e-12</wgt>
  <wgt id="551">5.86779e-12</wgt>
  <wgt id="552">5.68451e-12</wgt>
  <wgt id="553">5.75982e-12</wgt>
  <wgt id="554">6.20816e-12</wgt>
  <wgt id="555">5.95263e-12</wgt>
  <wgt id="556">5.6086e-12</wgt>
  <wgt id="557">5.90332e-12</wgt>
  <wgt id="558">5.62737e-12</wgt>
  <wgt id="559">5.6963e-12</wgt>
  <wgt id="560">6.2873e-12</wgt>
  <wgt id="561">5.6861e-12</wgt>
  <wgt id="562">5.90404e-12</wgt>
  <wgt id="563">5.69911e-12</wgt>
  <wgt id="564">5.84981e-12</wgt>
  <wgt id="565">5.62835e-12</wgt>
  <wgt id="566">5.86092e-12</wgt>
  <wgt id="567">5.72154e-12</wgt>
  <wgt id="568">5.785e-12</wgt>
  <wgt id="569">5.86175e-12</wgt>
  <wgt id="570">5.61498e-12</wgt>
  <wgt id="571">6.39878e-12</wgt>
  <wgt id="572">5.68199e-12</wgt>
  <wgt id="573">5.56072e-12</wgt>
  <wgt id="574">5.60462e-12</wgt>
  <wgt id="575">6.35079e-12</wgt>
  <wgt id="576">6.32694e-12</wgt>
  <wgt id="577">6.55979e-12</wgt>
  <wgt id="578">6.5047e-12</wgt>
  <wgt id="579">6.45631e-12</wgt>
  <wgt id="580">6.49568e-12</wgt>
  <wgt id="581">6.77093e-12</wgt>
  <wgt id="582">6.3171e-12</wgt>
  <wgt id="583">6.4061e-12</wgt>
  <wgt id="584">6.3445e-12</wgt>
  <wgt id="585">6.32684e-12</wgt>
  <wgt id="586">6.18492e-12</wgt>
  <wgt id="587">6.43239e-12</wgt>
  <wgt id="588">6.33623e-12</wgt>
  <wgt id="589">6.47845e-12</wgt>
  <wgt id="590">6.41456e-12</wgt>
  <wgt id="591">6.59614e-12</wgt>
  <wgt id="592">6.1571e-12</wgt>
  <wgt id="593">6.31011e-12</wgt>
  <wgt id="594">6.5664e-12</wgt>
  <wgt id="595">6.3413e-12</wgt>
  <wgt id="596">6.48136e-12</wgt>
  <wgt id="597">6.17301e-12</wgt>
  <wgt id="598">6.20321e-12</wgt>
  <wgt id="599">6.60659e-12</wgt>
  <wgt id="600">6.32287e-12</wgt>
  <wgt id="601">6.17058e-12</wgt>
  <wgt id="602">6.20221e-12</wgt>
  <wgt id="603">6.23521e-12</wgt>
  <wgt id="604">6.44077e-12</wgt>
  <wgt id="605">6.59738e-12</wgt>
  <wgt id="606">6.25341e-12</wgt>
  <wgt id="607">6.30103e-12</wgt>
  <wgt id="608">6.38701e-12</wgt>
  <wgt id="609">6.02906e-12</wgt>
  <wgt id="610">6.12009e-12</wgt>
  <wgt id="611">6.4055e-12</wgt>
  <wgt id="612">6.82251e-12</wgt>
  <wgt id="613">6.33572e-12</wgt>
  <wgt id="614">6.40427e-12</wgt>
  <wgt id="615">6.24974e-12</wgt>
  <wgt id="616">6.70001e-12</wgt>
  <wgt id="617">6.52571e-12</wgt>
  <wgt id="618">6.55017e-12</wgt>
  <wgt id="619">6.30347e-12</wgt>
  <wgt id="620">6.55829e-12</wgt>
  <wgt id="621">6.40561e-12</wgt>
  <wgt id="622">6.43239e-12</wgt>
  <wgt id="623">6.51047e-12</wgt>
  <wgt id="624">6.32449e-12</wgt>
  <wgt id="625">6.25915e-12</wgt>
  <wgt id="626">6.17158e-12</wgt>
  <wgt id="627">6.10345e-12</wgt>
  <wgt id="628">6.5799e-12</wgt>
  <wgt id="629">6.244e-12</wgt>
  <wgt id="630">6.16339e-12</wgt>
  <wgt id="631">6.37016e-12</wgt>
  <wgt id="632">6.12258e-12</wgt>
  <wgt id="633">6.29173e-12</wgt>
  <wgt id="634">6.33261e-12</wgt>
  <wgt id="635">6.21145e-12</wgt>
  <wgt id="636">6.40804e-12</wgt>
  <wgt id="637">6.37037e-12</wgt>
  <wgt id="638">6.14079e-12</wgt>
  <wgt id="639">6.27426e-12</wgt>
  <wgt id="640">6.36034e-12</wgt>
  <wgt id="641">6.40999e-12</wgt>
  <wgt id="642">6.14773e-12</wgt>
  <wgt id="643">6.32176e-12</wgt>
  <wgt id="644">6.05089e-12</wgt>
  <wgt id="645">6.3874e-12</wgt>
  <wgt id="646">6.40406e-12</wgt>
  <wgt id="647">6.26453e-12</wgt>
  <wgt id="648">6.4091e-12</wgt>
  <wgt id="649">6.42713e-12</wgt>
  <wgt id="650">6.21631e-12</wgt>
  <wgt id="651">6.45663e-12</wgt>
  <wgt id="652">6.31303e-12</wgt>
  <wgt id="653">6.17843e-12</wgt>
  <wgt id="654">6.28818e-12</wgt>
  <wgt id="655">6.23856e-12</wgt>
  <wgt id="656">6.33585e-12</wgt>
  <wgt id="657">6.59483e-12</wgt>
  <wgt id="658">6.4007e-12</wgt>
  <wgt id="659">6.10644e-12</wgt>
  <wgt id="660">6.44893e-12</wgt>
  <wgt id="661">6.26362e-12</wgt>
  <wgt id="662">6.32291e-12</wgt>
  <wgt id="663">6.35367e-12</wgt>
  <wgt id="664">6.27304e-12</wgt>
  <wgt id="665">6.33939e-12</wgt>
  <wgt id="666">6.31616e-12</wgt>
  <wgt id="667">6.56593e-12</wgt>
  <wgt id="668">6.3337e-12</wgt>
  <wgt id="669">6.50034e-12</wgt>
  <wgt id="670">6.46868e-12</wgt>
  <wgt id="671">6.28188e-12</wgt>
  <wgt id="672">6.09253e-12</wgt>
  <wgt id="673">6.37693e-12</wgt>
  <wgt id="674">6.21623e-12</wgt>
  <wgt id="675">6.24421e-12</wgt>
  <wgt id="676">7.94761e-12</wgt>
  <wgt id="677">8.05213e-12</wgt>
  <wgt id="678">8.3324e-12</wgt>
  <wgt id="679">7.56295e-12</wgt>
  <wgt id="680">7.74187e-12</wgt>
  <wgt id="681">8.11839e-12</wgt>
  <wgt id="682">8.11887e-12</wgt>
  <wgt id="683">7.84001e-12</wgt>
  <wgt id="684">8.27761e-12</wgt>
  <wgt id="685">7.60305e-12</wgt>
  <wgt id="686">7.85918e-12</wgt>
  <wgt id="687">8.27373e-12</wgt>
  <wgt id="688">7.86675e-12</wgt>
  <wgt id="689">8.44024e-12</wgt>
  <wgt id="690">8.33551e-12</wgt>
  <wgt id="691">8.34277e-12</wgt>
  <wgt id="692">7.89795e-12</wgt>
  <wgt id="693">9.25021e-12</wgt>
  <wgt id="694">8.41972e-12</wgt>
  <wgt id="695">7.6963e-12</wgt>
  <wgt id="696">7.62443e-12</wgt>
  <wgt id="697">7.66792e-12</wgt>
  <wgt id="698">7.34925e-12</wgt>
  <wgt id="699">7.26806e-12</wgt>
  <wgt id="700">7.05526e-12</wgt>
  <wgt id="701">7.95619e-12</wgt>
  <wgt id="702">7.71166e-12</wgt>
  <wgt id="703">9.04237e-12</wgt>
  <wgt id="704">8.63438e-12</wgt>
  <wgt id="705">8.34698e-12</wgt>
  <wgt id="706">7.48262e-12</wgt>
  <wgt id="707">7.6382e-12</wgt>
  <wgt id="708">7.83226e-12</wgt>
  <wgt id="709">7.80212e-12</wgt>
  <wgt id="710">7.22652e-12</wgt>
  <wgt id="711">7.9254e-12</wgt>
  <wgt id="712">7.79292e-12</wgt>
  <wgt id="713">8.50098e-12</wgt>
  <wgt id="714">7.81749e-12</wgt>
  <wgt id="715">7.85305e-12</wgt>
  <wgt id="716">7.66599e-12</wgt>
  <wgt id="717">7.56633e-12</wgt>
  <wgt id="718">7.91412e-12</wgt>
  <wgt id="719">7.26704e-12</wgt>
  <wgt id="720">7.58174e-12</wgt>
  <wgt id="721">7.39559e-12</wgt>
  <wgt id="722">7.11423e-12</wgt>
  <wgt id="723">8.43392e-12</wgt>
  <wgt id="724">8.29492e-12</wgt>
  <wgt id="725">8.36301e-12</wgt>
  <wgt id="726">8.00803e-12</wgt>
  <wgt id="727">7.7853e-12</wgt>
  <wgt id="728">7.81134e-12</wgt>
  <wgt id="729">7.43071e-12</wgt>
  <wgt id="730">8.45469e-12</wgt>
  <wgt id="731">7.84536e-12</wgt>
  <wgt id="732">8.70158e-12</wgt>
  <wgt id="733">7.87017e-12</wgt>
  <wgt id="734">8.12416e-12</wgt>
  <wgt id="735">7.96433e-12</wgt>
  <wgt id="736">7.79305e-12</wgt>
  <wgt id="737">8.05092e-12</wgt>
  <wgt id="738">7.63783e-12</wgt>
  <wgt id="739">8.03862e-12</wgt>
  <wgt id="740">8.79992e-12</wgt>
  <wgt id="741">7.15547e-12</wgt>
  <wgt id="742">7.84572e-12</wgt>
  <wgt id="743">7.63837e-12</wgt>
  <wgt id="744">7.78544e-12</wgt>
  <wgt id="745">8.26153e-12</wgt>
  <wgt id="746">8.38455e-12</wgt>
  <wgt id="747">7.24293e-12</wgt>
  <wgt id="748">7.83534e-12</wgt>
  <wgt id="749">8.34148e-12</wgt>
  <wgt id="750">8.12849e-12</wgt>
  <wgt id="751">8.17314e-12</wgt>
  <wgt id="752">7.33441e-12</wgt>
  <wgt id="753">7.53525e-12</wgt>
  <wgt id="754">8.19365e-12</wgt>
  <wgt id="755">7.96872e-12</wgt>
  <wgt id="756">7.95295e-12</wgt>
  <wgt id="757">7.35125e-12</wgt>
  <wgt id="758">7.99223e-12</wgt>
  <wgt id="759">8.15204e-12</wgt>
  <wgt id="760">8.03124e-12</wgt>
  <wgt id="761">8.377e-12</wgt>
  <wgt id="762">8.39147e-12</wgt>
  <wgt id="763">7.94643e-12</wgt>
  <wgt id="764">8.23729e-12</wgt>
  <wgt id="765">8.01819e-12</wgt>
  <wgt id="766">7.92947e-12</wgt>
  <wgt id="767">8.11256e-12</wgt>
  <wgt id="768">7.52264e-12</wgt>
  <wgt id="769">8.39739e-12</wgt>
  <wgt id="770">7.79646e-12</wgt>
  <wgt id="771">9.29555e-12</wgt>
  <wgt id="772">7.52789e-12</wgt>
  <wgt id="773">7.90134e-12</wgt>
  <wgt id="774">7.08018e-12</wgt>
  <wgt id="775">8.29831e-12</wgt>
  <wgt id="776">8.61958e-12</wgt>
  <wgt id="777">7.61262e-12</wgt>
  <wgt id="778">5.90337e-12</wgt>
  <wgt id="779">4.90039e-12</wgt>
  <wgt id="780">4.03849e-12</wgt>
  <wgt id="781">6.18496e-12</wgt>
  <wgt id="782">6.2832e-12</wgt>
  <wgt id="783">4.9669e-12</wgt>
  <wgt id="784">5.16863e-12</wgt>
  <wgt id="785">7.19266e-12</wgt>
  <wgt id="786">4.57566e-12</wgt>
  <wgt id="787">6.67657e-12</wgt>
  <wgt id="788">3.73296e-12</wgt>
  <wgt id="789">4.87952e-12</wgt>
  <wgt id="790">4.52466e-12</wgt>
  <wgt id="791">5.6301e-12</wgt>
  <wgt id="792">7.74947e-12</wgt>
  <wgt id="793">5.78831e-12</wgt>
  <wgt id="794">4.54478e-12</wgt>
  <wgt id="795">6.84765e-12</wgt>
  <wgt id="796">7.66968e-12</wgt>
  <wgt id="797">6.83132e-12</wgt>
  <wgt id="798">5.40831e-12</wgt>
  <wgt id="799">6.66784e-12</wgt>
  <wgt id="800">4.8903e-12</wgt>
  <wgt id="801">5.52623e-12</wgt>
  <wgt id="802">4.56902e-12</wgt>
  <wgt id="803">7.82606e-12</wgt>
  <wgt id="804">6.80745e-12</wgt>
  <wgt id="805">6.89407e-12</wgt>
  <wgt id="806">6.56075e-12</wgt>
  <wgt id="807">5.65617e-12</wgt>
  <wgt id="808">5.72974e-12</wgt>
  <wgt id="809">5.47607e-12</wgt>
  <wgt id="810">6.65299e-12</wgt>
  <wgt id="811">6.38039e-12</wgt>
  <wgt id="812">4.54081e-12</wgt>
  <wgt id="813">4.62077e-12</wgt>
  <wgt id="814">4.93149e-12</wgt>
  <wgt id="815">4.91192e-12</wgt>
  <wgt id="816">4.4285e-12</wgt>
  <wgt id="817">6.16119e-12</wgt>
  <wgt id="818">5.91714e-12</wgt>
  <wgt id="819">4.92018e-12</wgt>
  <wgt id="820">5.8912e-12</wgt>
  <wgt id="821">6.70423e-12</wgt>
  <wgt id="822">4.97239e-12</wgt>
  <wgt id="823">6.76308e-12</wgt>
  <wgt id="824">7.85985e-12</wgt>
  <wgt id="825">4.393e-12</wgt>
  <wgt id="826">6.23121e-12</wgt>
  <wgt id="827">3.68755e-12</wgt>
  <wgt id="828">7.53098e-12</wgt>
  <wgt id="829">6.08704e-12</wgt>
  <wgt id="830">4.17603e-12</wgt>
  <wgt id="831">6.33709e-12</wgt>
  <wgt id="832">9.51858e-12</wgt>
  <wgt id="833">5.49798e-12</wgt>
  <wgt id="834">8.99207e-12</wgt>
  <wgt id="835">4.84194e-12</wgt>
  <wgt id="836">5.80135e-12</wgt>
  <wgt id="837">6.62247e-12</wgt>
  <wgt id="838">5.56442e-12</wgt>
  <wgt id="839">6.30416e-12</wgt>
  <wgt id="840">5.53178e-12</wgt>
  <wgt id="841">7.19249e-12</wgt>
  <wgt id="842">5.43234e-12</wgt>
  <wgt id="843">5.82892e-12</wgt>
  <wgt id="844">6.13586e-12</wgt>
  <wgt id="845">8.2983e-12</wgt>
  <wgt id="846">5.70608e-12</wgt>
  <wgt id="847">5.94061e-12</wgt>
  <wgt id="848">5.09665e-12</wgt>
  <wgt id="849">6.05181e-12</wgt>
  <wgt id="850">7.60677e-12</wgt>
  <wgt id="851">6.45972e-12</wgt>
  <wgt id="852">4.97301e-12</wgt>
  <wgt id="853">6.46891e-12</wgt>
  <wgt id="854">7.1541e-12</wgt>
  <wgt id="855">6.74071e-12</wgt>
  <wgt id="856">4.26468e-12</wgt>
  <wgt id="857">5.88113e-12</wgt>
  <wgt id="858">5.74504e-12</wgt>
  <wgt id="859">5.53922e-12</wgt>
  <wgt id="860">6.35573e-12</wgt>
  <wgt id="861">5.24887e-12</wgt>
  <wgt id="862">5.97969e-12</wgt>
  <wgt id="863">6.23087e-12</wgt>
  <wgt id="864">6.20965e-12</wgt>
  <wgt id="865">8.30176e-12</wgt>
  <wgt id="866">9.11024e-12</wgt>
  <wgt id="867">5.96851e-12</wgt>
  <wgt id="868">5.80935e-12</wgt>
  <wgt id="869">4.60165e-12</wgt>
  <wgt id="870">4.85292e-12</wgt>
  <wgt id="871">4.71625e-12</wgt>
  <wgt id="872">7.00057e-12</wgt>
  <wgt id="873">4.95305e-12</wgt>
  <wgt id="874">6.19388e-12</wgt>
  <wgt id="875">5.13527e-12</wgt>
  <wgt id="876">6.97531e-12</wgt>
  <wgt id="877">6.66244e-12</wgt>
  <wgt id="878">5.09375e-12</wgt>
  <wgt id="879">7.94761e-12</wgt>
  <wgt id="880">8.05213e-12</wgt>
  <wgt id="881">8.3324e-12</wgt>
  <wgt id="882">7.56295e-12</wgt>
  <wgt id="883">7.74187e-12</wgt>
  <wgt id="884">8.11839e-12</wgt>
  <wgt id="885">8.11887e-12</wgt>
  <wgt id="886">7.84001e-12</wgt>
  <wgt id="887">8.27761e-12</wgt>
  <wgt id="888">7.60305e-12</wgt>
  <wgt id="889">7.85918e-12</wgt>
  <wgt id="890">8.27373e-12</wgt>
  <wgt id="891">7.86675e-12</wgt>
  <wgt id="892">8.44024e-12</wgt>
  <wgt id="893">8.33551e-12</wgt>
  <wgt id="894">8.34277e-12</wgt>
  <wgt id="895">7.89795e-12</wgt>
  <wgt id="896">9.25021e-12</wgt>
  <wgt id="897">8.41972e-12</wgt>
  <wgt id="898">7.6963e-12</wgt>
  <wgt id="899">7.62443e-12</wgt>
  <wgt id="900">7.66792e-12</wgt>
  <wgt id="901">7.34925e-12</wgt>
  <wgt id="902">7.26806e-12</wgt>
  <wgt id="903">7.05526e-12</wgt>
  <wgt id="904">7.95619e-12</wgt>
  <wgt id="905">7.71166e-12</wgt>
  <wgt id="906">9.04237e-12</wgt>
  <wgt id="907">8.63438e-12</wgt>
  <wgt id="908">8.34698e-12</wgt>
  <wgt id="909">7.48262e-12</wgt>
  <wgt id="910">7.6382e-12</wgt>
  <wgt id="911">7.83226e-12</wgt>
  <wgt id="912">7.80212e-12</wgt>
  <wgt id="913">7.22652e-12</wgt>
  <wgt id="914">7.9254e-12</wgt>
  <wgt id="915">7.79292e-12</wgt>
  <wgt id="916">8.50098e-12</wgt>
  <wgt id="917">7.81749e-12</wgt>
  <wgt id="918">7.85305e-12</wgt>
  <wgt id="919">7.66599e-12</wgt>
  <wgt id="920">7.56633e-12</wgt>
  <wgt id="921">7.91412e-12</wgt>
  <wgt id="922">7.26704e-12</wgt>
  <wgt id="923">7.58174e-12</wgt>
  <wgt id="924">7.39559e-12</wgt>
  <wgt id="925">7.11423e-12</wgt>
  <wgt id="926">8.43392e-12</wgt>
  <wgt id="927">8.29492e-12</wgt>
  <wgt id="928">8.36301e-12</wgt>
  <wgt id="929">8.00803e-12</wgt>
  <wgt id="930">7.7853e-12</wgt>
  <wgt id="931">7.81134e-12</wgt>
  <wgt id="932">7.43071e-12</wgt>
  <wgt id="933">8.45469e-12</wgt>
  <wgt id="934">7.84536e-12</wgt>
  <wgt id="935">8.70158e-12</wgt>
  <wgt id="936">7.87017e-12</wgt>
  <wgt id="937">8.12416e-12</wgt>
  <wgt id="938">7.96433e-12</wgt>
  <wgt id="939">7.79305e-12</wgt>
  <wgt id="940">8.05092e-12</wgt>
  <wgt id="941">7.63783e-12</wgt>
  <wgt id="942">8.03862e-12</wgt>
  <wgt id="943">8.79992e-12</wgt>
  <wgt id="944">7.15547e-12</wgt>
  <wgt id="945">7.84572e-12</wgt>
  <wgt id="946">7.63837e-12</wgt>
  <wgt id="947">7.78544e-12</wgt>
  <wgt id="948">8.26153e-12</wgt>
  <wgt id="949">8.38455e-12</wgt>
  <wgt id="950">7.24293e-12</wgt>
  <wgt id="951">7.83534e-12</wgt>
  <wgt id="952">8.34148e-12</wgt>
  <wgt id="953">8.12849e-12</wgt>
  <wgt id="954">8.17314e-12</wgt>
  <wgt id="955">7.33441e-12</wgt>
  <wgt id="956">7.53525e-12</wgt>
  <wgt id="957">8.19365e-12</wgt>
  <wgt id="958">7.96872e-12</wgt>
  <wgt id="959">7.95295e-12</wgt>
  <wgt id="960">7.35125e-12</wgt>
  <wgt id="961">7.99223e-12</wgt>
  <wgt id="962">8.15204e-12</wgt>
  <wgt id="963">8.03124e-12</wgt>
  <wgt id="964">8.377e-12</wgt>
  <wgt id="965">8.39147e-12</wgt>
  <wgt id="966">7.94643e-12</wgt>
  <wgt id="967">8.23729e-12</wgt>
  <wgt id="968">8.01819e-12</wgt>
  <wgt id="969">7.92947e-12</wgt>
  <wgt id="970">8.11256e-12</wgt>
  <wgt id="971">7.52264e-12</wgt>
  <wgt id="972">8.39739e-12</wgt>
  <wgt id="973">7.79646e-12</wgt>
  <wgt id="974">9.29555e-12</wgt>
  <wgt id="975">7.52789e-12</wgt>
  <wgt id="976">7.90134e-12</wgt>
  <wgt id="977">7.08018e-12</wgt>
  <wgt id="978">8.29831e-12</wgt>
  <wgt id="979">8.61958e-12</wgt>
  <wgt id="980">7.94882e-12</wgt>
  <wgt id="981">7.98101e-12</wgt>
  <wgt id="982">7.7173e-12</wgt>
</rwgt>
</event>
<event>
 5   1  0.5790000E-11  0.1993708E+04  0.7818608E-02  0.7831331E-01
       21   -1    0    0  502  501  0.00000000000E+00  0.00000000000E+00  0.11807948711E+04  0.11807948711E+04  0.00000000000E+00 0. -1.
       21   -1    0    0  501  502 -0.00000000000E+00 -0.00000000000E+00 -0.84156677102E+03  0.84156677102E+03  0.00000000000E+00 0.  1.
       39    2    1    2    0    0  0.00000000000E+00  0.00000000000E+00  0.33922810013E+03  0.20223616422E+04  0.19937078291E+04 0.  0.
       25    1    3    3    0    0  0.43921241874E+03 -0.68017492775E+03 -0.40648077507E+03  0.91454748462E+03  0.12500000000E+03 0.  0.
       25    1    3    3    0    0 -0.43921241874E+03  0.68017492775E+03  0.74570887520E+03  0.11078141575E+04  0.12500000000E+03 0.  0.
<mgrwt>
<rscale>  0 0.19937078E+04</rscale>
<asrwt>0</asrwt>
<pdfrwt beam="1">  1       21 0.18166075E+00 0.19937078E+04</pdfrwt>
<pdfrwt beam="2">  1       21 0.12947181E+00 0.19937078E+04</pdfrwt>
<totfact> 0.35186785E+01</totfact>
</mgrwt>
<rwgt>
  <wgt id="1">5.79e-12</wgt>
  <wgt id="2">5.08016e-12</wgt>
  <wgt id="3">6.66351e-12</wgt>
  <wgt id="4">5.79e-12</wgt>
  <wgt id="5">5.08016e-12</wgt>
  <wgt id="6">6.66351e-12</wgt>
  <wgt id="7">5.79e-12</wgt>
  <wgt id="8">5.08016e-12</wgt>
  <wgt id="9">6.66351e-12</wgt>
  <wgt id="10">5.9132e-12</wgt>
  <wgt id="11">5.90808e-12</wgt>
  <wgt id="12">5.90294e-12</wgt>
  <wgt id="13">5.89377e-12</wgt>
  <wgt id="14">5.93341e-12</wgt>
  <wgt id="15">5.92153e-12</wgt>
  <wgt id="16">5.90022e-12</wgt>
  <wgt id="17">5.92475e-12</wgt>
  <wgt id="18">5.90846e-12</wgt>
  <wgt id="19">5.92357e-12</wgt>
  <wgt id="20">5.89697e-12</wgt>
  <wgt id="21">5.88319e-12</wgt>
  <wgt id="22">5.89555e-12</wgt>
  <wgt id="23">5.86461e-12</wgt>
  <wgt id="24">5.88675e-12</wgt>
  <wgt id="25">5.89799e-12</wgt>
  <wgt id="26">5.93539e-12</wgt>
  <wgt id="27">5.91149e-12</wgt>
  <wgt id="28">5.88417e-12</wgt>
  <wgt id="29">5.91951e-12</wgt>
  <wgt id="30">5.8943e-12</wgt>
  <wgt id="31">5.92979e-12</wgt>
  <wgt id="32">5.89519e-12</wgt>
  <wgt id="33">5.92294e-12</wgt>
  <wgt id="34">5.89607e-12</wgt>
  <wgt id="35">5.89994e-12</wgt>
  <wgt id="36">5.92213e-12</wgt>
  <wgt id="37">5.8982e-12</wgt>
  <wgt id="38">5.90207e-12</wgt>
  <wgt id="39">5.97501e-12</wgt>
  <wgt id="40">5.92844e-12</wgt>
  <wgt id="41">5.91138e-12</wgt>
  <wgt id="42">5.93614e-12</wgt>
  <wgt id="43">5.92138e-12</wgt>
  <wgt id="44">5.88793e-12</wgt>
  <wgt id="45">5.91744e-12</wgt>
  <wgt id="46">5.91511e-12</wgt>
  <wgt id="47">5.89005e-12</wgt>
  <wgt id="48">5.91447e-12</wgt>
  <wgt id="49">5.93968e-12</wgt>
  <wgt id="50">5.94728e-12</wgt>
  <wgt id="51">5.93121e-12</wgt>
  <wgt id="52">5.88386e-12</wgt>
  <wgt id="53">5.88946e-12</wgt>
  <wgt id="54">5.90521e-12</wgt>
  <wgt id="55">5.91066e-12</wgt>
  <wgt id="56">5.9298e-12</wgt>
  <wgt id="57">5.93304e-12</wgt>
  <wgt id="58">5.87791e-12</wgt>
  <wgt id="59">5.89716e-12</wgt>
  <wgt id="60">5.91603e-12</wgt>
  <wgt id="61">5.91234e-12</wgt>
  <wgt id="62">5.91292e-12</wgt>
  <wgt id="63">5.92042e-12</wgt>
  <wgt id="64">5.91969e-12</wgt>
  <wgt id="65">5.91832e-12</wgt>
  <wgt id="66">5.90774e-12</wgt>
  <wgt id="67">5.90785e-12</wgt>
  <wgt id="68">5.90841e-12</wgt>
  <wgt id="69">5.91113e-12</wgt>
  <wgt id="70">5.91087e-12</wgt>
  <wgt id="71">5.90895e-12</wgt>
  <wgt id="72">5.90719e-12</wgt>
  <wgt id="73">5.91717e-12</wgt>
  <wgt id="74">5.91408e-12</wgt>
  <wgt id="75">5.91401e-12</wgt>
  <wgt id="76">5.92395e-12</wgt>
  <wgt id="77">5.91247e-12</wgt>
  <wgt id="78">5.91531e-12</wgt>
  <wgt id="79">5.9213e-12</wgt>
  <wgt id="80">5.89471e-12</wgt>
  <wgt id="81">5.90668e-12</wgt>
  <wgt id="82">5.9133e-12</wgt>
  <wgt id="83">5.89746e-12</wgt>
  <wgt id="84">5.90455e-12</wgt>
  <wgt id="85">5.9061e-12</wgt>
  <wgt id="86">5.92219e-12</wgt>
  <wgt id="87">5.89295e-12</wgt>
  <wgt id="88">5.91751e-12</wgt>
  <wgt id="89">5.91733e-12</wgt>
  <wgt id="90">5.91886e-12</wgt>
  <wgt id="91">5.91672e-12</wgt>
  <wgt id="92">5.92139e-12</wgt>
  <wgt id="93">5.91286e-12</wgt>
  <wgt id="94">5.91005e-12</wgt>
  <wgt id="95">5.9158e-12</wgt>
  <wgt id="96">5.91545e-12</wgt>
  <wgt id="97">5.90758e-12</wgt>
  <wgt id="98">5.91565e-12</wgt>
  <wgt id="99">5.91059e-12</wgt>
  <wgt id="100">5.91722e-12</wgt>
  <wgt id="101">5.91247e-12</wgt>
  <wgt id="102">5.90933e-12</wgt>
  <wgt id="103">5.91856e-12</wgt>
  <wgt id="104">5.91047e-12</wgt>
  <wgt id="105">5.91747e-12</wgt>
  <wgt id="106">5.90775e-12</wgt>
  <wgt id="107">5.92468e-12</wgt>
  <wgt id="108">5.90906e-12</wgt>
  <wgt id="109">5.91459e-12</wgt>
  <wgt id="110">5.91243e-12</wgt>
  <wgt id="111">5.9908e-12</wgt>
  <wgt id="112">5.89483e-12</wgt>
  <wgt id="113">7.60927e-12</wgt>
  <wgt id="114">7.95527e-12</wgt>
  <wgt id="115">7.84598e-12</wgt>
  <wgt id="116">1.03778e-11</wgt>
  <wgt id="117">6.40489e-12</wgt>
  <wgt id="118">6.42329e-12</wgt>
  <wgt id="119">6.39458e-12</wgt>
  <wgt id="120">6.4059e-12</wgt>
  <wgt id="121">6.40443e-12</wgt>
  <wgt id="122">6.39311e-12</wgt>
  <wgt id="123">6.42136e-12</wgt>
  <wgt id="124">6.3954e-12</wgt>
  <wgt id="125">6.41126e-12</wgt>
  <wgt id="126">6.41446e-12</wgt>
  <wgt id="127">6.39877e-12</wgt>
  <wgt id="128">6.42507e-12</wgt>
  <wgt id="129">6.38502e-12</wgt>
  <wgt id="130">6.44086e-12</wgt>
  <wgt id="131">6.36813e-12</wgt>
  <wgt id="132">6.25057e-12</wgt>
  <wgt id="133">6.58576e-12</wgt>
  <wgt id="134">6.34294e-12</wgt>
  <wgt id="135">6.45318e-12</wgt>
  <wgt id="136">6.47624e-12</wgt>
  <wgt id="137">6.31853e-12</wgt>
  <wgt id="138">6.622e-12</wgt>
  <wgt id="139">6.19299e-12</wgt>
  <wgt id="140">6.35993e-12</wgt>
  <wgt id="141">6.44049e-12</wgt>
  <wgt id="142">6.40609e-12</wgt>
  <wgt id="143">6.41121e-12</wgt>
  <wgt id="144">6.27696e-12</wgt>
  <wgt id="145">6.51986e-12</wgt>
  <wgt id="146">6.4449e-12</wgt>
  <wgt id="147">6.37451e-12</wgt>
  <wgt id="148">6.42171e-12</wgt>
  <wgt id="149">6.4039e-12</wgt>
  <wgt id="150">6.45679e-12</wgt>
  <wgt id="151">6.38082e-12</wgt>
  <wgt id="152">6.40698e-12</wgt>
  <wgt id="153">6.40437e-12</wgt>
  <wgt id="154">6.46699e-12</wgt>
  <wgt id="155">6.33338e-12</wgt>
  <wgt id="156">6.48482e-12</wgt>
  <wgt id="157">6.30661e-12</wgt>
  <wgt id="158">7.71287e-12</wgt>
  <wgt id="159">7.74443e-12</wgt>
  <wgt id="160">7.68704e-12</wgt>
  <wgt id="161">7.6963e-12</wgt>
  <wgt id="162">7.73106e-12</wgt>
  <wgt id="163">7.70585e-12</wgt>
  <wgt id="164">7.72335e-12</wgt>
  <wgt id="165">7.71615e-12</wgt>
  <wgt id="166">7.71053e-12</wgt>
  <wgt id="167">7.70711e-12</wgt>
  <wgt id="168">7.72077e-12</wgt>
  <wgt id="169">7.67922e-12</wgt>
  <wgt id="170">7.73372e-12</wgt>
  <wgt id="171">7.70548e-12</wgt>
  <wgt id="172">7.72287e-12</wgt>
  <wgt id="173">7.71573e-12</wgt>
  <wgt id="174">7.71147e-12</wgt>
  <wgt id="175">7.51629e-12</wgt>
  <wgt id="176">7.96696e-12</wgt>
  <wgt id="177">7.74816e-12</wgt>
  <wgt id="178">7.67968e-12</wgt>
  <wgt id="179">7.98947e-12</wgt>
  <wgt id="180">7.27102e-12</wgt>
  <wgt id="181">7.51693e-12</wgt>
  <wgt id="182">7.84149e-12</wgt>
  <wgt id="183">7.59241e-12</wgt>
  <wgt id="184">7.77241e-12</wgt>
  <wgt id="185">7.65759e-12</wgt>
  <wgt id="186">7.7757e-12</wgt>
  <wgt id="187">7.64961e-12</wgt>
  <wgt id="188">7.82638e-12</wgt>
  <wgt id="189">7.67082e-12</wgt>
  <wgt id="190">7.72999e-12</wgt>
  <wgt id="191">7.73062e-12</wgt>
  <wgt id="192">7.70226e-12</wgt>
  <wgt id="193">7.80572e-12</wgt>
  <wgt id="194">7.66674e-12</wgt>
  <wgt id="195">7.59403e-12</wgt>
  <wgt id="196">7.96012e-12</wgt>
  <wgt id="197">7.74661e-12</wgt>
  <wgt id="198">7.70464e-12</wgt>
  <wgt id="199">7.71287e-12</wgt>
  <wgt id="200">7.77217e-12</wgt>
  <wgt id="201">7.74976e-12</wgt>
  <wgt id="202">7.72846e-12</wgt>
  <wgt id="203">7.69556e-12</wgt>
  <wgt id="204">7.68027e-12</wgt>
  <wgt id="205">7.66733e-12</wgt>
  <wgt id="206">7.54801e-12</wgt>
  <wgt id="207">7.5909e-12</wgt>
  <wgt id="208">7.50551e-12</wgt>
  <wgt id="209">7.56546e-12</wgt>
  <wgt id="210">7.53523e-12</wgt>
  <wgt id="211">7.54638e-12</wgt>
  <wgt id="212">7.54924e-12</wgt>
  <wgt id="213">7.54719e-12</wgt>
  <wgt id="214">7.54887e-12</wgt>
  <wgt id="215">7.55209e-12</wgt>
  <wgt id="216">7.54502e-12</wgt>
  <wgt id="217">7.56742e-12</wgt>
  <wgt id="218">7.53292e-12</wgt>
  <wgt id="219">7.53634e-12</wgt>
  <wgt id="220">7.5549e-12</wgt>
  <wgt id="221">7.54407e-12</wgt>
  <wgt id="222">7.55708e-12</wgt>
  <wgt id="223">7.18762e-12</wgt>
  <wgt id="224">7.87405e-12</wgt>
  <wgt id="225">7.46933e-12</wgt>
  <wgt id="226">7.64609e-12</wgt>
  <wgt id="227">7.48364e-12</wgt>
  <wgt id="228">7.57622e-12</wgt>
  <wgt id="229">7.45238e-12</wgt>
  <wgt id="230">7.59527e-12</wgt>
  <wgt id="231">7.73927e-12</wgt>
  <wgt id="232">7.38968e-12</wgt>
  <wgt id="233">7.51394e-12</wgt>
  <wgt id="234">7.59793e-12</wgt>
  <wgt id="235">7.46003e-12</wgt>
  <wgt id="236">7.64677e-12</wgt>
  <wgt id="237">7.4771e-12</wgt>
  <wgt id="238">7.5728e-12</wgt>
  <wgt id="239">7.51531e-12</wgt>
  <wgt id="240">7.6082e-12</wgt>
  <wgt id="241">7.48229e-12</wgt>
  <wgt id="242">7.62659e-12</wgt>
  <wgt id="243">7.59758e-12</wgt>
  <wgt id="244">7.60829e-12</wgt>
  <wgt id="245">7.54043e-12</wgt>
  <wgt id="246">7.60972e-12</wgt>
  <wgt id="247">7.54801e-12</wgt>
  <wgt id="248">7.6067e-12</wgt>
  <wgt id="249">7.58382e-12</wgt>
  <wgt id="250">7.56276e-12</wgt>
  <wgt id="251">7.53044e-12</wgt>
  <wgt id="252">7.5157e-12</wgt>
  <wgt id="253">7.50434e-12</wgt>
  <wgt id="254">7.39186e-12</wgt>
  <wgt id="255">7.39894e-12</wgt>
  <wgt id="256">7.38439e-12</wgt>
  <wgt id="257">7.39796e-12</wgt>
  <wgt id="258">7.38737e-12</wgt>
  <wgt id="259">7.44058e-12</wgt>
  <wgt id="260">7.34494e-12</wgt>
  <wgt id="261">7.39734e-12</wgt>
  <wgt id="262">7.38567e-12</wgt>
  <wgt id="263">7.38998e-12</wgt>
  <wgt id="264">7.39398e-12</wgt>
  <wgt id="265">7.38519e-12</wgt>
  <wgt id="266">7.40509e-12</wgt>
  <wgt id="267">7.39394e-12</wgt>
  <wgt id="268">7.38925e-12</wgt>
  <wgt id="269">7.41116e-12</wgt>
  <wgt id="270">7.37884e-12</wgt>
  <wgt id="271">7.38014e-12</wgt>
  <wgt id="272">7.40501e-12</wgt>
  <wgt id="273">7.37119e-12</wgt>
  <wgt id="274">7.4078e-12</wgt>
  <wgt id="275">7.36748e-12</wgt>
  <wgt id="276">7.41704e-12</wgt>
  <wgt id="277">7.3537e-12</wgt>
  <wgt id="278">7.42729e-12</wgt>
  <wgt id="279">7.26618e-12</wgt>
  <wgt id="280">7.54893e-12</wgt>
  <wgt id="281">7.36466e-12</wgt>
  <wgt id="282">7.39128e-12</wgt>
  <wgt id="283">7.20937e-12</wgt>
  <wgt id="284">7.61507e-12</wgt>
  <wgt id="285">7.08477e-12</wgt>
  <wgt id="286">7.64258e-12</wgt>
  <wgt id="287">7.4121e-12</wgt>
  <wgt id="288">7.36576e-12</wgt>
  <wgt id="289">7.43636e-12</wgt>
  <wgt id="290">7.28501e-12</wgt>
  <wgt id="291">7.37737e-12</wgt>
  <wgt id="292">7.39565e-12</wgt>
  <wgt id="293">7.34297e-12</wgt>
  <wgt id="294">7.44036e-12</wgt>
  <wgt id="295">7.26915e-12</wgt>
  <wgt id="296">7.5411e-12</wgt>
  <wgt id="297">7.39993e-12</wgt>
  <wgt id="298">7.40966e-12</wgt>
  <wgt id="299">7.37171e-12</wgt>
  <wgt id="300">7.44477e-12</wgt>
  <wgt id="301">7.33612e-12</wgt>
  <wgt id="302">7.56756e-12</wgt>
  <wgt id="303">7.35624e-12</wgt>
  <wgt id="304">7.4134e-12</wgt>
  <wgt id="305">7.44535e-12</wgt>
  <wgt id="306">7.45286e-12</wgt>
  <wgt id="307">7.43726e-12</wgt>
  <wgt id="308">7.45221e-12</wgt>
  <wgt id="309">7.44086e-12</wgt>
  <wgt id="310">7.49616e-12</wgt>
  <wgt id="311">7.39827e-12</wgt>
  <wgt id="312">7.44814e-12</wgt>
  <wgt id="313">7.44297e-12</wgt>
  <wgt id="314">7.44343e-12</wgt>
  <wgt id="315">7.44709e-12</wgt>
  <wgt id="316">7.43911e-12</wgt>
  <wgt id="317">7.45892e-12</wgt>
  <wgt id="318">7.44963e-12</wgt>
  <wgt id="319">7.43808e-12</wgt>
  <wgt id="320">7.46516e-12</wgt>
  <wgt id="321">7.43426e-12</wgt>
  <wgt id="322">7.42928e-12</wgt>
  <wgt id="323">7.46406e-12</wgt>
  <wgt id="324">7.42814e-12</wgt>
  <wgt id="325">7.46037e-12</wgt>
  <wgt id="326">7.42561e-12</wgt>
  <wgt id="327">7.47049e-12</wgt>
  <wgt id="328">7.40953e-12</wgt>
  <wgt id="329">7.46613e-12</wgt>
  <wgt id="330">7.64373e-12</wgt>
  <wgt id="331">7.25507e-12</wgt>
  <wgt id="332">7.42297e-12</wgt>
  <wgt id="333">7.44388e-12</wgt>
  <wgt id="334">7.30037e-12</wgt>
  <wgt id="335">7.62402e-12</wgt>
  <wgt id="336">7.22052e-12</wgt>
  <wgt id="337">7.71537e-12</wgt>
  <wgt id="338">7.51736e-12</wgt>
  <wgt id="339">7.37811e-12</wgt>
  <wgt id="340">7.48819e-12</wgt>
  <wgt id="341">7.3323e-12</wgt>
  <wgt id="342">7.43608e-12</wgt>
  <wgt id="343">7.43957e-12</wgt>
  <wgt id="344">7.40027e-12</wgt>
  <wgt id="345">7.49763e-12</wgt>
  <wgt id="346">7.31725e-12</wgt>
  <wgt id="347">7.59262e-12</wgt>
  <wgt id="348">7.458e-12</wgt>
  <wgt id="349">7.45746e-12</wgt>
  <wgt id="350">7.41962e-12</wgt>
  <wgt id="351">7.51077e-12</wgt>
  <wgt id="352">7.38165e-12</wgt>
  <wgt id="353">7.63518e-12</wgt>
  <wgt id="354">7.38956e-12</wgt>
  <wgt id="355">7.4814e-12</wgt>
  <wgt id="356">7.39186e-12</wgt>
  <wgt id="357">7.4846e-12</wgt>
  <wgt id="358">7.44535e-12</wgt>
  <wgt id="359">7.42642e-12</wgt>
  <wgt id="360">7.41054e-12</wgt>
  <wgt id="361">7.40798e-12</wgt>
  <wgt id="362">7.5177e-12</wgt>
  <wgt id="363">7.50201e-12</wgt>
  <wgt id="364">7.4825e-12</wgt>
  <wgt id="365">7.46084e-12</wgt>
  <wgt id="366">7.43578e-12</wgt>
  <wgt id="367">7.38244e-12</wgt>
  <wgt id="368">7.35373e-12</wgt>
  <wgt id="369">7.32315e-12</wgt>
  <wgt id="370">7.40798e-12</wgt>
  <wgt id="371">7.4402e-12</wgt>
  <wgt id="372">7.42248e-12</wgt>
  <wgt id="373">7.396e-12</wgt>
  <wgt id="374">7.39032e-12</wgt>
  <wgt id="375">7.74793e-12</wgt>
  <wgt id="376">7.74867e-12</wgt>
  <wgt id="377">7.74685e-12</wgt>
  <wgt id="378">7.77519e-12</wgt>
  <wgt id="379">7.72077e-12</wgt>
  <wgt id="380">7.76925e-12</wgt>
  <wgt id="381">7.73935e-12</wgt>
  <wgt id="382">7.78234e-12</wgt>
  <wgt id="383">7.71374e-12</wgt>
  <wgt id="384">7.75273e-12</wgt>
  <wgt id="385">7.74323e-12</wgt>
  <wgt id="386">7.77419e-12</wgt>
  <wgt id="387">7.73655e-12</wgt>
  <wgt id="388">7.74143e-12</wgt>
  <wgt id="389">7.75559e-12</wgt>
  <wgt id="390">7.76646e-12</wgt>
  <wgt id="391">7.72825e-12</wgt>
  <wgt id="392">7.7022e-12</wgt>
  <wgt id="393">7.77362e-12</wgt>
  <wgt id="394">7.75876e-12</wgt>
  <wgt id="395">7.73271e-12</wgt>
  <wgt id="396">7.74711e-12</wgt>
  <wgt id="397">7.74821e-12</wgt>
  <wgt id="398">7.72042e-12</wgt>
  <wgt id="399">7.7743e-12</wgt>
  <wgt id="400">7.73742e-12</wgt>
  <wgt id="401">7.77097e-12</wgt>
  <wgt id="402">7.69524e-12</wgt>
  <wgt id="403">7.76689e-12</wgt>
  <wgt id="404">7.89688e-12</wgt>
  <wgt id="405">7.38561e-12</wgt>
  <wgt id="406">7.63977e-12</wgt>
  <wgt id="407">7.97932e-12</wgt>
  <wgt id="408">7.80312e-12</wgt>
  <wgt id="409">7.64051e-12</wgt>
  <wgt id="410">7.56855e-12</wgt>
  <wgt id="411">7.82857e-12</wgt>
  <wgt id="412">7.73665e-12</wgt>
  <wgt id="413">7.76206e-12</wgt>
  <wgt id="414">7.67645e-12</wgt>
  <wgt id="415">7.80339e-12</wgt>
  <wgt id="416">7.90762e-12</wgt>
  <wgt id="417">7.52614e-12</wgt>
  <wgt id="418">7.7564e-12</wgt>
  <wgt id="419">7.70166e-12</wgt>
  <wgt id="420">7.8085e-12</wgt>
  <wgt id="421">7.72293e-12</wgt>
  <wgt id="422">7.75536e-12</wgt>
  <wgt id="423">7.74659e-12</wgt>
  <wgt id="424">7.85113e-12</wgt>
  <wgt id="425">7.68796e-12</wgt>
  <wgt id="426">7.74793e-12</wgt>
  <wgt id="427">7.70911e-12</wgt>
  <wgt id="428">7.87921e-12</wgt>
  <wgt id="429">7.7959e-12</wgt>
  <wgt id="430">7.98329e-12</wgt>
  <wgt id="431">7.94645e-12</wgt>
  <wgt id="432">7.91076e-12</wgt>
  <wgt id="433">7.87585e-12</wgt>
  <wgt id="434">7.83515e-12</wgt>
  <wgt id="435">7.74648e-12</wgt>
  <wgt id="436">7.70019e-12</wgt>
  <wgt id="437">7.65687e-12</wgt>
  <wgt id="438">7.7959e-12</wgt>
  <wgt id="439">7.82125e-12</wgt>
  <wgt id="440">7.8067e-12</wgt>
  <wgt id="441">7.78758e-12</wgt>
  <wgt id="442">7.78032e-12</wgt>
  <wgt id="443">7.69723e-12</wgt>
  <wgt id="444">7.7247e-12</wgt>
  <wgt id="445">7.67735e-12</wgt>
  <wgt id="446">7.65337e-12</wgt>
  <wgt id="447">7.67591e-12</wgt>
  <wgt id="448">7.52516e-12</wgt>
  <wgt id="449">7.79589e-12</wgt>
  <wgt id="450">7.66819e-12</wgt>
  <wgt id="451">7.68839e-12</wgt>
  <wgt id="452">7.83479e-12</wgt>
  <wgt id="453">7.7438e-12</wgt>
  <wgt id="454">7.42341e-12</wgt>
  <wgt id="455">7.70766e-12</wgt>
  <wgt id="456">7.56899e-12</wgt>
  <wgt id="457">7.71883e-12</wgt>
  <wgt id="458">7.77281e-12</wgt>
  <wgt id="459">7.74081e-12</wgt>
  <wgt id="460">7.73977e-12</wgt>
  <wgt id="461">7.59402e-12</wgt>
  <wgt id="462">7.65551e-12</wgt>
  <wgt id="463">7.63208e-12</wgt>
  <wgt id="464">7.66954e-12</wgt>
  <wgt id="465">7.75397e-12</wgt>
  <wgt id="466">7.63177e-12</wgt>
  <wgt id="467">7.6437e-12</wgt>
  <wgt id="468">7.68202e-12</wgt>
  <wgt id="469">7.68554e-12</wgt>
  <wgt id="470">7.63993e-12</wgt>
  <wgt id="471">7.6492e-12</wgt>
  <wgt id="472">7.72172e-12</wgt>
  <wgt id="473">7.52403e-12</wgt>
  <wgt id="474">5.79e-12</wgt>
  <wgt id="475">6.12401e-12</wgt>
  <wgt id="476">5.69596e-12</wgt>
  <wgt id="477">5.73553e-12</wgt>
  <wgt id="478">5.831e-12</wgt>
  <wgt id="479">5.75445e-12</wgt>
  <wgt id="480">5.93904e-12</wgt>
  <wgt id="481">5.63722e-12</wgt>
  <wgt id="482">5.56755e-12</wgt>
  <wgt id="483">5.65116e-12</wgt>
  <wgt id="484">6.18465e-12</wgt>
  <wgt id="485">5.80707e-12</wgt>
  <wgt id="486">5.85581e-12</wgt>
  <wgt id="487">5.82769e-12</wgt>
  <wgt id="488">5.85405e-12</wgt>
  <wgt id="489">5.55646e-12</wgt>
  <wgt id="490">5.64468e-12</wgt>
  <wgt id="491">5.74194e-12</wgt>
  <wgt id="492">5.62664e-12</wgt>
  <wgt id="493">5.61216e-12</wgt>
  <wgt id="494">5.62447e-12</wgt>
  <wgt id="495">5.83849e-12</wgt>
  <wgt id="496">5.59474e-12</wgt>
  <wgt id="497">5.60871e-12</wgt>
  <wgt id="498">5.85516e-12</wgt>
  <wgt id="499">5.6544e-12</wgt>
  <wgt id="500">5.67628e-12</wgt>
  <wgt id="501">6.00336e-12</wgt>
  <wgt id="502">5.63939e-12</wgt>
  <wgt id="503">5.76732e-12</wgt>
  <wgt id="504">5.76973e-12</wgt>
  <wgt id="505">5.86244e-12</wgt>
  <wgt id="506">5.81709e-12</wgt>
  <wgt id="507">5.72707e-12</wgt>
  <wgt id="508">5.90526e-12</wgt>
  <wgt id="509">5.76785e-12</wgt>
  <wgt id="510">5.89184e-12</wgt>
  <wgt id="511">5.64896e-12</wgt>
  <wgt id="512">5.84655e-12</wgt>
  <wgt id="513">5.92635e-12</wgt>
  <wgt id="514">5.75402e-12</wgt>
  <wgt id="515">5.73414e-12</wgt>
  <wgt id="516">5.94661e-12</wgt>
  <wgt id="517">5.9269e-12</wgt>
  <wgt id="518">5.95748e-12</wgt>
  <wgt id="519">5.69085e-12</wgt>
  <wgt id="520">5.80265e-12</wgt>
  <wgt id="521">5.99957e-12</wgt>
  <wgt id="522">6.00264e-12</wgt>
  <wgt id="523">5.85674e-12</wgt>
  <wgt id="524">5.88901e-12</wgt>
  <wgt id="525">5.89346e-12</wgt>
  <wgt id="526">5.76497e-12</wgt>
  <wgt id="527">5.90369e-12</wgt>
  <wgt id="528">5.75875e-12</wgt>
  <wgt id="529">5.75463e-12</wgt>
  <wgt id="530">5.81361e-12</wgt>
  <wgt id="531">5.7018e-12</wgt>
  <wgt id="532">6.06691e-12</wgt>
  <wgt id="533">5.46476e-12</wgt>
  <wgt id="534">5.77487e-12</wgt>
  <wgt id="535">5.84767e-12</wgt>
  <wgt id="536">5.81441e-12</wgt>
  <wgt id="537">5.80889e-12</wgt>
  <wgt id="538">5.91326e-12</wgt>
  <wgt id="539">5.649e-12</wgt>
  <wgt id="540">5.78194e-12</wgt>
  <wgt id="541">5.7399e-12</wgt>
  <wgt id="542">5.64966e-12</wgt>
  <wgt id="543">5.78242e-12</wgt>
  <wgt id="544">6.05884e-12</wgt>
  <wgt id="545">5.70648e-12</wgt>
  <wgt id="546">5.72493e-12</wgt>
  <wgt id="547">5.63646e-12</wgt>
  <wgt id="548">5.55949e-12</wgt>
  <wgt id="549">5.71833e-12</wgt>
  <wgt id="550">5.84449e-12</wgt>
  <wgt id="551">5.87519e-12</wgt>
  <wgt id="552">5.71422e-12</wgt>
  <wgt id="553">5.77395e-12</wgt>
  <wgt id="554">6.21552e-12</wgt>
  <wgt id="555">5.96417e-12</wgt>
  <wgt id="556">5.64468e-12</wgt>
  <wgt id="557">5.87674e-12</wgt>
  <wgt id="558">5.61511e-12</wgt>
  <wgt id="559">5.71755e-12</wgt>
  <wgt id="560">6.22783e-12</wgt>
  <wgt id="561">5.64822e-12</wgt>
  <wgt id="562">5.86295e-12</wgt>
  <wgt id="563">5.69208e-12</wgt>
  <wgt id="564">5.80814e-12</wgt>
  <wgt id="565">5.65223e-12</wgt>
  <wgt id="566">5.82235e-12</wgt>
  <wgt id="567">5.70393e-12</wgt>
  <wgt id="568">5.81708e-12</wgt>
  <wgt id="569">5.79781e-12</wgt>
  <wgt id="570">5.68727e-12</wgt>
  <wgt id="571">6.37519e-12</wgt>
  <wgt id="572">5.68518e-12</wgt>
  <wgt id="573">5.5481e-12</wgt>
  <wgt id="574">5.6028e-12</wgt>
  <wgt id="575">6.30279e-12</wgt>
  <wgt id="576">6.19131e-12</wgt>
  <wgt id="577">6.57057e-12</wgt>
  <wgt id="578">6.38863e-12</wgt>
  <wgt id="579">6.33738e-12</wgt>
  <wgt id="580">6.39067e-12</wgt>
  <wgt id="581">6.65436e-12</wgt>
  <wgt id="582">6.1768e-12</wgt>
  <wgt id="583">6.34863e-12</wgt>
  <wgt id="584">6.2981e-12</wgt>
  <wgt id="585">6.32211e-12</wgt>
  <wgt id="586">6.15074e-12</wgt>
  <wgt id="587">6.35803e-12</wgt>
  <wgt id="588">6.26396e-12</wgt>
  <wgt id="589">6.34503e-12</wgt>
  <wgt id="590">6.37197e-12</wgt>
  <wgt id="591">6.56196e-12</wgt>
  <wgt id="592">6.18126e-12</wgt>
  <wgt id="593">6.26597e-12</wgt>
  <wgt id="594">6.60704e-12</wgt>
  <wgt id="595">6.25536e-12</wgt>
  <wgt id="596">6.44006e-12</wgt>
  <wgt id="597">6.06192e-12</wgt>
  <wgt id="598">6.31515e-12</wgt>
  <wgt id="599">6.56694e-12</wgt>
  <wgt id="600">6.26095e-12</wgt>
  <wgt id="601">6.12465e-12</wgt>
  <wgt id="602">6.19597e-12</wgt>
  <wgt id="603">6.24504e-12</wgt>
  <wgt id="604">6.37502e-12</wgt>
  <wgt id="605">6.5529e-12</wgt>
  <wgt id="606">6.16166e-12</wgt>
  <wgt id="607">6.22422e-12</wgt>
  <wgt id="608">6.24397e-12</wgt>
  <wgt id="609">5.93646e-12</wgt>
  <wgt id="610">6.06118e-12</wgt>
  <wgt id="611">6.42187e-12</wgt>
  <wgt id="612">6.79566e-12</wgt>
  <wgt id="613">6.32881e-12</wgt>
  <wgt id="614">6.35834e-12</wgt>
  <wgt id="615">6.19368e-12</wgt>
  <wgt id="616">6.7448e-12</wgt>
  <wgt id="617">6.45829e-12</wgt>
  <wgt id="618">6.28221e-12</wgt>
  <wgt id="619">6.30532e-12</wgt>
  <wgt id="620">6.44364e-12</wgt>
  <wgt id="621">6.38146e-12</wgt>
  <wgt id="622">6.35803e-12</wgt>
  <wgt id="623">6.44131e-12</wgt>
  <wgt id="624">6.2467e-12</wgt>
  <wgt id="625">6.22747e-12</wgt>
  <wgt id="626">6.1731e-12</wgt>
  <wgt id="627">6.10518e-12</wgt>
  <wgt id="628">6.52091e-12</wgt>
  <wgt id="629">6.19828e-12</wgt>
  <wgt id="630">6.18315e-12</wgt>
  <wgt id="631">6.28258e-12</wgt>
  <wgt id="632">6.15323e-12</wgt>
  <wgt id="633">6.22614e-12</wgt>
  <wgt id="634">6.35794e-12</wgt>
  <wgt id="635">6.29036e-12</wgt>
  <wgt id="636">6.35223e-12</wgt>
  <wgt id="637">6.36288e-12</wgt>
  <wgt id="638">6.12065e-12</wgt>
  <wgt id="639">6.25531e-12</wgt>
  <wgt id="640">6.32967e-12</wgt>
  <wgt id="641">6.30952e-12</wgt>
  <wgt id="642">6.24333e-12</wgt>
  <wgt id="643">6.29647e-12</wgt>
  <wgt id="644">6.09963e-12</wgt>
  <wgt id="645">6.31834e-12</wgt>
  <wgt id="646">6.43102e-12</wgt>
  <wgt id="647">6.187e-12</wgt>
  <wgt id="648">6.33301e-12</wgt>
  <wgt id="649">6.38396e-12</wgt>
  <wgt id="650">6.18995e-12</wgt>
  <wgt id="651">6.42232e-12</wgt>
  <wgt id="652">6.31658e-12</wgt>
  <wgt id="653">6.15278e-12</wgt>
  <wgt id="654">6.26766e-12</wgt>
  <wgt id="655">6.15387e-12</wgt>
  <wgt id="656">6.24016e-12</wgt>
  <wgt id="657">6.40902e-12</wgt>
  <wgt id="658">6.45202e-12</wgt>
  <wgt id="659">6.08908e-12</wgt>
  <wgt id="660">6.40828e-12</wgt>
  <wgt id="661">6.23121e-12</wgt>
  <wgt id="662">6.25562e-12</wgt>
  <wgt id="663">6.27703e-12</wgt>
  <wgt id="664">6.20628e-12</wgt>
  <wgt id="665">6.28438e-12</wgt>
  <wgt id="666">6.31531e-12</wgt>
  <wgt id="667">6.50467e-12</wgt>
  <wgt id="668">6.2573e-12</wgt>
  <wgt id="669">6.45938e-12</wgt>
  <wgt id="670">6.34734e-12</wgt>
  <wgt id="671">6.17865e-12</wgt>
  <wgt id="672">6.04838e-12</wgt>
  <wgt id="673">6.26522e-12</wgt>
  <wgt id="674">6.16581e-12</wgt>
  <wgt id="675">6.1463e-12</wgt>
  <wgt id="676">7.73473e-12</wgt>
  <wgt id="677">7.86011e-12</wgt>
  <wgt id="678">8.06592e-12</wgt>
  <wgt id="679">7.48411e-12</wgt>
  <wgt id="680">7.42744e-12</wgt>
  <wgt id="681">7.9796e-12</wgt>
  <wgt id="682">7.77211e-12</wgt>
  <wgt id="683">7.69551e-12</wgt>
  <wgt id="684">8.03528e-12</wgt>
  <wgt id="685">7.37865e-12</wgt>
  <wgt id="686">7.86667e-12</wgt>
  <wgt id="687">8.00572e-12</wgt>
  <wgt id="688">7.66956e-12</wgt>
  <wgt id="689">8.13911e-12</wgt>
  <wgt id="690">8.16757e-12</wgt>
  <wgt id="691">8.07911e-12</wgt>
  <wgt id="692">7.75377e-12</wgt>
  <wgt id="693">8.74178e-12</wgt>
  <wgt id="694">8.14338e-12</wgt>
  <wgt id="695">7.48524e-12</wgt>
  <wgt id="696">7.46053e-12</wgt>
  <wgt id="697">7.47067e-12</wgt>
  <wgt id="698">7.37595e-12</wgt>
  <wgt id="699">7.25344e-12</wgt>
  <wgt id="700">7.02758e-12</wgt>
  <wgt id="701">7.73313e-12</wgt>
  <wgt id="702">7.40361e-12</wgt>
  <wgt id="703">8.62384e-12</wgt>
  <wgt id="704">8.21408e-12</wgt>
  <wgt id="705">8.00827e-12</wgt>
  <wgt id="706">7.29071e-12</wgt>
  <wgt id="707">7.46532e-12</wgt>
  <wgt id="708">7.64384e-12</wgt>
  <wgt id="709">7.61031e-12</wgt>
  <wgt id="710">7.01891e-12</wgt>
  <wgt id="711">7.75369e-12</wgt>
  <wgt id="712">7.64649e-12</wgt>
  <wgt id="713">8.15473e-12</wgt>
  <wgt id="714">7.74319e-12</wgt>
  <wgt id="715">7.65614e-12</wgt>
  <wgt id="716">7.4803e-12</wgt>
  <wgt id="717">7.47398e-12</wgt>
  <wgt id="718">7.56239e-12</wgt>
  <wgt id="719">7.15611e-12</wgt>
  <wgt id="720">7.41974e-12</wgt>
  <wgt id="721">7.49055e-12</wgt>
  <wgt id="722">7.13231e-12</wgt>
  <wgt id="723">8.096e-12</wgt>
  <wgt id="724">7.98598e-12</wgt>
  <wgt id="725">8.1524e-12</wgt>
  <wgt id="726">7.81379e-12</wgt>
  <wgt id="727">7.5752e-12</wgt>
  <wgt id="728">7.72039e-12</wgt>
  <wgt id="729">7.13664e-12</wgt>
  <wgt id="730">8.06305e-12</wgt>
  <wgt id="731">7.66757e-12</wgt>
  <wgt id="732">8.35194e-12</wgt>
  <wgt id="733">7.69815e-12</wgt>
  <wgt id="734">7.89246e-12</wgt>
  <wgt id="735">7.72581e-12</wgt>
  <wgt id="736">7.66373e-12</wgt>
  <wgt id="737">7.84532e-12</wgt>
  <wgt id="738">7.54439e-12</wgt>
  <wgt id="739">7.63742e-12</wgt>
  <wgt id="740">8.47394e-12</wgt>
  <wgt id="741">6.93966e-12</wgt>
  <wgt id="742">7.63972e-12</wgt>
  <wgt id="743">7.5967e-12</wgt>
  <wgt id="744">7.58629e-12</wgt>
  <wgt id="745">7.94583e-12</wgt>
  <wgt id="746">8.01246e-12</wgt>
  <wgt id="747">7.24873e-12</wgt>
  <wgt id="748">7.6008e-12</wgt>
  <wgt id="749">8.15267e-12</wgt>
  <wgt id="750">7.65066e-12</wgt>
  <wgt id="751">8.00437e-12</wgt>
  <wgt id="752">7.2258e-12</wgt>
  <wgt id="753">7.38753e-12</wgt>
  <wgt id="754">7.83376e-12</wgt>
  <wgt id="755">7.789e-12</wgt>
  <wgt id="756">7.74488e-12</wgt>
  <wgt id="757">7.27673e-12</wgt>
  <wgt id="758">7.83161e-12</wgt>
  <wgt id="759">7.66827e-12</wgt>
  <wgt id="760">7.89197e-12</wgt>
  <wgt id="761">8.12719e-12</wgt>
  <wgt id="762">8.08649e-12</wgt>
  <wgt id="763">7.78933e-12</wgt>
  <wgt id="764">7.96082e-12</wgt>
  <wgt id="765">7.73779e-12</wgt>
  <wgt id="766">7.69473e-12</wgt>
  <wgt id="767">7.86742e-12</wgt>
  <wgt id="768">7.41461e-12</wgt>
  <wgt id="769">8.12396e-12</wgt>
  <wgt id="770">7.58901e-12</wgt>
  <wgt id="771">8.88403e-12</wgt>
  <wgt id="772">7.30003e-12</wgt>
  <wgt id="773">7.72693e-12</wgt>
  <wgt id="774">7.1004e-12</wgt>
  <wgt id="775">7.99914e-12</wgt>
  <wgt id="776">8.36427e-12</wgt>
  <wgt id="777">7.61703e-12</wgt>
  <wgt id="778">5.92523e-12</wgt>
  <wgt id="779">5.176e-12</wgt>
  <wgt id="780">4.5604e-12</wgt>
  <wgt id="781">5.91249e-12</wgt>
  <wgt id="782">6.26395e-12</wgt>
  <wgt id="783">5.30576e-12</wgt>
  <wgt id="784">5.37963e-12</wgt>
  <wgt id="785">6.9718e-12</wgt>
  <wgt id="786">4.75366e-12</wgt>
  <wgt id="787">6.47824e-12</wgt>
  <wgt id="788">4.23862e-12</wgt>
  <wgt id="789">4.97257e-12</wgt>
  <wgt id="790">4.76729e-12</wgt>
  <wgt id="791">5.52665e-12</wgt>
  <wgt id="792">7.5022e-12</wgt>
  <wgt id="793">5.71777e-12</wgt>
  <wgt id="794">4.91525e-12</wgt>
  <wgt id="795">6.54341e-12</wgt>
  <wgt id="796">7.49494e-12</wgt>
  <wgt id="797">6.58193e-12</wgt>
  <wgt id="798">5.59801e-12</wgt>
  <wgt id="799">6.52419e-12</wgt>
  <wgt id="800">4.98848e-12</wgt>
  <wgt id="801">5.67035e-12</wgt>
  <wgt id="802">4.9725e-12</wgt>
  <wgt id="803">7.64915e-12</wgt>
  <wgt id="804">6.51573e-12</wgt>
  <wgt id="805">6.62056e-12</wgt>
  <wgt id="806">6.68683e-12</wgt>
  <wgt id="807">5.75453e-12</wgt>
  <wgt id="808">5.80645e-12</wgt>
  <wgt id="809">5.5291e-12</wgt>
  <wgt id="810">6.72713e-12</wgt>
  <wgt id="811">6.34394e-12</wgt>
  <wgt id="812">4.89214e-12</wgt>
  <wgt id="813">4.88246e-12</wgt>
  <wgt id="814">4.96129e-12</wgt>
  <wgt id="815">5.20167e-12</wgt>
  <wgt id="816">4.73984e-12</wgt>
  <wgt id="817">6.23187e-12</wgt>
  <wgt id="818">5.70802e-12</wgt>
  <wgt id="819">5.22552e-12</wgt>
  <wgt id="820">5.9502e-12</wgt>
  <wgt id="821">6.5321e-12</wgt>
  <wgt id="822">5.33117e-12</wgt>
  <wgt id="823">6.53355e-12</wgt>
  <wgt id="824">7.67255e-12</wgt>
  <wgt id="825">4.73453e-12</wgt>
  <wgt id="826">6.03149e-12</wgt>
  <wgt id="827">4.10473e-12</wgt>
  <wgt id="828">7.5246e-12</wgt>
  <wgt id="829">6.02772e-12</wgt>
  <wgt id="830">4.52617e-12</wgt>
  <wgt id="831">6.2217e-12</wgt>
  <wgt id="832">9.10864e-12</wgt>
  <wgt id="833">5.71823e-12</wgt>
  <wgt id="834">8.60194e-12</wgt>
  <wgt id="835">4.98232e-12</wgt>
  <wgt id="836">5.97702e-12</wgt>
  <wgt id="837">6.46109e-12</wgt>
  <wgt id="838">5.68324e-12</wgt>
  <wgt id="839">6.21127e-12</wgt>
  <wgt id="840">5.72072e-12</wgt>
  <wgt id="841">6.84438e-12</wgt>
  <wgt id="842">5.57212e-12</wgt>
  <wgt id="843">5.71737e-12</wgt>
  <wgt id="844">6.04472e-12</wgt>
  <wgt id="845">7.74443e-12</wgt>
  <wgt id="846">5.55855e-12</wgt>
  <wgt id="847">5.77317e-12</wgt>
  <wgt id="848">5.42143e-12</wgt>
  <wgt id="849">6.02267e-12</wgt>
  <wgt id="850">7.23097e-12</wgt>
  <wgt id="851">6.36976e-12</wgt>
  <wgt id="852">5.29456e-12</wgt>
  <wgt id="853">6.3091e-12</wgt>
  <wgt id="854">6.92866e-12</wgt>
  <wgt id="855">6.4957e-12</wgt>
  <wgt id="856">4.62394e-12</wgt>
  <wgt id="857">6.01818e-12</wgt>
  <wgt id="858">5.83374e-12</wgt>
  <wgt id="859">5.58954e-12</wgt>
  <wgt id="860">6.09536e-12</wgt>
  <wgt id="861">5.4979e-12</wgt>
  <wgt id="862">5.97085e-12</wgt>
  <wgt id="863">6.09571e-12</wgt>
  <wgt id="864">6.11885e-12</wgt>
  <wgt id="865">7.86737e-12</wgt>
  <wgt id="866">8.6169e-12</wgt>
  <wgt id="867">5.87517e-12</wgt>
  <wgt id="868">5.75433e-12</wgt>
  <wgt id="869">4.88776e-12</wgt>
  <wgt id="870">5.13724e-12</wgt>
  <wgt id="871">5.01544e-12</wgt>
  <wgt id="872">6.6741e-12</wgt>
  <wgt id="873">5.10731e-12</wgt>
  <wgt id="874">6.0898e-12</wgt>
  <wgt id="875">5.25076e-12</wgt>
  <wgt id="876">6.66223e-12</wgt>
  <wgt id="877">6.47932e-12</wgt>
  <wgt id="878">5.3726e-12</wgt>
  <wgt id="879">7.73473e-12</wgt>
  <wgt id="880">7.86011e-12</wgt>
  <wgt id="881">8.06592e-12</wgt>
  <wgt id="882">7.48411e-12</wgt>
  <wgt id="883">7.42744e-12</wgt>
  <wgt id="884">7.9796e-12</wgt>
  <wgt id="885">7.77211e-12</wgt>
  <wgt id="886">7.69551e-12</wgt>
  <wgt id="887">8.03528e-12</wgt>
  <wgt id="888">7.37865e-12</wgt>
  <wgt id="889">7.86667e-12</wgt>
  <wgt id="890">8.00572e-12</wgt>
  <wgt id="891">7.66956e-12</wgt>
  <wgt id="892">8.13911e-12</wgt>
  <wgt id="893">8.16757e-12</wgt>
  <wgt id="894">8.07911e-12</wgt>
  <wgt id="895">7.75377e-12</wgt>
  <wgt id="896">8.74178e-12</wgt>
  <wgt id="897">8.14338e-12</wgt>
  <wgt id="898">7.48524e-12</wgt>
  <wgt id="899">7.46053e-12</wgt>
  <wgt id="900">7.47067e-12</wgt>
  <wgt id="901">7.37595e-12</wgt>
  <wgt id="902">7.25344e-12</wgt>
  <wgt id="903">7.02758e-12</wgt>
  <wgt id="904">7.73313e-12</wgt>
  <wgt id="905">7.40361e-12</wgt>
  <wgt id="906">8.62384e-12</wgt>
  <wgt id="907">8.21408e-12</wgt>
  <wgt id="908">8.00827e-12</wgt>
  <wgt id="909">7.29071e-12</wgt>
  <wgt id="910">7.46532e-12</wgt>
  <wgt id="911">7.64384e-12</wgt>
  <wgt id="912">7.61031e-12</wgt>
  <wgt id="913">7.01891e-12</wgt>
  <wgt id="914">7.75369e-12</wgt>
  <wgt id="915">7.64649e-12</wgt>
  <wgt id="916">8.15473e-12</wgt>
  <wgt id="917">7.74319e-12</wgt>
  <wgt id="918">7.65614e-12</wgt>
  <wgt id="919">7.4803e-12</wgt>
  <wgt id="920">7.47398e-12</wgt>
  <wgt id="921">7.56239e-12</wgt>
  <wgt id="922">7.15611e-12</wgt>
  <wgt id="923">7.41974e-12</wgt>
  <wgt id="924">7.49055e-12</wgt>
  <wgt id="925">7.13231e-12</wgt>
  <wgt id="926">8.096e-12</wgt>
  <wgt id="927">7.98598e-12</wgt>
  <wgt id="928">8.1524e-12</wgt>
  <wgt id="929">7.81379e-12</wgt>
  <wgt id="930">7.5752e-12</wgt>
  <wgt id="931">7.72039e-12</wgt>
  <wgt id="932">7.13664e-12</wgt>
  <wgt id="933">8.06305e-12</wgt>
  <wgt id="934">7.66757e-12</wgt>
  <wgt id="935">8.35194e-12</wgt>
  <wgt id="936">7.69815e-12</wgt>
  <wgt id="937">7.89246e-12</wgt>
  <wgt id="938">7.72581e-12</wgt>
  <wgt id="939">7.66373e-12</wgt>
  <wgt id="940">7.84532e-12</wgt>
  <wgt id="941">7.54439e-12</wgt>
  <wgt id="942">7.63742e-12</wgt>
  <wgt id="943">8.47394e-12</wgt>
  <wgt id="944">6.93966e-12</wgt>
  <wgt id="945">7.63972e-12</wgt>
  <wgt id="946">7.5967e-12</wgt>
  <wgt id="947">7.58629e-12</wgt>
  <wgt id="948">7.94583e-12</wgt>
  <wgt id="949">8.01246e-12</wgt>
  <wgt id="950">7.24873e-12</wgt>
  <wgt id="951">7.6008e-12</wgt>
  <wgt id="952">8.15267e-12</wgt>
  <wgt id="953">7.65066e-12</wgt>
  <wgt id="954">8.00437e-12</wgt>
  <wgt id="955">7.2258e-12</wgt>
  <wgt id="956">7.38753e-12</wgt>
  <wgt id="957">7.83376e-12</wgt>
  <wgt id="958">7.789e-12</wgt>
  <wgt id="959">7.74488e-12</wgt>
  <wgt id="960">7.27673e-12</wgt>
  <wgt id="961">7.83161e-12</wgt>
  <wgt id="962">7.66827e-12</wgt>
  <wgt id="963">7.89197e-12</wgt>
  <wgt id="964">8.12719e-12</wgt>
  <wgt id="965">8.08649e-12</wgt>
  <wgt id="966">7.78933e-12</wgt>
  <wgt id="967">7.96082e-12</wgt>
  <wgt id="968">7.73779e-12</wgt>
  <wgt id="969">7.69473e-12</wgt>
  <wgt id="970">7.86742e-12</wgt>
  <wgt id="971">7.41461e-12</wgt>
  <wgt id="972">8.12396e-12</wgt>
  <wgt id="973">7.58901e-12</wgt>
  <wgt id="974">8.88403e-12</wgt>
  <wgt id="975">7.30003e-12</wgt>
  <wgt id="976">7.72693e-12</wgt>
  <wgt id="977">7.1004e-12</wgt>
  <wgt id="978">7.99914e-12</wgt>
  <wgt id="979">8.36427e-12</wgt>
  <wgt id="980">7.75998e-12</wgt>
  <wgt id="981">7.7418e-12</wgt>
  <wgt id="982">7.52651e-12</wgt>
</rwgt>
</event>
<event>
 5   1  0.5790000E-11  0.2247412E+04  0.7818608E-02  0.7731243E-01
       21   -1    0    0  502  501  0.00000000000E+00  0.00000000000E+00  0.10892359104E+04  0.10892359104E+04  0.00000000000E+00 0.  1.
       21   -1    0    0  501  502 -0.00000000000E+00 -0.00000000000E+00 -0.11592670788E+04  0.11592670788E+04  0.00000000000E+00 0. -1.
       39    2    1    2    0    0  0.00000000000E+00  0.00000000000E+00 -0.70031168451E+02  0.22485029892E+04  0.22474121402E+04 0.  0.
       25    1    3    3    0    0  0.66411352866E+03 -0.57775048521E+03 -0.72255211458E+03  0.11456652916E+04  0.12500000000E+03 0.  0.
       25    1    3    3    0    0 -0.66411352866E+03  0.57775048521E+03  0.65252094613E+03  0.11028376976E+04  0.12500000000E+03 0.  0.
<mgrwt>
<rscale>  0 0.22474121E+04</rscale>
<asrwt>0</asrwt>
<pdfrwt beam="1">  1       21 0.16757476E+00 0.22474121E+04</pdfrwt>
<pdfrwt beam="2">  1       21 0.17834878E+00 0.22474121E+04</pdfrwt>
<totfact> 0.16463597E+01</totfact>
</mgrwt>
<rwgt>
  <wgt id="1">5.79e-12</wgt>
  <wgt id="2">5.05046e-12</wgt>
  <wgt id="3">6.70615e-12</wgt>
  <wgt id="4">5.79e-12</wgt>
  <wgt id="5">5.05046e-12</wgt>
  <wgt id="6">6.70615e-12</wgt>
  <wgt id="7">5.79e-12</wgt>
  <wgt id="8">5.05046e-12</wgt>
  <wgt id="9">6.70615e-12</wgt>
  <wgt id="10">5.96325e-12</wgt>
  <wgt id="11">5.95682e-12</wgt>
  <wgt id="12">5.95125e-12</wgt>
  <wgt id="13">5.94239e-12</wgt>
  <wgt id="14">5.98472e-12</wgt>
  <wgt id="15">5.97151e-12</wgt>
  <wgt id="16">5.94959e-12</wgt>
  <wgt id="17">5.97144e-12</wgt>
  <wgt id="18">5.95416e-12</wgt>
  <wgt id="19">5.97613e-12</wgt>
  <wgt id="20">5.94467e-12</wgt>
  <wgt id="21">5.93276e-12</wgt>
  <wgt id="22">5.94683e-12</wgt>
  <wgt id="23">5.91415e-12</wgt>
  <wgt id="24">5.93852e-12</wgt>
  <wgt id="25">5.9492e-12</wgt>
  <wgt id="26">5.98935e-12</wgt>
  <wgt id="27">5.96348e-12</wgt>
  <wgt id="28">5.93588e-12</wgt>
  <wgt id="29">5.9698e-12</wgt>
  <wgt id="30">5.95148e-12</wgt>
  <wgt id="31">5.97725e-12</wgt>
  <wgt id="32">5.95371e-12</wgt>
  <wgt id="33">5.97717e-12</wgt>
  <wgt id="34">5.94715e-12</wgt>
  <wgt id="35">5.95935e-12</wgt>
  <wgt id="36">5.97831e-12</wgt>
  <wgt id="37">5.94816e-12</wgt>
  <wgt id="38">5.94803e-12</wgt>
  <wgt id="39">6.02092e-12</wgt>
  <wgt id="40">5.97892e-12</wgt>
  <wgt id="41">5.96227e-12</wgt>
  <wgt id="42">5.98188e-12</wgt>
  <wgt id="43">5.9685e-12</wgt>
  <wgt id="44">5.93734e-12</wgt>
  <wgt id="45">5.97402e-12</wgt>
  <wgt id="46">5.97286e-12</wgt>
  <wgt id="47">5.93394e-12</wgt>
  <wgt id="48">5.96374e-12</wgt>
  <wgt id="49">5.98848e-12</wgt>
  <wgt id="50">6.00611e-12</wgt>
  <wgt id="51">5.99261e-12</wgt>
  <wgt id="52">5.94224e-12</wgt>
  <wgt id="53">5.92242e-12</wgt>
  <wgt id="54">5.94944e-12</wgt>
  <wgt id="55">5.96188e-12</wgt>
  <wgt id="56">5.98074e-12</wgt>
  <wgt id="57">5.98449e-12</wgt>
  <wgt id="58">5.91951e-12</wgt>
  <wgt id="59">5.94203e-12</wgt>
  <wgt id="60">5.96357e-12</wgt>
  <wgt id="61">5.95905e-12</wgt>
  <wgt id="62">5.96585e-12</wgt>
  <wgt id="63">5.97345e-12</wgt>
  <wgt id="64">5.97062e-12</wgt>
  <wgt id="65">5.96769e-12</wgt>
  <wgt id="66">5.95591e-12</wgt>
  <wgt id="67">5.9594e-12</wgt>
  <wgt id="68">5.95654e-12</wgt>
  <wgt id="69">5.96073e-12</wgt>
  <wgt id="70">5.95781e-12</wgt>
  <wgt id="71">5.96013e-12</wgt>
  <wgt id="72">5.95803e-12</wgt>
  <wgt id="73">5.96782e-12</wgt>
  <wgt id="74">5.96686e-12</wgt>
  <wgt id="75">5.96358e-12</wgt>
  <wgt id="76">5.97902e-12</wgt>
  <wgt id="77">5.96237e-12</wgt>
  <wgt id="78">5.96516e-12</wgt>
  <wgt id="79">5.97238e-12</wgt>
  <wgt id="80">5.93921e-12</wgt>
  <wgt id="81">5.9555e-12</wgt>
  <wgt id="82">5.96337e-12</wgt>
  <wgt id="83">5.9426e-12</wgt>
  <wgt id="84">5.95036e-12</wgt>
  <wgt id="85">5.95497e-12</wgt>
  <wgt id="86">5.97359e-12</wgt>
  <wgt id="87">5.93764e-12</wgt>
  <wgt id="88">5.96964e-12</wgt>
  <wgt id="89">5.96829e-12</wgt>
  <wgt id="90">5.96912e-12</wgt>
  <wgt id="91">5.9666e-12</wgt>
  <wgt id="92">5.97313e-12</wgt>
  <wgt id="93">5.9618e-12</wgt>
  <wgt id="94">5.95875e-12</wgt>
  <wgt id="95">5.96577e-12</wgt>
  <wgt id="96">5.9671e-12</wgt>
  <wgt id="97">5.95687e-12</wgt>
  <wgt id="98">5.96621e-12</wgt>
  <wgt id="99">5.96222e-12</wgt>
  <wgt id="100">5.96907e-12</wgt>
  <wgt id="101">5.961e-12</wgt>
  <wgt id="102">5.95765e-12</wgt>
  <wgt id="103">5.9707e-12</wgt>
  <wgt id="104">5.95821e-12</wgt>
  <wgt id="105">5.96745e-12</wgt>
  <wgt id="106">5.95698e-12</wgt>
  <wgt id="107">5.97701e-12</wgt>
  <wgt id="108">5.958e-12</wgt>
  <wgt id="109">5.96646e-12</wgt>
  <wgt id="110">5.96158e-12</wgt>
  <wgt id="111">6.03264e-12</wgt>
  <wgt id="112">5.94788e-12</wgt>
  <wgt id="113">7.89615e-12</wgt>
  <wgt id="114">8.22288e-12</wgt>
  <wgt id="115">8.11333e-12</wgt>
  <wgt id="116">1.12242e-11</wgt>
  <wgt id="117">6.59809e-12</wgt>
  <wgt id="118">6.62006e-12</wgt>
  <wgt id="119">6.58577e-12</wgt>
  <wgt id="120">6.59877e-12</wgt>
  <wgt id="121">6.59755e-12</wgt>
  <wgt id="122">6.5864e-12</wgt>
  <wgt id="123">6.61444e-12</wgt>
  <wgt id="124">6.58873e-12</wgt>
  <wgt id="125">6.60448e-12</wgt>
  <wgt id="126">6.60981e-12</wgt>
  <wgt id="127">6.59039e-12</wgt>
  <wgt id="128">6.61895e-12</wgt>
  <wgt id="129">6.57736e-12</wgt>
  <wgt id="130">6.63659e-12</wgt>
  <wgt id="131">6.55868e-12</wgt>
  <wgt id="132">6.43028e-12</wgt>
  <wgt id="133">6.79589e-12</wgt>
  <wgt id="134">6.52915e-12</wgt>
  <wgt id="135">6.65189e-12</wgt>
  <wgt id="136">6.67871e-12</wgt>
  <wgt id="137">6.50044e-12</wgt>
  <wgt id="138">6.84268e-12</wgt>
  <wgt id="139">6.36061e-12</wgt>
  <wgt id="140">6.5529e-12</wgt>
  <wgt id="141">6.63362e-12</wgt>
  <wgt id="142">6.59932e-12</wgt>
  <wgt id="143">6.60581e-12</wgt>
  <wgt id="144">6.43236e-12</wgt>
  <wgt id="145">6.75031e-12</wgt>
  <wgt id="146">6.65083e-12</wgt>
  <wgt id="147">6.55693e-12</wgt>
  <wgt id="148">6.61738e-12</wgt>
  <wgt id="149">6.59693e-12</wgt>
  <wgt id="150">6.65451e-12</wgt>
  <wgt id="151">6.57176e-12</wgt>
  <wgt id="152">6.6009e-12</wgt>
  <wgt id="153">6.59705e-12</wgt>
  <wgt id="154">6.65637e-12</wgt>
  <wgt id="155">6.52984e-12</wgt>
  <wgt id="156">6.71052e-12</wgt>
  <wgt id="157">6.47414e-12</wgt>
  <wgt id="158">7.93975e-12</wgt>
  <wgt id="159">7.97261e-12</wgt>
  <wgt id="160">7.91323e-12</wgt>
  <wgt id="161">7.92051e-12</wgt>
  <wgt id="162">7.96136e-12</wgt>
  <wgt id="163">7.93169e-12</wgt>
  <wgt id="164">7.95214e-12</wgt>
  <wgt id="165">7.94296e-12</wgt>
  <wgt id="166">7.93774e-12</wgt>
  <wgt id="167">7.93401e-12</wgt>
  <wgt id="168">7.94802e-12</wgt>
  <wgt id="169">7.90581e-12</wgt>
  <wgt id="170">7.96139e-12</wgt>
  <wgt id="171">7.93117e-12</wgt>
  <wgt id="172">7.95203e-12</wgt>
  <wgt id="173">7.94117e-12</wgt>
  <wgt id="174">7.93902e-12</wgt>
  <wgt id="175">7.7224e-12</wgt>
  <wgt id="176">8.22242e-12</wgt>
  <wgt id="177">7.98093e-12</wgt>
  <wgt id="178">7.9017e-12</wgt>
  <wgt id="179">8.25554e-12</wgt>
  <wgt id="180">7.43977e-12</wgt>
  <wgt id="181">7.71871e-12</wgt>
  <wgt id="182">8.08544e-12</wgt>
  <wgt id="183">7.80454e-12</wgt>
  <wgt id="184">8.0073e-12</wgt>
  <wgt id="185">7.8792e-12</wgt>
  <wgt id="186">8.01215e-12</wgt>
  <wgt id="187">7.87138e-12</wgt>
  <wgt id="188">8.06385e-12</wgt>
  <wgt id="189">7.8917e-12</wgt>
  <wgt id="190">7.95972e-12</wgt>
  <wgt id="191">7.96031e-12</wgt>
  <wgt id="192">7.92788e-12</wgt>
  <wgt id="193">8.04727e-12</wgt>
  <wgt id="194">7.88681e-12</wgt>
  <wgt id="195">7.76859e-12</wgt>
  <wgt id="196">8.25734e-12</wgt>
  <wgt id="197">7.97792e-12</wgt>
  <wgt id="198">7.93092e-12</wgt>
  <wgt id="199">7.93975e-12</wgt>
  <wgt id="200">8.00549e-12</wgt>
  <wgt id="201">7.98095e-12</wgt>
  <wgt id="202">7.95771e-12</wgt>
  <wgt id="203">7.92202e-12</wgt>
  <wgt id="204">7.90516e-12</wgt>
  <wgt id="205">7.89135e-12</wgt>
  <wgt id="206">7.71498e-12</wgt>
  <wgt id="207">7.75974e-12</wgt>
  <wgt id="208">7.67089e-12</wgt>
  <wgt id="209">7.73729e-12</wgt>
  <wgt id="210">7.69869e-12</wgt>
  <wgt id="211">7.71258e-12</wgt>
  <wgt id="212">7.71722e-12</wgt>
  <wgt id="213">7.71429e-12</wgt>
  <wgt id="214">7.71618e-12</wgt>
  <wgt id="215">7.72038e-12</wgt>
  <wgt id="216">7.71134e-12</wgt>
  <wgt id="217">7.73705e-12</wgt>
  <wgt id="218">7.69835e-12</wgt>
  <wgt id="219">7.70621e-12</wgt>
  <wgt id="220">7.72032e-12</wgt>
  <wgt id="221">7.71121e-12</wgt>
  <wgt id="222">7.7243e-12</wgt>
  <wgt id="223">7.32037e-12</wgt>
  <wgt id="224">8.07397e-12</wgt>
  <wgt id="225">7.62645e-12</wgt>
  <wgt id="226">7.82621e-12</wgt>
  <wgt id="227">7.6445e-12</wgt>
  <wgt id="228">7.74595e-12</wgt>
  <wgt id="229">7.61075e-12</wgt>
  <wgt id="230">7.76695e-12</wgt>
  <wgt id="231">7.92575e-12</wgt>
  <wgt id="232">7.5417e-12</wgt>
  <wgt id="233">7.67681e-12</wgt>
  <wgt id="234">7.7734e-12</wgt>
  <wgt id="235">7.58695e-12</wgt>
  <wgt id="236">7.84169e-12</wgt>
  <wgt id="237">7.62291e-12</wgt>
  <wgt id="238">7.74693e-12</wgt>
  <wgt id="239">7.6743e-12</wgt>
  <wgt id="240">7.78928e-12</wgt>
  <wgt id="241">7.64111e-12</wgt>
  <wgt id="242">7.80444e-12</wgt>
  <wgt id="243">7.79589e-12</wgt>
  <wgt id="244">7.76436e-12</wgt>
  <wgt id="245">7.70903e-12</wgt>
  <wgt id="246">7.77483e-12</wgt>
  <wgt id="247">7.71498e-12</wgt>
  <wgt id="248">7.77858e-12</wgt>
  <wgt id="249">7.75388e-12</wgt>
  <wgt id="250">7.73146e-12</wgt>
  <wgt id="251">7.69689e-12</wgt>
  <wgt id="252">7.68086e-12</wgt>
  <wgt id="253">7.6691e-12</wgt>
  <wgt id="254">7.56567e-12</wgt>
  <wgt id="255">7.57316e-12</wgt>
  <wgt id="256">7.55771e-12</wgt>
  <wgt id="257">7.57137e-12</wgt>
  <wgt id="258">7.56138e-12</wgt>
  <wgt id="259">7.6163e-12</wgt>
  <wgt id="260">7.51711e-12</wgt>
  <wgt id="261">7.57502e-12</wgt>
  <wgt id="262">7.55468e-12</wgt>
  <wgt id="263">7.56287e-12</wgt>
  <wgt id="264">7.56907e-12</wgt>
  <wgt id="265">7.55735e-12</wgt>
  <wgt id="266">7.58185e-12</wgt>
  <wgt id="267">7.56811e-12</wgt>
  <wgt id="268">7.56267e-12</wgt>
  <wgt id="269">7.58868e-12</wgt>
  <wgt id="270">7.55004e-12</wgt>
  <wgt id="271">7.55382e-12</wgt>
  <wgt id="272">7.57934e-12</wgt>
  <wgt id="273">7.54255e-12</wgt>
  <wgt id="274">7.58346e-12</wgt>
  <wgt id="275">7.53726e-12</wgt>
  <wgt id="276">7.59483e-12</wgt>
  <wgt id="277">7.524e-12</wgt>
  <wgt id="278">7.60395e-12</wgt>
  <wgt id="279">7.42462e-12</wgt>
  <wgt id="280">7.74208e-12</wgt>
  <wgt id="281">7.53419e-12</wgt>
  <wgt id="282">7.56626e-12</wgt>
  <wgt id="283">7.36081e-12</wgt>
  <wgt id="284">7.8173e-12</wgt>
  <wgt id="285">7.2243e-12</wgt>
  <wgt id="286">7.84616e-12</wgt>
  <wgt id="287">7.58789e-12</wgt>
  <wgt id="288">7.53692e-12</wgt>
  <wgt id="289">7.61532e-12</wgt>
  <wgt id="290">7.44803e-12</wgt>
  <wgt id="291">7.54779e-12</wgt>
  <wgt id="292">7.57003e-12</wgt>
  <wgt id="293">7.51085e-12</wgt>
  <wgt id="294">7.62013e-12</wgt>
  <wgt id="295">7.43004e-12</wgt>
  <wgt id="296">7.73101e-12</wgt>
  <wgt id="297">7.5691e-12</wgt>
  <wgt id="298">7.59013e-12</wgt>
  <wgt id="299">7.54262e-12</wgt>
  <wgt id="300">7.62611e-12</wgt>
  <wgt id="301">7.47872e-12</wgt>
  <wgt id="302">7.79812e-12</wgt>
  <wgt id="303">7.51687e-12</wgt>
  <wgt id="304">7.59443e-12</wgt>
  <wgt id="305">7.60536e-12</wgt>
  <wgt id="306">7.61334e-12</wgt>
  <wgt id="307">7.59729e-12</wgt>
  <wgt id="308">7.61215e-12</wgt>
  <wgt id="309">7.60097e-12</wgt>
  <wgt id="310">7.65792e-12</wgt>
  <wgt id="311">7.55709e-12</wgt>
  <wgt id="312">7.61264e-12</wgt>
  <wgt id="313">7.59865e-12</wgt>
  <wgt id="314">7.60298e-12</wgt>
  <wgt id="315">7.60817e-12</wgt>
  <wgt id="316">7.59761e-12</wgt>
  <wgt id="317">7.62265e-12</wgt>
  <wgt id="318">7.61072e-12</wgt>
  <wgt id="319">7.59687e-12</wgt>
  <wgt id="320">7.6295e-12</wgt>
  <wgt id="321">7.59205e-12</wgt>
  <wgt id="322">7.58915e-12</wgt>
  <wgt id="323">7.62467e-12</wgt>
  <wgt id="324">7.58632e-12</wgt>
  <wgt id="325">7.62244e-12</wgt>
  <wgt id="326">7.5828e-12</wgt>
  <wgt id="327">7.63454e-12</wgt>
  <wgt id="328">7.56763e-12</wgt>
  <wgt id="329">7.62707e-12</wgt>
  <wgt id="330">7.82424e-12</wgt>
  <wgt id="331">7.39666e-12</wgt>
  <wgt id="332">7.57926e-12</wgt>
  <wgt id="333">7.60512e-12</wgt>
  <wgt id="334">7.44333e-12</wgt>
  <wgt id="335">7.8061e-12</wgt>
  <wgt id="336">7.35657e-12</wgt>
  <wgt id="337">7.90664e-12</wgt>
  <wgt id="338">7.68529e-12</wgt>
  <wgt id="339">7.53166e-12</wgt>
  <wgt id="340">7.65323e-12</wgt>
  <wgt id="341">7.48173e-12</wgt>
  <wgt id="342">7.59338e-12</wgt>
  <wgt id="343">7.59915e-12</wgt>
  <wgt id="344">7.55561e-12</wgt>
  <wgt id="345">7.66366e-12</wgt>
  <wgt id="346">7.46428e-12</wgt>
  <wgt id="347">7.76858e-12</wgt>
  <wgt id="348">7.61257e-12</wgt>
  <wgt id="349">7.62468e-12</wgt>
  <wgt id="350">7.57657e-12</wgt>
  <wgt id="351">7.67944e-12</wgt>
  <wgt id="352">7.50778e-12</wgt>
  <wgt id="353">7.85234e-12</wgt>
  <wgt id="354">7.5294e-12</wgt>
  <wgt id="355">7.65285e-12</wgt>
  <wgt id="356">7.56567e-12</wgt>
  <wgt id="357">7.64156e-12</wgt>
  <wgt id="358">7.60536e-12</wgt>
  <wgt id="359">7.59698e-12</wgt>
  <wgt id="360">7.6006e-12</wgt>
  <wgt id="361">7.58612e-12</wgt>
  <wgt id="362">7.7102e-12</wgt>
  <wgt id="363">7.69243e-12</wgt>
  <wgt id="364">7.66882e-12</wgt>
  <wgt id="365">7.64436e-12</wgt>
  <wgt id="366">7.61675e-12</wgt>
  <wgt id="367">7.55853e-12</wgt>
  <wgt id="368">7.52734e-12</wgt>
  <wgt id="369">7.49339e-12</wgt>
  <wgt id="370">7.58612e-12</wgt>
  <wgt id="371">7.61996e-12</wgt>
  <wgt id="372">7.60146e-12</wgt>
  <wgt id="373">7.57378e-12</wgt>
  <wgt id="374">7.56929e-12</wgt>
  <wgt id="375">8.00851e-12</wgt>
  <wgt id="376">8.00965e-12</wgt>
  <wgt id="377">8.0072e-12</wgt>
  <wgt id="378">8.03705e-12</wgt>
  <wgt id="379">7.98003e-12</wgt>
  <wgt id="380">8.03009e-12</wgt>
  <wgt id="381">7.99968e-12</wgt>
  <wgt id="382">8.0485e-12</wgt>
  <wgt id="383">7.96865e-12</wgt>
  <wgt id="384">8.01365e-12</wgt>
  <wgt id="385">8.0034e-12</wgt>
  <wgt id="386">8.03953e-12</wgt>
  <wgt id="387">7.99489e-12</wgt>
  <wgt id="388">8.00101e-12</wgt>
  <wgt id="389">8.0173e-12</wgt>
  <wgt id="390">8.02969e-12</wgt>
  <wgt id="391">7.98606e-12</wgt>
  <wgt id="392">7.95203e-12</wgt>
  <wgt id="393">8.04022e-12</wgt>
  <wgt id="394">8.01989e-12</wgt>
  <wgt id="395">7.99214e-12</wgt>
  <wgt id="396">8.01116e-12</wgt>
  <wgt id="397">8.0063e-12</wgt>
  <wgt id="398">7.9737e-12</wgt>
  <wgt id="399">8.04204e-12</wgt>
  <wgt id="400">7.99545e-12</wgt>
  <wgt id="401">8.03756e-12</wgt>
  <wgt id="402">7.94688e-12</wgt>
  <wgt id="403">8.03318e-12</wgt>
  <wgt id="404">8.18022e-12</wgt>
  <wgt id="405">7.59274e-12</wgt>
  <wgt id="406">7.88496e-12</wgt>
  <wgt id="407">8.27474e-12</wgt>
  <wgt id="408">8.07186e-12</wgt>
  <wgt id="409">7.88622e-12</wgt>
  <wgt id="410">7.80482e-12</wgt>
  <wgt id="411">8.10137e-12</wgt>
  <wgt id="412">7.99546e-12</wgt>
  <wgt id="413">8.02643e-12</wgt>
  <wgt id="414">7.92724e-12</wgt>
  <wgt id="415">8.07135e-12</wgt>
  <wgt id="416">8.20061e-12</wgt>
  <wgt id="417">7.74256e-12</wgt>
  <wgt id="418">8.01795e-12</wgt>
  <wgt id="419">7.95645e-12</wgt>
  <wgt id="420">8.10488e-12</wgt>
  <wgt id="421">7.95768e-12</wgt>
  <wgt id="422">8.0045e-12</wgt>
  <wgt id="423">8.01227e-12</wgt>
  <wgt id="424">8.14785e-12</wgt>
  <wgt id="425">7.92331e-12</wgt>
  <wgt id="426">8.00851e-12</wgt>
  <wgt id="427">7.95303e-12</wgt>
  <wgt id="428">8.1834e-12</wgt>
  <wgt id="429">8.07086e-12</wgt>
  <wgt id="430">8.28344e-12</wgt>
  <wgt id="431">8.24144e-12</wgt>
  <wgt id="432">8.20088e-12</wgt>
  <wgt id="433">8.16165e-12</wgt>
  <wgt id="434">8.11502e-12</wgt>
  <wgt id="435">8.01554e-12</wgt>
  <wgt id="436">7.9641e-12</wgt>
  <wgt id="437">7.91587e-12</wgt>
  <wgt id="438">8.07086e-12</wgt>
  <wgt id="439">8.09746e-12</wgt>
  <wgt id="440">8.08216e-12</wgt>
  <wgt id="441">8.06258e-12</wgt>
  <wgt id="442">8.05505e-12</wgt>
  <wgt id="443">7.8948e-12</wgt>
  <wgt id="444">7.93016e-12</wgt>
  <wgt id="445">7.85893e-12</wgt>
  <wgt id="446">7.84748e-12</wgt>
  <wgt id="447">7.8652e-12</wgt>
  <wgt id="448">7.69683e-12</wgt>
  <wgt id="449">8.00709e-12</wgt>
  <wgt id="450">7.85596e-12</wgt>
  <wgt id="451">7.88398e-12</wgt>
  <wgt id="452">8.05939e-12</wgt>
  <wgt id="453">7.96017e-12</wgt>
  <wgt id="454">7.59876e-12</wgt>
  <wgt id="455">7.90128e-12</wgt>
  <wgt id="456">7.77766e-12</wgt>
  <wgt id="457">7.92471e-12</wgt>
  <wgt id="458">7.9759e-12</wgt>
  <wgt id="459">7.94203e-12</wgt>
  <wgt id="460">7.9311e-12</wgt>
  <wgt id="461">7.76749e-12</wgt>
  <wgt id="462">7.83627e-12</wgt>
  <wgt id="463">7.81991e-12</wgt>
  <wgt id="464">7.855e-12</wgt>
  <wgt id="465">7.96814e-12</wgt>
  <wgt id="466">7.81722e-12</wgt>
  <wgt id="467">7.82569e-12</wgt>
  <wgt id="468">7.87496e-12</wgt>
  <wgt id="469">7.87479e-12</wgt>
  <wgt id="470">7.83255e-12</wgt>
  <wgt id="471">7.83384e-12</wgt>
  <wgt id="472">7.92705e-12</wgt>
  <wgt id="473">7.66457e-12</wgt>
  <wgt id="474">5.79e-12</wgt>
  <wgt id="475">6.17675e-12</wgt>
  <wgt id="476">5.66638e-12</wgt>
  <wgt id="477">5.66314e-12</wgt>
  <wgt id="478">5.81776e-12</wgt>
  <wgt id="479">5.70969e-12</wgt>
  <wgt id="480">5.96882e-12</wgt>
  <wgt id="481">5.63667e-12</wgt>
  <wgt id="482">5.54614e-12</wgt>
  <wgt id="483">5.63929e-12</wgt>
  <wgt id="484">6.23659e-12</wgt>
  <wgt id="485">5.82039e-12</wgt>
  <wgt id="486">5.88197e-12</wgt>
  <wgt id="487">5.89455e-12</wgt>
  <wgt id="488">5.85589e-12</wgt>
  <wgt id="489">5.60701e-12</wgt>
  <wgt id="490">5.62533e-12</wgt>
  <wgt id="491">5.72007e-12</wgt>
  <wgt id="492">5.60078e-12</wgt>
  <wgt id="493">5.59254e-12</wgt>
  <wgt id="494">5.61916e-12</wgt>
  <wgt id="495">5.91495e-12</wgt>
  <wgt id="496">5.59284e-12</wgt>
  <wgt id="497">5.58202e-12</wgt>
  <wgt id="498">5.84933e-12</wgt>
  <wgt id="499">5.63307e-12</wgt>
  <wgt id="500">5.69604e-12</wgt>
  <wgt id="501">6.04258e-12</wgt>
  <wgt id="502">5.6201e-12</wgt>
  <wgt id="503">5.76974e-12</wgt>
  <wgt id="504">5.79373e-12</wgt>
  <wgt id="505">5.88849e-12</wgt>
  <wgt id="506">5.89902e-12</wgt>
  <wgt id="507">5.71733e-12</wgt>
  <wgt id="508">5.86368e-12</wgt>
  <wgt id="509">5.77761e-12</wgt>
  <wgt id="510">5.9283e-12</wgt>
  <wgt id="511">5.67732e-12</wgt>
  <wgt id="512">5.84836e-12</wgt>
  <wgt id="513">6.01456e-12</wgt>
  <wgt id="514">5.72836e-12</wgt>
  <wgt id="515">5.70914e-12</wgt>
  <wgt id="516">5.92293e-12</wgt>
  <wgt id="517">5.91255e-12</wgt>
  <wgt id="518">5.93117e-12</wgt>
  <wgt id="519">5.64838e-12</wgt>
  <wgt id="520">5.81244e-12</wgt>
  <wgt id="521">6.00323e-12</wgt>
  <wgt id="522">6.00051e-12</wgt>
  <wgt id="523">5.93638e-12</wgt>
  <wgt id="524">5.91749e-12</wgt>
  <wgt id="525">5.94145e-12</wgt>
  <wgt id="526">5.77996e-12</wgt>
  <wgt id="527">5.89654e-12</wgt>
  <wgt id="528">5.79114e-12</wgt>
  <wgt id="529">5.70617e-12</wgt>
  <wgt id="530">5.81332e-12</wgt>
  <wgt id="531">5.72439e-12</wgt>
  <wgt id="532">6.08716e-12</wgt>
  <wgt id="533">5.43109e-12</wgt>
  <wgt id="534">5.80768e-12</wgt>
  <wgt id="535">5.90943e-12</wgt>
  <wgt id="536">5.79899e-12</wgt>
  <wgt id="537">5.81414e-12</wgt>
  <wgt id="538">5.88116e-12</wgt>
  <wgt id="539">5.66283e-12</wgt>
  <wgt id="540">5.71206e-12</wgt>
  <wgt id="541">5.69153e-12</wgt>
  <wgt id="542">5.66177e-12</wgt>
  <wgt id="543">5.78102e-12</wgt>
  <wgt id="544">6.07356e-12</wgt>
  <wgt id="545">5.71993e-12</wgt>
  <wgt id="546">5.74336e-12</wgt>
  <wgt id="547">5.61041e-12</wgt>
  <wgt id="548">5.5541e-12</wgt>
  <wgt id="549">5.69755e-12</wgt>
  <wgt id="550">5.82735e-12</wgt>
  <wgt id="551">5.85053e-12</wgt>
  <wgt id="552">5.75634e-12</wgt>
  <wgt id="553">5.78118e-12</wgt>
  <wgt id="554">6.22235e-12</wgt>
  <wgt id="555">5.94351e-12</wgt>
  <wgt id="556">5.62533e-12</wgt>
  <wgt id="557">5.86836e-12</wgt>
  <wgt id="558">5.59371e-12</wgt>
  <wgt id="559">5.72736e-12</wgt>
  <wgt id="560">6.23677e-12</wgt>
  <wgt id="561">5.65165e-12</wgt>
  <wgt id="562">5.85537e-12</wgt>
  <wgt id="563">5.61985e-12</wgt>
  <wgt id="564">5.76432e-12</wgt>
  <wgt id="565">5.58703e-12</wgt>
  <wgt id="566">5.85627e-12</wgt>
  <wgt id="567">5.69627e-12</wgt>
  <wgt id="568">5.78743e-12</wgt>
  <wgt id="569">5.85446e-12</wgt>
  <wgt id="570">5.65489e-12</wgt>
  <wgt id="571">6.40298e-12</wgt>
  <wgt id="572">5.65494e-12</wgt>
  <wgt id="573">5.52346e-12</wgt>
  <wgt id="574">5.58111e-12</wgt>
  <wgt id="575">6.34708e-12</wgt>
  <wgt id="576">6.23499e-12</wgt>
  <wgt id="577">6.5597e-12</wgt>
  <wgt id="578">6.46675e-12</wgt>
  <wgt id="579">6.4066e-12</wgt>
  <wgt id="580">6.43226e-12</wgt>
  <wgt id="581">6.71253e-12</wgt>
  <wgt id="582">6.21488e-12</wgt>
  <wgt id="583">6.41155e-12</wgt>
  <wgt id="584">6.35755e-12</wgt>
  <wgt id="585">6.42127e-12</wgt>
  <wgt id="586">6.21267e-12</wgt>
  <wgt id="587">6.41999e-12</wgt>
  <wgt id="588">6.29978e-12</wgt>
  <wgt id="589">6.4143e-12</wgt>
  <wgt id="590">6.46141e-12</wgt>
  <wgt id="591">6.59622e-12</wgt>
  <wgt id="592">6.25663e-12</wgt>
  <wgt id="593">6.32119e-12</wgt>
  <wgt id="594">6.59662e-12</wgt>
  <wgt id="595">6.29679e-12</wgt>
  <wgt id="596">6.41231e-12</wgt>
  <wgt id="597">6.1099e-12</wgt>
  <wgt id="598">6.28375e-12</wgt>
  <wgt id="599">6.69928e-12</wgt>
  <wgt id="600">6.27486e-12</wgt>
  <wgt id="601">6.16878e-12</wgt>
  <wgt id="602">6.24018e-12</wgt>
  <wgt id="603">6.26516e-12</wgt>
  <wgt id="604">6.42863e-12</wgt>
  <wgt id="605">6.60617e-12</wgt>
  <wgt id="606">6.17415e-12</wgt>
  <wgt id="607">6.24749e-12</wgt>
  <wgt id="608">6.3277e-12</wgt>
  <wgt id="609">5.96947e-12</wgt>
  <wgt id="610">6.09949e-12</wgt>
  <wgt id="611">6.45322e-12</wgt>
  <wgt id="612">6.80428e-12</wgt>
  <wgt id="613">6.35794e-12</wgt>
  <wgt id="614">6.43544e-12</wgt>
  <wgt id="615">6.21127e-12</wgt>
  <wgt id="616">6.76787e-12</wgt>
  <wgt id="617">6.58141e-12</wgt>
  <wgt id="618">6.30258e-12</wgt>
  <wgt id="619">6.30517e-12</wgt>
  <wgt id="620">6.58066e-12</wgt>
  <wgt id="621">6.45396e-12</wgt>
  <wgt id="622">6.41999e-12</wgt>
  <wgt id="623">6.51475e-12</wgt>
  <wgt id="624">6.30801e-12</wgt>
  <wgt id="625">6.28283e-12</wgt>
  <wgt id="626">6.2226e-12</wgt>
  <wgt id="627">6.12602e-12</wgt>
  <wgt id="628">6.72029e-12</wgt>
  <wgt id="629">6.19995e-12</wgt>
  <wgt id="630">6.16304e-12</wgt>
  <wgt id="631">6.35179e-12</wgt>
  <wgt id="632">6.17599e-12</wgt>
  <wgt id="633">6.26306e-12</wgt>
  <wgt id="634">6.38357e-12</wgt>
  <wgt id="635">6.30009e-12</wgt>
  <wgt id="636">6.3781e-12</wgt>
  <wgt id="637">6.35122e-12</wgt>
  <wgt id="638">6.11835e-12</wgt>
  <wgt id="639">6.27905e-12</wgt>
  <wgt id="640">6.36049e-12</wgt>
  <wgt id="641">6.35028e-12</wgt>
  <wgt id="642">6.20697e-12</wgt>
  <wgt id="643">6.32362e-12</wgt>
  <wgt id="644">6.16278e-12</wgt>
  <wgt id="645">6.39161e-12</wgt>
  <wgt id="646">6.48854e-12</wgt>
  <wgt id="647">6.24526e-12</wgt>
  <wgt id="648">6.36385e-12</wgt>
  <wgt id="649">6.4491e-12</wgt>
  <wgt id="650">6.2405e-12</wgt>
  <wgt id="651">6.38699e-12</wgt>
  <wgt id="652">6.33733e-12</wgt>
  <wgt id="653">6.18299e-12</wgt>
  <wgt id="654">6.33248e-12</wgt>
  <wgt id="655">6.21661e-12</wgt>
  <wgt id="656">6.35661e-12</wgt>
  <wgt id="657">6.47959e-12</wgt>
  <wgt id="658">6.44576e-12</wgt>
  <wgt id="659">6.12065e-12</wgt>
  <wgt id="660">6.47483e-12</wgt>
  <wgt id="661">6.25032e-12</wgt>
  <wgt id="662">6.33181e-12</wgt>
  <wgt id="663">6.32662e-12</wgt>
  <wgt id="664">6.24012e-12</wgt>
  <wgt id="665">6.32031e-12</wgt>
  <wgt id="666">6.32746e-12</wgt>
  <wgt id="667">6.53663e-12</wgt>
  <wgt id="668">6.31685e-12</wgt>
  <wgt id="669">6.50473e-12</wgt>
  <wgt id="670">6.42162e-12</wgt>
  <wgt id="671">6.24953e-12</wgt>
  <wgt id="672">6.0817e-12</wgt>
  <wgt id="673">6.31826e-12</wgt>
  <wgt id="674">6.22381e-12</wgt>
  <wgt id="675">6.22028e-12</wgt>
  <wgt id="676">7.90273e-12</wgt>
  <wgt id="677">8.00736e-12</wgt>
  <wgt id="678">8.25172e-12</wgt>
  <wgt id="679">7.48706e-12</wgt>
  <wgt id="680">7.63357e-12</wgt>
  <wgt id="681">8.13575e-12</wgt>
  <wgt id="682">8.04166e-12</wgt>
  <wgt id="683">7.8424e-12</wgt>
  <wgt id="684">8.25025e-12</wgt>
  <wgt id="685">7.46641e-12</wgt>
  <wgt id="686">7.92124e-12</wgt>
  <wgt id="687">8.26789e-12</wgt>
  <wgt id="688">7.89007e-12</wgt>
  <wgt id="689">8.50896e-12</wgt>
  <wgt id="690">8.35123e-12</wgt>
  <wgt id="691">8.36503e-12</wgt>
  <wgt id="692">7.86349e-12</wgt>
  <wgt id="693">9.09128e-12</wgt>
  <wgt id="694">8.338e-12</wgt>
  <wgt id="695">7.65186e-12</wgt>
  <wgt id="696">7.50105e-12</wgt>
  <wgt id="697">7.69894e-12</wgt>
  <wgt id="698">7.41579e-12</wgt>
  <wgt id="699">7.3315e-12</wgt>
  <wgt id="700">7.01067e-12</wgt>
  <wgt id="701">7.92624e-12</wgt>
  <wgt id="702">7.55715e-12</wgt>
  <wgt id="703">8.94718e-12</wgt>
  <wgt id="704">8.48598e-12</wgt>
  <wgt id="705">8.16624e-12</wgt>
  <wgt id="706">7.36162e-12</wgt>
  <wgt id="707">7.60837e-12</wgt>
  <wgt id="708">7.81577e-12</wgt>
  <wgt id="709">7.77789e-12</wgt>
  <wgt id="710">7.07581e-12</wgt>
  <wgt id="711">7.88868e-12</wgt>
  <wgt id="712">7.81381e-12</wgt>
  <wgt id="713">8.47143e-12</wgt>
  <wgt id="714">7.87772e-12</wgt>
  <wgt id="715">7.8313e-12</wgt>
  <wgt id="716">7.61258e-12</wgt>
  <wgt id="717">7.61543e-12</wgt>
  <wgt id="718">7.76935e-12</wgt>
  <wgt id="719">7.23281e-12</wgt>
  <wgt id="720">7.46503e-12</wgt>
  <wgt id="721">7.49201e-12</wgt>
  <wgt id="722">7.15633e-12</wgt>
  <wgt id="723">8.35012e-12</wgt>
  <wgt id="724">8.21498e-12</wgt>
  <wgt id="725">8.35488e-12</wgt>
  <wgt id="726">7.9972e-12</wgt>
  <wgt id="727">7.71701e-12</wgt>
  <wgt id="728">7.82044e-12</wgt>
  <wgt id="729">7.11697e-12</wgt>
  <wgt id="730">8.42386e-12</wgt>
  <wgt id="731">7.83119e-12</wgt>
  <wgt id="732">8.60233e-12</wgt>
  <wgt id="733">7.92706e-12</wgt>
  <wgt id="734">8.08839e-12</wgt>
  <wgt id="735">7.84301e-12</wgt>
  <wgt id="736">7.80894e-12</wgt>
  <wgt id="737">8.04288e-12</wgt>
  <wgt id="738">7.57753e-12</wgt>
  <wgt id="739">7.88224e-12</wgt>
  <wgt id="740">8.72244e-12</wgt>
  <wgt id="741">7.02383e-12</wgt>
  <wgt id="742">7.78023e-12</wgt>
  <wgt id="743">7.65937e-12</wgt>
  <wgt id="744">7.74976e-12</wgt>
  <wgt id="745">8.20325e-12</wgt>
  <wgt id="746">8.3012e-12</wgt>
  <wgt id="747">7.29975e-12</wgt>
  <wgt id="748">7.78433e-12</wgt>
  <wgt id="749">8.35085e-12</wgt>
  <wgt id="750">7.81805e-12</wgt>
  <wgt id="751">8.19769e-12</wgt>
  <wgt id="752">7.30043e-12</wgt>
  <wgt id="753">7.55674e-12</wgt>
  <wgt id="754">8.17875e-12</wgt>
  <wgt id="755">7.95696e-12</wgt>
  <wgt id="756">7.96229e-12</wgt>
  <wgt id="757">7.35448e-12</wgt>
  <wgt id="758">8.01449e-12</wgt>
  <wgt id="759">7.85361e-12</wgt>
  <wgt id="760">8.0549e-12</wgt>
  <wgt id="761">8.31077e-12</wgt>
  <wgt id="762">8.32475e-12</wgt>
  <wgt id="763">7.91252e-12</wgt>
  <wgt id="764">8.1825e-12</wgt>
  <wgt id="765">8.01104e-12</wgt>
  <wgt id="766">7.87496e-12</wgt>
  <wgt id="767">8.09216e-12</wgt>
  <wgt id="768">7.52013e-12</wgt>
  <wgt id="769">8.35294e-12</wgt>
  <wgt id="770">7.65449e-12</wgt>
  <wgt id="771">9.24379e-12</wgt>
  <wgt id="772">7.43783e-12</wgt>
  <wgt id="773">7.86985e-12</wgt>
  <wgt id="774">7.16751e-12</wgt>
  <wgt id="775">8.29146e-12</wgt>
  <wgt id="776">8.62974e-12</wgt>
  <wgt id="777">7.65512e-12</wgt>
  <wgt id="778">5.93329e-12</wgt>
  <wgt id="779">5.08565e-12</wgt>
  <wgt id="780">4.30098e-12</wgt>
  <wgt id="781">5.87113e-12</wgt>
  <wgt id="782">6.27074e-12</wgt>
  <wgt id="783">5.18061e-12</wgt>
  <wgt id="784">5.29484e-12</wgt>
  <wgt id="785">7.08035e-12</wgt>
  <wgt id="786">4.65675e-12</wgt>
  <wgt id="787">6.6305e-12</wgt>
  <wgt id="788">4.00093e-12</wgt>
  <wgt id="789">4.75541e-12</wgt>
  <wgt id="790">4.64066e-12</wgt>
  <wgt id="791">5.47715e-12</wgt>
  <wgt id="792">7.50655e-12</wgt>
  <wgt id="793">5.72097e-12</wgt>
  <wgt id="794">4.73039e-12</wgt>
  <wgt id="795">6.76959e-12</wgt>
  <wgt id="796">7.69892e-12</wgt>
  <wgt id="797">6.72192e-12</wgt>
  <wgt id="798">5.56506e-12</wgt>
  <wgt id="799">6.66807e-12</wgt>
  <wgt id="800">4.82881e-12</wgt>
  <wgt id="801">5.61052e-12</wgt>
  <wgt id="802">4.7769e-12</wgt>
  <wgt id="803">7.63034e-12</wgt>
  <wgt id="804">6.72269e-12</wgt>
  <wgt id="805">6.86442e-12</wgt>
  <wgt id="806">6.71799e-12</wgt>
  <wgt id="807">5.69291e-12</wgt>
  <wgt id="808">5.8081e-12</wgt>
  <wgt id="809">5.47635e-12</wgt>
  <wgt id="810">6.79034e-12</wgt>
  <wgt id="811">6.45134e-12</wgt>
  <wgt id="812">4.68413e-12</wgt>
  <wgt id="813">4.74922e-12</wgt>
  <wgt id="814">5.07917e-12</wgt>
  <wgt id="815">5.10358e-12</wgt>
  <wgt id="816">4.50328e-12</wgt>
  <wgt id="817">6.26375e-12</wgt>
  <wgt id="818">5.74907e-12</wgt>
  <wgt id="819">5.09656e-12</wgt>
  <wgt id="820">5.9648e-12</wgt>
  <wgt id="821">6.73197e-12</wgt>
  <wgt id="822">5.11774e-12</wgt>
  <wgt id="823">6.73673e-12</wgt>
  <wgt id="824">7.8752e-12</wgt>
  <wgt id="825">4.5543e-12</wgt>
  <wgt id="826">6.14902e-12</wgt>
  <wgt id="827">3.81986e-12</wgt>
  <wgt id="828">7.59607e-12</wgt>
  <wgt id="829">6.13376e-12</wgt>
  <wgt id="830">4.32957e-12</wgt>
  <wgt id="831">6.31975e-12</wgt>
  <wgt id="832">9.5028e-12</wgt>
  <wgt id="833">5.63922e-12</wgt>
  <wgt id="834">8.86415e-12</wgt>
  <wgt id="835">4.86658e-12</wgt>
  <wgt id="836">5.99658e-12</wgt>
  <wgt id="837">6.64843e-12</wgt>
  <wgt id="838">5.72314e-12</wgt>
  <wgt id="839">6.29007e-12</wgt>
  <wgt id="840">5.63746e-12</wgt>
  <wgt id="841">7.10939e-12</wgt>
  <wgt id="842">5.43741e-12</wgt>
  <wgt id="843">5.75756e-12</wgt>
  <wgt id="844">6.13943e-12</wgt>
  <wgt id="845">7.97512e-12</wgt>
  <wgt id="846">5.42436e-12</wgt>
  <wgt id="847">5.88316e-12</wgt>
  <wgt id="848">5.29036e-12</wgt>
  <wgt id="849">6.06223e-12</wgt>
  <wgt id="850">7.52854e-12</wgt>
  <wgt id="851">6.4503e-12</wgt>
  <wgt id="852">5.25625e-12</wgt>
  <wgt id="853">6.41234e-12</wgt>
  <wgt id="854">7.09726e-12</wgt>
  <wgt id="855">6.75165e-12</wgt>
  <wgt id="856">4.44662e-12</wgt>
  <wgt id="857">6.01231e-12</wgt>
  <wgt id="858">5.93507e-12</wgt>
  <wgt id="859">5.52526e-12</wgt>
  <wgt id="860">6.23186e-12</wgt>
  <wgt id="861">5.33847e-12</wgt>
  <wgt id="862">6.03987e-12</wgt>
  <wgt id="863">6.20015e-12</wgt>
  <wgt id="864">6.25503e-12</wgt>
  <wgt id="865">8.28239e-12</wgt>
  <wgt id="866">9.04592e-12</wgt>
  <wgt id="867">6.00025e-12</wgt>
  <wgt id="868">5.85196e-12</wgt>
  <wgt id="869">4.74529e-12</wgt>
  <wgt id="870">4.98259e-12</wgt>
  <wgt id="871">4.84537e-12</wgt>
  <wgt id="872">6.9019e-12</wgt>
  <wgt id="873">4.94078e-12</wgt>
  <wgt id="874">6.18322e-12</wgt>
  <wgt id="875">5.2059e-12</wgt>
  <wgt id="876">6.9287e-12</wgt>
  <wgt id="877">6.71049e-12</wgt>
  <wgt id="878">5.23129e-12</wgt>
  <wgt id="879">7.90273e-12</wgt>
  <wgt id="880">8.00736e-12</wgt>
  <wgt id="881">8.25172e-12</wgt>
  <wgt id="882">7.48706e-12</wgt>
  <wgt id="883">7.63357e-12</wgt>
  <wgt id="884">8.13575e-12</wgt>
  <wgt id="885">8.04166e-12</wgt>
  <wgt id="886">7.8424e-12</wgt>
  <wgt id="887">8.25025e-12</wgt>
  <wgt id="888">7.46641e-12</wgt>
  <wgt id="889">7.92124e-12</wgt>
  <wgt id="890">8.26789e-12</wgt>
  <wgt id="891">7.89007e-12</wgt>
  <wgt id="892">8.50896e-12</wgt>
  <wgt id="893">8.35123e-12</wgt>
  <wgt id="894">8.36503e-12</wgt>
  <wgt id="895">7.86349e-12</wgt>
  <wgt id="896">9.09128e-12</wgt>
  <wgt id="897">8.338e-12</wgt>
  <wgt id="898">7.65186e-12</wgt>
  <wgt id="899">7.50105e-12</wgt>
  <wgt id="900">7.69894e-12</wgt>
  <wgt id="901">7.41579e-12</wgt>
  <wgt id="902">7.3315e-12</wgt>
  <wgt id="903">7.01067e-12</wgt>
  <wgt id="904">7.92624e-12</wgt>
  <wgt id="905">7.55715e-12</wgt>
  <wgt id="906">8.94718e-12</wgt>
  <wgt id="907">8.48598e-12</wgt>
  <wgt id="908">8.16624e-12</wgt>
  <wgt id="909">7.36162e-12</wgt>
  <wgt id="910">7.60837e-12</wgt>
  <wgt id="911">7.81577e-12</wgt>
  <wgt id="912">7.77789e-12</wgt>
  <wgt id="913">7.07581e-12</wgt>
  <wgt id="914">7.88868e-12</wgt>
  <wgt id="915">7.81381e-12</wgt>
  <wgt id="916">8.47143e-12</wgt>
  <wgt id="917">7.87772e-12</wgt>
  <wgt id="918">7.8313e-12</wgt>
  <wgt id="919">7.61258e-12</wgt>
  <wgt id="920">7.61543e-12</wgt>
  <wgt id="921">7.76935e-12</wgt>
  <wgt id="922">7.23281e-12</wgt>
  <wgt id="923">7.46503e-12</wgt>
  <wgt id="924">7.49201e-12</wgt>
  <wgt id="925">7.15633e-12</wgt>
  <wgt id="926">8.35012e-12</wgt>
  <wgt id="927">8.21498e-12</wgt>
  <wgt id="928">8.35488e-12</wgt>
  <wgt id="929">7.9972e-12</wgt>
  <wgt id="930">7.71701e-12</wgt>
  <wgt id="931">7.82044e-12</wgt>
  <wgt id="932">7.11697e-12</wgt>
  <wgt id="933">8.42386e-12</wgt>
  <wgt id="934">7.83119e-12</wgt>
  <wgt id="935">8.60233e-12</wgt>
  <wgt id="936">7.92706e-12</wgt>
  <wgt id="937">8.08839e-12</wgt>
  <wgt id="938">7.84301e-12</wgt>
  <wgt id="939">7.80894e-12</wgt>
  <wgt id="940">8.04288e-12</wgt>
  <wgt id="941">7.57753e-12</wgt>
  <wgt id="942">7.88224e-12</wgt>
  <wgt id="943">8.72244e-12</wgt>
  <wgt id="944">7.02383e-12</wgt>
  <wgt id="945">7.78023e-12</wgt>
  <wgt id="946">7.65937e-12</wgt>
  <wgt id="947">7.74976e-12</wgt>
  <wgt id="948">8.20325e-12</wgt>
  <wgt id="949">8.3012e-12</wgt>
  <wgt id="950">7.29975e-12</wgt>
  <wgt id="951">7.78433e-12</wgt>
  <wgt id="952">8.35085e-12</wgt>
  <wgt id="953">7.81805e-12</wgt>
  <wgt id="954">8.19769e-12</wgt>
  <wgt id="955">7.30043e-12</wgt>
  <wgt id="956">7.55674e-12</wgt>
  <wgt id="957">8.17875e-12</wgt>
  <wgt id="958">7.95696e-12</wgt>
  <wgt id="959">7.96229e-12</wgt>
  <wgt id="960">7.35448e-12</wgt>
  <wgt id="961">8.01449e-12</wgt>
  <wgt id="962">7.85361e-12</wgt>
  <wgt id="963">8.0549e-12</wgt>
  <wgt id="964">8.31077e-12</wgt>
  <wgt id="965">8.32475e-12</wgt>
  <wgt id="966">7.91252e-12</wgt>
  <wgt id="967">8.1825e-12</wgt>
  <wgt id="968">8.01104e-12</wgt>
  <wgt id="969">7.87496e-12</wgt>
  <wgt id="970">8.09216e-12</wgt>
  <wgt id="971">7.52013e-12</wgt>
  <wgt id="972">8.35294e-12</wgt>
  <wgt id="973">7.65449e-12</wgt>
  <wgt id="974">9.24379e-12</wgt>
  <wgt id="975">7.43783e-12</wgt>
  <wgt id="976">7.86985e-12</wgt>
  <wgt id="977">7.16751e-12</wgt>
  <wgt id="978">8.29146e-12</wgt>
  <wgt id="979">8.62974e-12</wgt>
  <wgt id="980">7.91717e-12</wgt>
  <wgt id="981">7.93325e-12</wgt>
  <wgt id="982">7.68708e-12</wgt>
</rwgt>
</event>
<event>
 5   1  0.5790000E-11  0.2227768E+04  0.7818608E-02  0.7738490E-01
       21   -1    0    0  502  501  0.00000000000E+00  0.00000000000E+00  0.84204778774E+03  0.84204778774E+03  0.00000000000E+00 0.  1.
       21   -1    0    0  501  502 -0.00000000000E+00 -0.00000000000E+00 -0.14734767565E+04  0.14734767565E+04  0.00000000000E+00 0. -1.
       39    2    1    2    0    0  0.00000000000E+00  0.00000000000E+00 -0.63142896880E+03  0.23155245443E+04  0.22277682493E+04 0.  0.
       25    1    3    3    0    0  0.10848038331E+04  0.62586888219E+02 -0.96709952911E+02  0.10980411149E+04  0.12500000000E+03 0.  0.
       25    1    3    3    0    0 -0.10848038331E+04 -0.62586888219E+02 -0.53471901589E+03  0.12174834294E+04  0.12500000000E+03 0.  0.
<mgrwt>
<rscale>  0 0.22277682E+04</rscale>
<asrwt>0</asrwt>
<pdfrwt beam="1">  1       21 0.12954581E+00 0.22277682E+04</pdfrwt>
<pdfrwt beam="2">  1       21 0.22668873E+00 0.22277682E+04</pdfrwt>
<totfact> 0.15513376E+01</totfact>
</mgrwt>
<rwgt>
  <wgt id="1">5.79e-12</wgt>
  <wgt id="2">5.04693e-12</wgt>
  <wgt id="3">6.71102e-12</wgt>
  <wgt id="4">5.79e-12</wgt>
  <wgt id="5">5.04693e-12</wgt>
  <wgt id="6">6.71102e-12</wgt>
  <wgt id="7">5.79e-12</wgt>
  <wgt id="8">5.04693e-12</wgt>
  <wgt id="9">6.71102e-12</wgt>
  <wgt id="10">5.98651e-12</wgt>
  <wgt id="11">5.98192e-12</wgt>
  <wgt id="12">5.97611e-12</wgt>
  <wgt id="13">5.96703e-12</wgt>
  <wgt id="14">6.00812e-12</wgt>
  <wgt id="15">5.9962e-12</wgt>
  <wgt id="16">5.97617e-12</wgt>
  <wgt id="17">6.00105e-12</wgt>
  <wgt id="18">5.97705e-12</wgt>
  <wgt id="19">5.9993e-12</wgt>
  <wgt id="20">5.97087e-12</wgt>
  <wgt id="21">5.94851e-12</wgt>
  <wgt id="22">5.96119e-12</wgt>
  <wgt id="23">5.92917e-12</wgt>
  <wgt id="24">5.95653e-12</wgt>
  <wgt id="25">5.97108e-12</wgt>
  <wgt id="26">6.00803e-12</wgt>
  <wgt id="27">5.98446e-12</wgt>
  <wgt id="28">5.95747e-12</wgt>
  <wgt id="29">5.9912e-12</wgt>
  <wgt id="30">5.96469e-12</wgt>
  <wgt id="31">6.00619e-12</wgt>
  <wgt id="32">5.97122e-12</wgt>
  <wgt id="33">5.99928e-12</wgt>
  <wgt id="34">5.96469e-12</wgt>
  <wgt id="35">5.97624e-12</wgt>
  <wgt id="36">6.00447e-12</wgt>
  <wgt id="37">5.97075e-12</wgt>
  <wgt id="38">5.97e-12</wgt>
  <wgt id="39">6.05418e-12</wgt>
  <wgt id="40">5.99657e-12</wgt>
  <wgt id="41">5.9843e-12</wgt>
  <wgt id="42">5.99922e-12</wgt>
  <wgt id="43">5.98738e-12</wgt>
  <wgt id="44">5.9739e-12</wgt>
  <wgt id="45">5.99735e-12</wgt>
  <wgt id="46">5.99014e-12</wgt>
  <wgt id="47">5.97434e-12</wgt>
  <wgt id="48">5.98705e-12</wgt>
  <wgt id="49">5.98856e-12</wgt>
  <wgt id="50">6.00545e-12</wgt>
  <wgt id="51">6.00073e-12</wgt>
  <wgt id="52">5.98348e-12</wgt>
  <wgt id="53">5.95515e-12</wgt>
  <wgt id="54">5.97898e-12</wgt>
  <wgt id="55">5.98563e-12</wgt>
  <wgt id="56">6.00897e-12</wgt>
  <wgt id="57">6.00294e-12</wgt>
  <wgt id="58">5.95408e-12</wgt>
  <wgt id="59">5.96947e-12</wgt>
  <wgt id="60">5.99052e-12</wgt>
  <wgt id="61">5.96455e-12</wgt>
  <wgt id="62">5.97551e-12</wgt>
  <wgt id="63">5.98499e-12</wgt>
  <wgt id="64">5.99104e-12</wgt>
  <wgt id="65">5.99477e-12</wgt>
  <wgt id="66">5.97915e-12</wgt>
  <wgt id="67">5.96595e-12</wgt>
  <wgt id="68">5.98233e-12</wgt>
  <wgt id="69">5.98734e-12</wgt>
  <wgt id="70">5.9861e-12</wgt>
  <wgt id="71">5.98481e-12</wgt>
  <wgt id="72">5.97534e-12</wgt>
  <wgt id="73">5.9913e-12</wgt>
  <wgt id="74">5.9888e-12</wgt>
  <wgt id="75">5.98006e-12</wgt>
  <wgt id="76">6.00025e-12</wgt>
  <wgt id="77">5.98487e-12</wgt>
  <wgt id="78">5.98664e-12</wgt>
  <wgt id="79">5.99973e-12</wgt>
  <wgt id="80">5.96396e-12</wgt>
  <wgt id="81">5.9815e-12</wgt>
  <wgt id="82">5.98666e-12</wgt>
  <wgt id="83">5.96488e-12</wgt>
  <wgt id="84">5.97827e-12</wgt>
  <wgt id="85">5.97358e-12</wgt>
  <wgt id="86">6.00358e-12</wgt>
  <wgt id="87">5.95595e-12</wgt>
  <wgt id="88">5.99253e-12</wgt>
  <wgt id="89">5.9916e-12</wgt>
  <wgt id="90">5.99836e-12</wgt>
  <wgt id="91">5.99233e-12</wgt>
  <wgt id="92">5.99789e-12</wgt>
  <wgt id="93">5.98881e-12</wgt>
  <wgt id="94">5.98121e-12</wgt>
  <wgt id="95">5.99436e-12</wgt>
  <wgt id="96">5.99046e-12</wgt>
  <wgt id="97">5.97615e-12</wgt>
  <wgt id="98">5.98906e-12</wgt>
  <wgt id="99">5.97828e-12</wgt>
  <wgt id="100">5.99225e-12</wgt>
  <wgt id="101">5.98716e-12</wgt>
  <wgt id="102">5.98186e-12</wgt>
  <wgt id="103">5.99424e-12</wgt>
  <wgt id="104">5.98445e-12</wgt>
  <wgt id="105">5.99449e-12</wgt>
  <wgt id="106">5.97778e-12</wgt>
  <wgt id="107">6.00308e-12</wgt>
  <wgt id="108">5.98041e-12</wgt>
  <wgt id="109">5.98665e-12</wgt>
  <wgt id="110">5.98712e-12</wgt>
  <wgt id="111">6.04323e-12</wgt>
  <wgt id="112">5.99294e-12</wgt>
  <wgt id="113">8.032e-12</wgt>
  <wgt id="114">8.21924e-12</wgt>
  <wgt id="115">8.09838e-12</wgt>
  <wgt id="116">1.11429e-11</wgt>
  <wgt id="117">6.61343e-12</wgt>
  <wgt id="118">6.63559e-12</wgt>
  <wgt id="119">6.60047e-12</wgt>
  <wgt id="120">6.61405e-12</wgt>
  <wgt id="121">6.61315e-12</wgt>
  <wgt id="122">6.60149e-12</wgt>
  <wgt id="123">6.62933e-12</wgt>
  <wgt id="124">6.60376e-12</wgt>
  <wgt id="125">6.61927e-12</wgt>
  <wgt id="126">6.6244e-12</wgt>
  <wgt id="127">6.60594e-12</wgt>
  <wgt id="128">6.63403e-12</wgt>
  <wgt id="129">6.59291e-12</wgt>
  <wgt id="130">6.65086e-12</wgt>
  <wgt id="131">6.57506e-12</wgt>
  <wgt id="132">6.44322e-12</wgt>
  <wgt id="133">6.81426e-12</wgt>
  <wgt id="134">6.54399e-12</wgt>
  <wgt id="135">6.66763e-12</wgt>
  <wgt id="136">6.69691e-12</wgt>
  <wgt id="137">6.51199e-12</wgt>
  <wgt id="138">6.86609e-12</wgt>
  <wgt id="139">6.36893e-12</wgt>
  <wgt id="140">6.57021e-12</wgt>
  <wgt id="141">6.64691e-12</wgt>
  <wgt id="142">6.61398e-12</wgt>
  <wgt id="143">6.62329e-12</wgt>
  <wgt id="144">6.43142e-12</wgt>
  <wgt id="145">6.78194e-12</wgt>
  <wgt id="146">6.67075e-12</wgt>
  <wgt id="147">6.56772e-12</wgt>
  <wgt id="148">6.63338e-12</wgt>
  <wgt id="149">6.61187e-12</wgt>
  <wgt id="150">6.6695e-12</wgt>
  <wgt id="151">6.58727e-12</wgt>
  <wgt id="152">6.61619e-12</wgt>
  <wgt id="153">6.61223e-12</wgt>
  <wgt id="154">6.66472e-12</wgt>
  <wgt id="155">6.55104e-12</wgt>
  <wgt id="156">6.74191e-12</wgt>
  <wgt id="157">6.4774e-12</wgt>
  <wgt id="158">7.95592e-12</wgt>
  <wgt id="159">7.98935e-12</wgt>
  <wgt id="160">7.92931e-12</wgt>
  <wgt id="161">7.93701e-12</wgt>
  <wgt id="162">7.97762e-12</wgt>
  <wgt id="163">7.94753e-12</wgt>
  <wgt id="164">7.96844e-12</wgt>
  <wgt id="165">7.95927e-12</wgt>
  <wgt id="166">7.95344e-12</wgt>
  <wgt id="167">7.95009e-12</wgt>
  <wgt id="168">7.9644e-12</wgt>
  <wgt id="169">7.92176e-12</wgt>
  <wgt id="170">7.97709e-12</wgt>
  <wgt id="171">7.94782e-12</wgt>
  <wgt id="172">7.96734e-12</wgt>
  <wgt id="173">7.95477e-12</wgt>
  <wgt id="174">7.95634e-12</wgt>
  <wgt id="175">7.73739e-12</wgt>
  <wgt id="176">8.24078e-12</wgt>
  <wgt id="177">7.99647e-12</wgt>
  <wgt id="178">7.91885e-12</wgt>
  <wgt id="179">8.28471e-12</wgt>
  <wgt id="180">7.43716e-12</wgt>
  <wgt id="181">7.72825e-12</wgt>
  <wgt id="182">8.10611e-12</wgt>
  <wgt id="183">7.81691e-12</wgt>
  <wgt id="184">8.02486e-12</wgt>
  <wgt id="185">7.89071e-12</wgt>
  <wgt id="186">8.0339e-12</wgt>
  <wgt id="187">7.88387e-12</wgt>
  <wgt id="188">8.08494e-12</wgt>
  <wgt id="189">7.90534e-12</wgt>
  <wgt id="190">7.9765e-12</wgt>
  <wgt id="191">7.97739e-12</wgt>
  <wgt id="192">7.9431e-12</wgt>
  <wgt id="193">8.06674e-12</wgt>
  <wgt id="194">7.90112e-12</wgt>
  <wgt id="195">7.76896e-12</wgt>
  <wgt id="196">8.29355e-12</wgt>
  <wgt id="197">7.99476e-12</wgt>
  <wgt id="198">7.9468e-12</wgt>
  <wgt id="199">7.95592e-12</wgt>
  <wgt id="200">8.02308e-12</wgt>
  <wgt id="201">7.99884e-12</wgt>
  <wgt id="202">7.97493e-12</wgt>
  <wgt id="203">7.93928e-12</wgt>
  <wgt id="204">7.92225e-12</wgt>
  <wgt id="205">7.90831e-12</wgt>
  <wgt id="206">7.74293e-12</wgt>
  <wgt id="207">7.78802e-12</wgt>
  <wgt id="208">7.69879e-12</wgt>
  <wgt id="209">7.76552e-12</wgt>
  <wgt id="210">7.72726e-12</wgt>
  <wgt id="211">7.74086e-12</wgt>
  <wgt id="212">7.74492e-12</wgt>
  <wgt id="213">7.74255e-12</wgt>
  <wgt id="214">7.74401e-12</wgt>
  <wgt id="215">7.74854e-12</wgt>
  <wgt id="216">7.73949e-12</wgt>
  <wgt id="217">7.76396e-12</wgt>
  <wgt id="218">7.72695e-12</wgt>
  <wgt id="219">7.73396e-12</wgt>
  <wgt id="220">7.74899e-12</wgt>
  <wgt id="221">7.74059e-12</wgt>
  <wgt id="222">7.7494e-12</wgt>
  <wgt id="223">7.34185e-12</wgt>
  <wgt id="224">8.10823e-12</wgt>
  <wgt id="225">7.65334e-12</wgt>
  <wgt id="226">7.85619e-12</wgt>
  <wgt id="227">7.67204e-12</wgt>
  <wgt id="228">7.77439e-12</wgt>
  <wgt id="229">7.63825e-12</wgt>
  <wgt id="230">7.79543e-12</wgt>
  <wgt id="231">7.96172e-12</wgt>
  <wgt id="232">7.56325e-12</wgt>
  <wgt id="233">7.70375e-12</wgt>
  <wgt id="234">7.80537e-12</wgt>
  <wgt id="235">7.58517e-12</wgt>
  <wgt id="236">7.89029e-12</wgt>
  <wgt id="237">7.63661e-12</wgt>
  <wgt id="238">7.77961e-12</wgt>
  <wgt id="239">7.69727e-12</wgt>
  <wgt id="240">7.8269e-12</wgt>
  <wgt id="241">7.66588e-12</wgt>
  <wgt id="242">7.83591e-12</wgt>
  <wgt id="243">7.83054e-12</wgt>
  <wgt id="244">7.78422e-12</wgt>
  <wgt id="245">7.73753e-12</wgt>
  <wgt id="246">7.79988e-12</wgt>
  <wgt id="247">7.74293e-12</wgt>
  <wgt id="248">7.81021e-12</wgt>
  <wgt id="249">7.78467e-12</wgt>
  <wgt id="250">7.7608e-12</wgt>
  <wgt id="251">7.72551e-12</wgt>
  <wgt id="252">7.70862e-12</wgt>
  <wgt id="253">7.69664e-12</wgt>
  <wgt id="254">7.56944e-12</wgt>
  <wgt id="255">7.57635e-12</wgt>
  <wgt id="256">7.56173e-12</wgt>
  <wgt id="257">7.57511e-12</wgt>
  <wgt id="258">7.56518e-12</wgt>
  <wgt id="259">7.61957e-12</wgt>
  <wgt id="260">7.52075e-12</wgt>
  <wgt id="261">7.57862e-12</wgt>
  <wgt id="262">7.55818e-12</wgt>
  <wgt id="263">7.56589e-12</wgt>
  <wgt id="264">7.57309e-12</wgt>
  <wgt id="265">7.56111e-12</wgt>
  <wgt id="266">7.58618e-12</wgt>
  <wgt id="267">7.57153e-12</wgt>
  <wgt id="268">7.56605e-12</wgt>
  <wgt id="269">7.5922e-12</wgt>
  <wgt id="270">7.55378e-12</wgt>
  <wgt id="271">7.55606e-12</wgt>
  <wgt id="272">7.58456e-12</wgt>
  <wgt id="273">7.54688e-12</wgt>
  <wgt id="274">7.5864e-12</wgt>
  <wgt id="275">7.53837e-12</wgt>
  <wgt id="276">7.60149e-12</wgt>
  <wgt id="277">7.52712e-12</wgt>
  <wgt id="278">7.60836e-12</wgt>
  <wgt id="279">7.42978e-12</wgt>
  <wgt id="280">7.7445e-12</wgt>
  <wgt id="281">7.53776e-12</wgt>
  <wgt id="282">7.571e-12</wgt>
  <wgt id="283">7.35851e-12</wgt>
  <wgt id="284">7.8287e-12</wgt>
  <wgt id="285">7.21858e-12</wgt>
  <wgt id="286">7.85892e-12</wgt>
  <wgt id="287">7.59265e-12</wgt>
  <wgt id="288">7.53967e-12</wgt>
  <wgt id="289">7.62104e-12</wgt>
  <wgt id="290">7.44913e-12</wgt>
  <wgt id="291">7.54911e-12</wgt>
  <wgt id="292">7.57382e-12</wgt>
  <wgt id="293">7.51285e-12</wgt>
  <wgt id="294">7.62564e-12</wgt>
  <wgt id="295">7.42994e-12</wgt>
  <wgt id="296">7.7393e-12</wgt>
  <wgt id="297">7.56936e-12</wgt>
  <wgt id="298">7.5956e-12</wgt>
  <wgt id="299">7.54604e-12</wgt>
  <wgt id="300">7.63111e-12</wgt>
  <wgt id="301">7.4733e-12</wgt>
  <wgt id="302">7.81777e-12</wgt>
  <wgt id="303">7.51524e-12</wgt>
  <wgt id="304">7.60041e-12</wgt>
  <wgt id="305">7.59209e-12</wgt>
  <wgt id="306">7.5997e-12</wgt>
  <wgt id="307">7.58352e-12</wgt>
  <wgt id="308">7.59875e-12</wgt>
  <wgt id="309">7.58781e-12</wgt>
  <wgt id="310">7.6445e-12</wgt>
  <wgt id="311">7.54334e-12</wgt>
  <wgt id="312">7.59914e-12</wgt>
  <wgt id="313">7.58481e-12</wgt>
  <wgt id="314">7.58852e-12</wgt>
  <wgt id="315">7.59501e-12</wgt>
  <wgt id="316">7.58387e-12</wgt>
  <wgt id="317">7.60925e-12</wgt>
  <wgt id="318">7.59718e-12</wgt>
  <wgt id="319">7.58277e-12</wgt>
  <wgt id="320">7.61604e-12</wgt>
  <wgt id="321">7.57844e-12</wgt>
  <wgt id="322">7.57457e-12</wgt>
  <wgt id="323">7.61181e-12</wgt>
  <wgt id="324">7.57343e-12</wgt>
  <wgt id="325">7.60797e-12</wgt>
  <wgt id="326">7.5668e-12</wgt>
  <wgt id="327">7.62422e-12</wgt>
  <wgt id="328">7.55306e-12</wgt>
  <wgt id="329">7.61386e-12</wgt>
  <wgt id="330">7.80819e-12</wgt>
  <wgt id="331">7.38558e-12</wgt>
  <wgt id="332">7.56544e-12</wgt>
  <wgt id="333">7.59238e-12</wgt>
  <wgt id="334">7.42656e-12</wgt>
  <wgt id="335">7.79716e-12</wgt>
  <wgt id="336">7.33713e-12</wgt>
  <wgt id="337">7.90145e-12</wgt>
  <wgt id="338">7.67406e-12</wgt>
  <wgt id="339">7.51581e-12</wgt>
  <wgt id="340">7.64041e-12</wgt>
  <wgt id="341">7.46625e-12</wgt>
  <wgt id="342">7.5782e-12</wgt>
  <wgt id="343">7.58439e-12</wgt>
  <wgt id="344">7.54069e-12</wgt>
  <wgt id="345">7.65134e-12</wgt>
  <wgt id="346">7.44708e-12</wgt>
  <wgt id="347">7.75844e-12</wgt>
  <wgt id="348">7.59548e-12</wgt>
  <wgt id="349">7.61358e-12</wgt>
  <wgt id="350">7.56245e-12</wgt>
  <wgt id="351">7.66661e-12</wgt>
  <wgt id="352">7.48658e-12</wgt>
  <wgt id="353">7.85112e-12</wgt>
  <wgt id="354">7.51008e-12</wgt>
  <wgt id="355">7.64254e-12</wgt>
  <wgt id="356">7.56944e-12</wgt>
  <wgt id="357">7.62281e-12</wgt>
  <wgt id="358">7.59209e-12</wgt>
  <wgt id="359">7.59558e-12</wgt>
  <wgt id="360">7.61939e-12</wgt>
  <wgt id="361">7.59268e-12</wgt>
  <wgt id="362">7.72056e-12</wgt>
  <wgt id="363">7.70286e-12</wgt>
  <wgt id="364">7.67694e-12</wgt>
  <wgt id="365">7.65206e-12</wgt>
  <wgt id="366">7.62379e-12</wgt>
  <wgt id="367">7.56669e-12</wgt>
  <wgt id="368">7.53455e-12</wgt>
  <wgt id="369">7.49979e-12</wgt>
  <wgt id="370">7.59268e-12</wgt>
  <wgt id="371">7.62641e-12</wgt>
  <wgt id="372">7.60801e-12</wgt>
  <wgt id="373">7.58035e-12</wgt>
  <wgt id="374">7.57849e-12</wgt>
  <wgt id="375">8.1121e-12</wgt>
  <wgt id="376">8.11303e-12</wgt>
  <wgt id="377">8.11069e-12</wgt>
  <wgt id="378">8.1416e-12</wgt>
  <wgt id="379">8.08288e-12</wgt>
  <wgt id="380">8.13413e-12</wgt>
  <wgt id="381">8.1035e-12</wgt>
  <wgt id="382">8.15198e-12</wgt>
  <wgt id="383">8.07248e-12</wgt>
  <wgt id="384">8.11737e-12</wgt>
  <wgt id="385">8.10701e-12</wgt>
  <wgt id="386">8.14255e-12</wgt>
  <wgt id="387">8.09892e-12</wgt>
  <wgt id="388">8.10457e-12</wgt>
  <wgt id="389">8.1209e-12</wgt>
  <wgt id="390">8.13291e-12</wgt>
  <wgt id="391">8.09021e-12</wgt>
  <wgt id="392">8.05307e-12</wgt>
  <wgt id="393">8.14584e-12</wgt>
  <wgt id="394">8.12301e-12</wgt>
  <wgt id="395">8.09731e-12</wgt>
  <wgt id="396">8.11691e-12</wgt>
  <wgt id="397">8.10872e-12</wgt>
  <wgt id="398">8.08159e-12</wgt>
  <wgt id="399">8.14178e-12</wgt>
  <wgt id="400">8.09968e-12</wgt>
  <wgt id="401">8.14011e-12</wgt>
  <wgt id="402">8.04845e-12</wgt>
  <wgt id="403">8.14016e-12</wgt>
  <wgt id="404">8.29433e-12</wgt>
  <wgt id="405">7.67175e-12</wgt>
  <wgt id="406">7.9804e-12</wgt>
  <wgt id="407">8.39749e-12</wgt>
  <wgt id="408">8.17946e-12</wgt>
  <wgt id="409">7.98295e-12</wgt>
  <wgt id="410">7.89634e-12</wgt>
  <wgt id="411">8.21211e-12</wgt>
  <wgt id="412">8.09774e-12</wgt>
  <wgt id="413">8.13233e-12</wgt>
  <wgt id="414">8.02589e-12</wgt>
  <wgt id="415">8.17934e-12</wgt>
  <wgt id="416">8.31863e-12</wgt>
  <wgt id="417">7.82648e-12</wgt>
  <wgt id="418">8.12281e-12</wgt>
  <wgt id="419">8.05344e-12</wgt>
  <wgt id="420">8.22388e-12</wgt>
  <wgt id="421">8.0494e-12</wgt>
  <wgt id="422">8.10173e-12</wgt>
  <wgt id="423">8.11866e-12</wgt>
  <wgt id="424">8.26727e-12</wgt>
  <wgt id="425">8.01473e-12</wgt>
  <wgt id="426">8.1121e-12</wgt>
  <wgt id="427">8.04045e-12</wgt>
  <wgt id="428">8.31732e-12</wgt>
  <wgt id="429">8.18204e-12</wgt>
  <wgt id="430">8.40442e-12</wgt>
  <wgt id="431">8.36014e-12</wgt>
  <wgt id="432">8.31824e-12</wgt>
  <wgt id="433">8.27761e-12</wgt>
  <wgt id="434">8.22829e-12</wgt>
  <wgt id="435">8.12473e-12</wgt>
  <wgt id="436">8.07152e-12</wgt>
  <wgt id="437">8.02083e-12</wgt>
  <wgt id="438">8.18204e-12</wgt>
  <wgt id="439">8.20883e-12</wgt>
  <wgt id="440">8.19316e-12</wgt>
  <wgt id="441">8.17388e-12</wgt>
  <wgt id="442">8.16701e-12</wgt>
  <wgt id="443">7.91914e-12</wgt>
  <wgt id="444">7.96353e-12</wgt>
  <wgt id="445">7.90466e-12</wgt>
  <wgt id="446">7.86834e-12</wgt>
  <wgt id="447">7.89879e-12</wgt>
  <wgt id="448">7.72117e-12</wgt>
  <wgt id="449">8.03915e-12</wgt>
  <wgt id="450">7.90785e-12</wgt>
  <wgt id="451">7.90603e-12</wgt>
  <wgt id="452">8.08644e-12</wgt>
  <wgt id="453">7.98679e-12</wgt>
  <wgt id="454">7.60365e-12</wgt>
  <wgt id="455">7.93599e-12</wgt>
  <wgt id="456">7.86204e-12</wgt>
  <wgt id="457">7.94732e-12</wgt>
  <wgt id="458">8.01308e-12</wgt>
  <wgt id="459">7.9736e-12</wgt>
  <wgt id="460">7.97712e-12</wgt>
  <wgt id="461">7.7786e-12</wgt>
  <wgt id="462">7.86291e-12</wgt>
  <wgt id="463">7.83239e-12</wgt>
  <wgt id="464">7.88025e-12</wgt>
  <wgt id="465">7.99611e-12</wgt>
  <wgt id="466">7.82611e-12</wgt>
  <wgt id="467">7.84961e-12</wgt>
  <wgt id="468">7.90021e-12</wgt>
  <wgt id="469">7.9016e-12</wgt>
  <wgt id="470">7.8458e-12</wgt>
  <wgt id="471">7.85248e-12</wgt>
  <wgt id="472">7.95329e-12</wgt>
  <wgt id="473">7.68883e-12</wgt>
  <wgt id="474">5.79e-12</wgt>
  <wgt id="475">6.06279e-12</wgt>
  <wgt id="476">5.68593e-12</wgt>
  <wgt id="477">5.62925e-12</wgt>
  <wgt id="478">5.83182e-12</wgt>
  <wgt id="479">5.69147e-12</wgt>
  <wgt id="480">5.99922e-12</wgt>
  <wgt id="481">5.70396e-12</wgt>
  <wgt id="482">5.62616e-12</wgt>
  <wgt id="483">5.64846e-12</wgt>
  <wgt id="484">6.07882e-12</wgt>
  <wgt id="485">5.73486e-12</wgt>
  <wgt id="486">5.96881e-12</wgt>
  <wgt id="487">5.84444e-12</wgt>
  <wgt id="488">5.88515e-12</wgt>
  <wgt id="489">5.53558e-12</wgt>
  <wgt id="490">5.59654e-12</wgt>
  <wgt id="491">5.74848e-12</wgt>
  <wgt id="492">5.64824e-12</wgt>
  <wgt id="493">5.57258e-12</wgt>
  <wgt id="494">5.61183e-12</wgt>
  <wgt id="495">5.84935e-12</wgt>
  <wgt id="496">5.60299e-12</wgt>
  <wgt id="497">5.56756e-12</wgt>
  <wgt id="498">5.90297e-12</wgt>
  <wgt id="499">5.68373e-12</wgt>
  <wgt id="500">5.67962e-12</wgt>
  <wgt id="501">6.03174e-12</wgt>
  <wgt id="502">5.69339e-12</wgt>
  <wgt id="503">5.78913e-12</wgt>
  <wgt id="504">5.85427e-12</wgt>
  <wgt id="505">5.72293e-12</wgt>
  <wgt id="506">5.81634e-12</wgt>
  <wgt id="507">5.7636e-12</wgt>
  <wgt id="508">5.93077e-12</wgt>
  <wgt id="509">5.55208e-12</wgt>
  <wgt id="510">5.92792e-12</wgt>
  <wgt id="511">5.64124e-12</wgt>
  <wgt id="512">5.91138e-12</wgt>
  <wgt id="513">5.9967e-12</wgt>
  <wgt id="514">5.80107e-12</wgt>
  <wgt id="515">5.7453e-12</wgt>
  <wgt id="516">6.01831e-12</wgt>
  <wgt id="517">5.92342e-12</wgt>
  <wgt id="518">5.94516e-12</wgt>
  <wgt id="519">5.64097e-12</wgt>
  <wgt id="520">5.86755e-12</wgt>
  <wgt id="521">5.96471e-12</wgt>
  <wgt id="522">6.0278e-12</wgt>
  <wgt id="523">5.82636e-12</wgt>
  <wgt id="524">5.82178e-12</wgt>
  <wgt id="525">5.945e-12</wgt>
  <wgt id="526">5.83219e-12</wgt>
  <wgt id="527">5.86429e-12</wgt>
  <wgt id="528">5.81145e-12</wgt>
  <wgt id="529">5.71646e-12</wgt>
  <wgt id="530">5.88315e-12</wgt>
  <wgt id="531">5.70518e-12</wgt>
  <wgt id="532">6.12719e-12</wgt>
  <wgt id="533">5.49849e-12</wgt>
  <wgt id="534">5.78372e-12</wgt>
  <wgt id="535">5.84152e-12</wgt>
  <wgt id="536">5.75899e-12</wgt>
  <wgt id="537">5.79106e-12</wgt>
  <wgt id="538">5.86631e-12</wgt>
  <wgt id="539">5.67966e-12</wgt>
  <wgt id="540">5.73842e-12</wgt>
  <wgt id="541">5.63528e-12</wgt>
  <wgt id="542">5.70253e-12</wgt>
  <wgt id="543">5.77486e-12</wgt>
  <wgt id="544">6.05351e-12</wgt>
  <wgt id="545">5.69259e-12</wgt>
  <wgt id="546">5.66793e-12</wgt>
  <wgt id="547">5.63989e-12</wgt>
  <wgt id="548">5.55796e-12</wgt>
  <wgt id="549">5.70035e-12</wgt>
  <wgt id="550">5.71095e-12</wgt>
  <wgt id="551">5.86769e-12</wgt>
  <wgt id="552">5.66507e-12</wgt>
  <wgt id="553">5.74976e-12</wgt>
  <wgt id="554">6.20457e-12</wgt>
  <wgt id="555">5.95133e-12</wgt>
  <wgt id="556">5.59654e-12</wgt>
  <wgt id="557">5.91196e-12</wgt>
  <wgt id="558">5.63391e-12</wgt>
  <wgt id="559">5.68741e-12</wgt>
  <wgt id="560">6.305e-12</wgt>
  <wgt id="561">5.69917e-12</wgt>
  <wgt id="562">5.91659e-12</wgt>
  <wgt id="563">5.72312e-12</wgt>
  <wgt id="564">5.86894e-12</wgt>
  <wgt id="565">5.63334e-12</wgt>
  <wgt id="566">5.86303e-12</wgt>
  <wgt id="567">5.72728e-12</wgt>
  <wgt id="568">5.77589e-12</wgt>
  <wgt id="569">5.86932e-12</wgt>
  <wgt id="570">5.59624e-12</wgt>
  <wgt id="571">6.40334e-12</wgt>
  <wgt id="572">5.68177e-12</wgt>
  <wgt id="573">5.56699e-12</wgt>
  <wgt id="574">5.60701e-12</wgt>
  <wgt id="575">6.36174e-12</wgt>
  <wgt id="576">6.37116e-12</wgt>
  <wgt id="577">6.56088e-12</wgt>
  <wgt id="578">6.52842e-12</wgt>
  <wgt id="579">6.48577e-12</wgt>
  <wgt id="580">6.52713e-12</wgt>
  <wgt id="581">6.80293e-12</wgt>
  <wgt id="582">6.36015e-12</wgt>
  <wgt id="583">6.41882e-12</wgt>
  <wgt id="584">6.35233e-12</wgt>
  <wgt id="585">6.31303e-12</wgt>
  <wgt id="586">6.1859e-12</wgt>
  <wgt id="587">6.44888e-12</wgt>
  <wgt id="588">6.36442e-12</wgt>
  <wgt id="589">6.51715e-12</wgt>
  <wgt id="590">6.41759e-12</wgt>
  <wgt id="591">6.60263e-12</wgt>
  <wgt id="592">6.13656e-12</wgt>
  <wgt id="593">6.31594e-12</wgt>
  <wgt id="594">6.55236e-12</wgt>
  <wgt id="595">6.3672e-12</wgt>
  <wgt id="596">6.51289e-12</wgt>
  <wgt id="597">6.20444e-12</wgt>
  <wgt id="598">6.18176e-12</wgt>
  <wgt id="599">6.61907e-12</wgt>
  <wgt id="600">6.34612e-12</wgt>
  <wgt id="601">6.17854e-12</wgt>
  <wgt id="602">6.20092e-12</wgt>
  <wgt id="603">6.22797e-12</wgt>
  <wgt id="604">6.45605e-12</wgt>
  <wgt id="605">6.6031e-12</wgt>
  <wgt id="606">6.28263e-12</wgt>
  <wgt id="607">6.32683e-12</wgt>
  <wgt id="608">6.42233e-12</wgt>
  <wgt id="609">6.0563e-12</wgt>
  <wgt id="610">6.13337e-12</wgt>
  <wgt id="611">6.39487e-12</wgt>
  <wgt id="612">6.8273e-12</wgt>
  <wgt id="613">6.3297e-12</wgt>
  <wgt id="614">6.4097e-12</wgt>
  <wgt id="615">6.26779e-12</wgt>
  <wgt id="616">6.67767e-12</wgt>
  <wgt id="617">6.54209e-12</wgt>
  <wgt id="618">6.61696e-12</wgt>
  <wgt id="619">6.30311e-12</wgt>
  <wgt id="620">6.58019e-12</wgt>
  <wgt id="621">6.40519e-12</wgt>
  <wgt id="622">6.44888e-12</wgt>
  <wgt id="623">6.5212e-12</wgt>
  <wgt id="624">6.34481e-12</wgt>
  <wgt id="625">6.25993e-12</wgt>
  <wgt id="626">6.16065e-12</wgt>
  <wgt id="627">6.09583e-12</wgt>
  <wgt id="628">6.57963e-12</wgt>
  <wgt id="629">6.25974e-12</wgt>
  <wgt id="630">6.16864e-12</wgt>
  <wgt id="631">6.39118e-12</wgt>
  <wgt id="632">6.1075e-12</wgt>
  <wgt id="633">6.30766e-12</wgt>
  <wgt id="634">6.32203e-12</wgt>
  <wgt id="635">6.18373e-12</wgt>
  <wgt id="636">6.4231e-12</wgt>
  <wgt id="637">6.37762e-12</wgt>
  <wgt id="638">6.14646e-12</wgt>
  <wgt id="639">6.27528e-12</wgt>
  <wgt id="640">6.36456e-12</wgt>
  <wgt id="641">6.43919e-12</wgt>
  <wgt id="642">6.15683e-12</wgt>
  <wgt id="643">6.32538e-12</wgt>
  <wgt id="644">6.02424e-12</wgt>
  <wgt id="645">6.39974e-12</wgt>
  <wgt id="646">6.38454e-12</wgt>
  <wgt id="647">6.28354e-12</wgt>
  <wgt id="648">6.43234e-12</wgt>
  <wgt id="649">6.43443e-12</wgt>
  <wgt id="650">6.21584e-12</wgt>
  <wgt id="651">6.48092e-12</wgt>
  <wgt id="652">6.30785e-12</wgt>
  <wgt id="653">6.18355e-12</wgt>
  <wgt id="654">6.29198e-12</wgt>
  <wgt id="655">6.25305e-12</wgt>
  <wgt id="656">6.35385e-12</wgt>
  <wgt id="657">6.64344e-12</wgt>
  <wgt id="658">6.39901e-12</wgt>
  <wgt id="659">6.11266e-12</wgt>
  <wgt id="660">6.44991e-12</wgt>
  <wgt id="661">6.27072e-12</wgt>
  <wgt id="662">6.33181e-12</wgt>
  <wgt id="663">6.37312e-12</wgt>
  <wgt id="664">6.29125e-12</wgt>
  <wgt id="665">6.35138e-12</wgt>
  <wgt id="666">6.31573e-12</wgt>
  <wgt id="667">6.58385e-12</wgt>
  <wgt id="668">6.34858e-12</wgt>
  <wgt id="669">6.5061e-12</wgt>
  <wgt id="670">6.4992e-12</wgt>
  <wgt id="671">6.306e-12</wgt>
  <wgt id="672">6.1026e-12</wgt>
  <wgt id="673">6.41009e-12</wgt>
  <wgt id="674">6.22514e-12</wgt>
  <wgt id="675">6.26096e-12</wgt>
  <wgt id="676">7.99929e-12</wgt>
  <wgt id="677">8.10059e-12</wgt>
  <wgt id="678">8.40565e-12</wgt>
  <wgt id="679">7.60395e-12</wgt>
  <wgt id="680">7.82171e-12</wgt>
  <wgt id="681">8.14506e-12</wgt>
  <wgt id="682">8.19991e-12</wgt>
  <wgt id="683">7.86746e-12</wgt>
  <wgt id="684">8.33576e-12</wgt>
  <wgt id="685">7.66958e-12</wgt>
  <wgt id="686">7.86496e-12</wgt>
  <wgt id="687">8.33407e-12</wgt>
  <wgt id="688">7.90504e-12</wgt>
  <wgt id="689">8.49832e-12</wgt>
  <wgt id="690">8.37196e-12</wgt>
  <wgt id="691">8.39238e-12</wgt>
  <wgt id="692">7.9346e-12</wgt>
  <wgt id="693">9.39254e-12</wgt>
  <wgt id="694">8.494e-12</wgt>
  <wgt id="695">7.7414e-12</wgt>
  <wgt id="696">7.6723e-12</wgt>
  <wgt id="697">7.69777e-12</wgt>
  <wgt id="698">7.33331e-12</wgt>
  <wgt id="699">7.26369e-12</wgt>
  <wgt id="700">7.07295e-12</wgt>
  <wgt id="701">8.00874e-12</wgt>
  <wgt id="702">7.78579e-12</wgt>
  <wgt id="703">9.15393e-12</wgt>
  <wgt id="704">8.73394e-12</wgt>
  <wgt id="705">8.44655e-12</wgt>
  <wgt id="706">7.53325e-12</wgt>
  <wgt id="707">7.6768e-12</wgt>
  <wgt id="708">7.8749e-12</wgt>
  <wgt id="709">7.84722e-12</wgt>
  <wgt id="710">7.27375e-12</wgt>
  <wgt id="711">7.977e-12</wgt>
  <wgt id="712">7.82004e-12</wgt>
  <wgt id="713">8.5757e-12</wgt>
  <wgt id="714">7.82333e-12</wgt>
  <wgt id="715">7.89296e-12</wgt>
  <wgt id="716">7.71575e-12</wgt>
  <wgt id="717">7.57501e-12</wgt>
  <wgt id="718">7.99673e-12</wgt>
  <wgt id="719">7.29771e-12</wgt>
  <wgt id="720">7.64189e-12</wgt>
  <wgt id="721">7.36862e-12</wgt>
  <wgt id="722">7.09971e-12</wgt>
  <wgt id="723">8.52231e-12</wgt>
  <wgt id="724">8.37401e-12</wgt>
  <wgt id="725">8.412e-12</wgt>
  <wgt id="726">8.05263e-12</wgt>
  <wgt id="727">7.84268e-12</wgt>
  <wgt id="728">7.83562e-12</wgt>
  <wgt id="729">7.5294e-12</wgt>
  <wgt id="730">8.54735e-12</wgt>
  <wgt id="731">7.88823e-12</wgt>
  <wgt id="732">8.79633e-12</wgt>
  <wgt id="733">7.8959e-12</wgt>
  <wgt id="734">8.18189e-12</wgt>
  <wgt id="735">8.02593e-12</wgt>
  <wgt id="736">7.81615e-12</wgt>
  <wgt id="737">8.09028e-12</wgt>
  <wgt id="738">7.66914e-12</wgt>
  <wgt id="739">8.14926e-12</wgt>
  <wgt id="740">8.88897e-12</wgt>
  <wgt id="741">7.23393e-12</wgt>
  <wgt id="742">7.89923e-12</wgt>
  <wgt id="743">7.64555e-12</wgt>
  <wgt id="744">7.83519e-12</wgt>
  <wgt id="745">8.34272e-12</wgt>
  <wgt id="746">8.4807e-12</wgt>
  <wgt id="747">7.23386e-12</wgt>
  <wgt id="748">7.88597e-12</wgt>
  <wgt id="749">8.38442e-12</wgt>
  <wgt id="750">8.24127e-12</wgt>
  <wgt id="751">8.20915e-12</wgt>
  <wgt id="752">7.36259e-12</wgt>
  <wgt id="753">7.55892e-12</wgt>
  <wgt id="754">8.2707e-12</wgt>
  <wgt id="755">8.00886e-12</wgt>
  <wgt id="756">7.99452e-12</wgt>
  <wgt id="757">7.36537e-12</wgt>
  <wgt id="758">8.02496e-12</wgt>
  <wgt id="759">8.28124e-12</wgt>
  <wgt id="760">8.05752e-12</wgt>
  <wgt id="761">8.44726e-12</wgt>
  <wgt id="762">8.47151e-12</wgt>
  <wgt id="763">7.99046e-12</wgt>
  <wgt id="764">8.30693e-12</wgt>
  <wgt id="765">8.07666e-12</wgt>
  <wgt id="766">7.98806e-12</wgt>
  <wgt id="767">8.16823e-12</wgt>
  <wgt id="768">7.5469e-12</wgt>
  <wgt id="769">8.46111e-12</wgt>
  <wgt id="770">7.84032e-12</wgt>
  <wgt id="771">9.39674e-12</wgt>
  <wgt id="772">7.59022e-12</wgt>
  <wgt id="773">7.9464e-12</wgt>
  <wgt id="774">7.05678e-12</wgt>
  <wgt id="775">8.36296e-12</wgt>
  <wgt id="776">8.68868e-12</wgt>
  <wgt id="777">7.61181e-12</wgt>
  <wgt id="778">5.89247e-12</wgt>
  <wgt id="779">4.80952e-12</wgt>
  <wgt id="780">3.88872e-12</wgt>
  <wgt id="781">6.28785e-12</wgt>
  <wgt id="782">6.30557e-12</wgt>
  <wgt id="783">4.85674e-12</wgt>
  <wgt id="784">5.09961e-12</wgt>
  <wgt id="785">7.27632e-12</wgt>
  <wgt id="786">4.51132e-12</wgt>
  <wgt id="787">6.72719e-12</wgt>
  <wgt id="788">3.57708e-12</wgt>
  <wgt id="789">4.84282e-12</wgt>
  <wgt id="790">4.44757e-12</wgt>
  <wgt id="791">5.68021e-12</wgt>
  <wgt id="792">7.77124e-12</wgt>
  <wgt id="793">5.79045e-12</wgt>
  <wgt id="794">4.43665e-12</wgt>
  <wgt id="795">6.92702e-12</wgt>
  <wgt id="796">7.70345e-12</wgt>
  <wgt id="797">6.90098e-12</wgt>
  <wgt id="798">5.34172e-12</wgt>
  <wgt id="799">6.70138e-12</wgt>
  <wgt id="800">4.86735e-12</wgt>
  <wgt id="801">5.489e-12</wgt>
  <wgt id="802">4.44822e-12</wgt>
  <wgt id="803">7.9713e-12</wgt>
  <wgt id="804">6.88473e-12</wgt>
  <wgt id="805">6.95944e-12</wgt>
  <wgt id="806">6.52102e-12</wgt>
  <wgt id="807">5.63348e-12</wgt>
  <wgt id="808">5.70269e-12</wgt>
  <wgt id="809">5.45733e-12</wgt>
  <wgt id="810">6.61953e-12</wgt>
  <wgt id="811">6.37163e-12</wgt>
  <wgt id="812">4.44736e-12</wgt>
  <wgt id="813">4.55621e-12</wgt>
  <wgt id="814">4.8893e-12</wgt>
  <wgt id="815">4.81373e-12</wgt>
  <wgt id="816">4.35598e-12</wgt>
  <wgt id="817">6.13033e-12</wgt>
  <wgt id="818">5.9994e-12</wgt>
  <wgt id="819">4.82371e-12</wgt>
  <wgt id="820">5.86374e-12</wgt>
  <wgt id="821">6.73645e-12</wgt>
  <wgt id="822">4.8921e-12</wgt>
  <wgt id="823">6.814e-12</wgt>
  <wgt id="824">7.92797e-12</wgt>
  <wgt id="825">4.28975e-12</wgt>
  <wgt id="826">6.28919e-12</wgt>
  <wgt id="827">3.58337e-12</wgt>
  <wgt id="828">7.52163e-12</wgt>
  <wgt id="829">6.08747e-12</wgt>
  <wgt id="830">4.07186e-12</wgt>
  <wgt id="831">6.36518e-12</wgt>
  <wgt id="832">9.60414e-12</wgt>
  <wgt id="833">5.42776e-12</wgt>
  <wgt id="834">9.08658e-12</wgt>
  <wgt id="835">4.79533e-12</wgt>
  <wgt id="836">5.7327e-12</wgt>
  <wgt id="837">6.64982e-12</wgt>
  <wgt id="838">5.51059e-12</wgt>
  <wgt id="839">6.32717e-12</wgt>
  <wgt id="840">5.47485e-12</wgt>
  <wgt id="841">7.27928e-12</wgt>
  <wgt id="842">5.41253e-12</wgt>
  <wgt id="843">5.86193e-12</wgt>
  <wgt id="844">6.15411e-12</wgt>
  <wgt id="845">8.44712e-12</wgt>
  <wgt id="846">5.78285e-12</wgt>
  <wgt id="847">5.966e-12</wgt>
  <wgt id="848">4.99216e-12</wgt>
  <wgt id="849">6.05777e-12</wgt>
  <wgt id="850">7.70387e-12</wgt>
  <wgt id="851">6.48144e-12</wgt>
  <wgt id="852">4.85397e-12</wgt>
  <wgt id="853">6.51334e-12</wgt>
  <wgt id="854">7.21417e-12</wgt>
  <wgt id="855">6.78724e-12</wgt>
  <wgt id="856">4.15352e-12</wgt>
  <wgt id="857">5.82808e-12</wgt>
  <wgt id="858">5.69811e-12</wgt>
  <wgt id="859">5.53057e-12</wgt>
  <wgt id="860">6.43359e-12</wgt>
  <wgt id="861">5.19258e-12</wgt>
  <wgt id="862">5.97194e-12</wgt>
  <wgt id="863">6.26427e-12</wgt>
  <wgt id="864">6.21101e-12</wgt>
  <wgt id="865">8.40226e-12</wgt>
  <wgt id="866">9.22846e-12</wgt>
  <wgt id="867">5.97806e-12</wgt>
  <wgt id="868">5.81736e-12</wgt>
  <wgt id="869">4.51265e-12</wgt>
  <wgt id="870">4.77328e-12</wgt>
  <wgt id="871">4.63455e-12</wgt>
  <wgt id="872">7.09011e-12</wgt>
  <wgt id="873">4.92514e-12</wgt>
  <wgt id="874">6.21425e-12</wgt>
  <wgt id="875">5.09391e-12</wgt>
  <wgt id="876">7.05187e-12</wgt>
  <wgt id="877">6.68614e-12</wgt>
  <wgt id="878">5.01932e-12</wgt>
  <wgt id="879">7.99929e-12</wgt>
  <wgt id="880">8.10059e-12</wgt>
  <wgt id="881">8.40565e-12</wgt>
  <wgt id="882">7.60395e-12</wgt>
  <wgt id="883">7.82171e-12</wgt>
  <wgt id="884">8.14506e-12</wgt>
  <wgt id="885">8.19991e-12</wgt>
  <wgt id="886">7.86746e-12</wgt>
  <wgt id="887">8.33576e-12</wgt>
  <wgt id="888">7.66958e-12</wgt>
  <wgt id="889">7.86496e-12</wgt>
  <wgt id="890">8.33407e-12</wgt>
  <wgt id="891">7.90504e-12</wgt>
  <wgt id="892">8.49832e-12</wgt>
  <wgt id="893">8.37196e-12</wgt>
  <wgt id="894">8.39238e-12</wgt>
  <wgt id="895">7.9346e-12</wgt>
  <wgt id="896">9.39254e-12</wgt>
  <wgt id="897">8.494e-12</wgt>
  <wgt id="898">7.7414e-12</wgt>
  <wgt id="899">7.6723e-12</wgt>
  <wgt id="900">7.69777e-12</wgt>
  <wgt id="901">7.33331e-12</wgt>
  <wgt id="902">7.26369e-12</wgt>
  <wgt id="903">7.07295e-12</wgt>
  <wgt id="904">8.00874e-12</wgt>
  <wgt id="905">7.78579e-12</wgt>
  <wgt id="906">9.15393e-12</wgt>
  <wgt id="907">8.73394e-12</wgt>
  <wgt id="908">8.44655e-12</wgt>
  <wgt id="909">7.53325e-12</wgt>
  <wgt id="910">7.6768e-12</wgt>
  <wgt id="911">7.8749e-12</wgt>
  <wgt id="912">7.84722e-12</wgt>
  <wgt id="913">7.27375e-12</wgt>
  <wgt id="914">7.977e-12</wgt>
  <wgt id="915">7.82004e-12</wgt>
  <wgt id="916">8.5757e-12</wgt>
  <wgt id="917">7.82333e-12</wgt>
  <wgt id="918">7.89296e-12</wgt>
  <wgt id="919">7.71575e-12</wgt>
  <wgt id="920">7.57501e-12</wgt>
  <wgt id="921">7.99673e-12</wgt>
  <wgt id="922">7.29771e-12</wgt>
  <wgt id="923">7.64189e-12</wgt>
  <wgt id="924">7.36862e-12</wgt>
  <wgt id="925">7.09971e-12</wgt>
  <wgt id="926">8.52231e-12</wgt>
  <wgt id="927">8.37401e-12</wgt>
  <wgt id="928">8.412e-12</wgt>
  <wgt id="929">8.05263e-12</wgt>
  <wgt id="930">7.84268e-12</wgt>
  <wgt id="931">7.83562e-12</wgt>
  <wgt id="932">7.5294e-12</wgt>
  <wgt id="933">8.54735e-12</wgt>
  <wgt id="934">7.88823e-12</wgt>
  <wgt id="935">8.79633e-12</wgt>
  <wgt id="936">7.8959e-12</wgt>
  <wgt id="937">8.18189e-12</wgt>
  <wgt id="938">8.02593e-12</wgt>
  <wgt id="939">7.81615e-12</wgt>
  <wgt id="940">8.09028e-12</wgt>
  <wgt id="941">7.66914e-12</wgt>
  <wgt id="942">8.14926e-12</wgt>
  <wgt id="943">8.88897e-12</wgt>
  <wgt id="944">7.23393e-12</wgt>
  <wgt id="945">7.89923e-12</wgt>
  <wgt id="946">7.64555e-12</wgt>
  <wgt id="947">7.83519e-12</wgt>
  <wgt id="948">8.34272e-12</wgt>
  <wgt id="949">8.4807e-12</wgt>
  <wgt id="950">7.23386e-12</wgt>
  <wgt id="951">7.88597e-12</wgt>
  <wgt id="952">8.38442e-12</wgt>
  <wgt id="953">8.24127e-12</wgt>
  <wgt id="954">8.20915e-12</wgt>
  <wgt id="955">7.36259e-12</wgt>
  <wgt id="956">7.55892e-12</wgt>
  <wgt id="957">8.2707e-12</wgt>
  <wgt id="958">8.00886e-12</wgt>
  <wgt id="959">7.99452e-12</wgt>
  <wgt id="960">7.36537e-12</wgt>
  <wgt id="961">8.02496e-12</wgt>
  <wgt id="962">8.28124e-12</wgt>
  <wgt id="963">8.05752e-12</wgt>
  <wgt id="964">8.44726e-12</wgt>
  <wgt id="965">8.47151e-12</wgt>
  <wgt id="966">7.99046e-12</wgt>
  <wgt id="967">8.30693e-12</wgt>
  <wgt id="968">8.07666e-12</wgt>
  <wgt id="969">7.98806e-12</wgt>
  <wgt id="970">8.16823e-12</wgt>
  <wgt id="971">7.5469e-12</wgt>
  <wgt id="972">8.46111e-12</wgt>
  <wgt id="973">7.84032e-12</wgt>
  <wgt id="974">9.39674e-12</wgt>
  <wgt id="975">7.59022e-12</wgt>
  <wgt id="976">7.9464e-12</wgt>
  <wgt id="977">7.05678e-12</wgt>
  <wgt id="978">8.36296e-12</wgt>
  <wgt id="979">8.68868e-12</wgt>
  <wgt id="980">7.99421e-12</wgt>
  <wgt id="981">8.04061e-12</wgt>
  <wgt id="982">7.76352e-12</wgt>
</rwgt>
</event>
<event>
 5   1  0.5790000E-11  0.2277062E+04  0.7818608E-02  0.7720451E-01
       21   -1    0    0  502  501  0.00000000000E+00  0.00000000000E+00  0.17205731450E+04  0.17205731450E+04  0.00000000000E+00 0. -1.
       21   -1    0    0  501  502 -0.00000000000E+00 -0.00000000000E+00 -0.75338446476E+03  0.75338446476E+03  0.00000000000E+00 0.  1.
       39    2    1    2    0    0  0.00000000000E+00  0.00000000000E+00  0.96718868025E+03  0.24739576098E+04  0.22770622108E+04 0.  0.
       25    1    3    3    0    0 -0.66456671413E+03  0.74322575458E+03  0.10652304866E+04  0.14643682697E+04  0.12500000000E+03 0.  0.
       25    1    3    3    0    0  0.66456671413E+03 -0.74322575458E+03 -0.98041806322E+02  0.10095893401E+04  0.12500000000E+03 0.  0.
<mgrwt>
<rscale>  0 0.22770622E+04</rscale>
<asrwt>0</asrwt>
<pdfrwt beam="1">  1       21 0.26470356E+00 0.22770622E+04</pdfrwt>
<pdfrwt beam="2">  1       21 0.11590530E+00 0.22770622E+04</pdfrwt>
<totfact> 0.11474743E+01</totfact>
</mgrwt>
<rwgt>
  <wgt id="1">5.79e-12</wgt>
  <wgt id="2">5.03139e-12</wgt>
  <wgt id="3">6.73311e-12</wgt>
  <wgt id="4">5.79e-12</wgt>
  <wgt id="5">5.03139e-12</wgt>
  <wgt id="6">6.73311e-12</wgt>
  <wgt id="7">5.79e-12</wgt>
  <wgt id="8">5.03139e-12</wgt>
  <wgt id="9">6.73311e-12</wgt>
  <wgt id="10">6.0278e-12</wgt>
  <wgt id="11">6.02415e-12</wgt>
  <wgt id="12">6.01772e-12</wgt>
  <wgt id="13">6.01049e-12</wgt>
  <wgt id="14">6.04967e-12</wgt>
  <wgt id="15">6.03815e-12</wgt>
  <wgt id="16">6.01836e-12</wgt>
  <wgt id="17">6.0485e-12</wgt>
  <wgt id="18">6.01779e-12</wgt>
  <wgt id="19">6.04361e-12</wgt>
  <wgt id="20">6.01666e-12</wgt>
  <wgt id="21">5.98342e-12</wgt>
  <wgt id="22">5.99328e-12</wgt>
  <wgt id="23">5.95659e-12</wgt>
  <wgt id="24">5.99127e-12</wgt>
  <wgt id="25">6.0085e-12</wgt>
  <wgt id="26">6.04703e-12</wgt>
  <wgt id="27">6.02228e-12</wgt>
  <wgt id="28">5.99483e-12</wgt>
  <wgt id="29">6.03147e-12</wgt>
  <wgt id="30">5.99425e-12</wgt>
  <wgt id="31">6.05262e-12</wgt>
  <wgt id="32">6.00323e-12</wgt>
  <wgt id="33">6.03918e-12</wgt>
  <wgt id="34">5.99813e-12</wgt>
  <wgt id="35">6.00882e-12</wgt>
  <wgt id="36">6.05094e-12</wgt>
  <wgt id="37">6.01071e-12</wgt>
  <wgt id="38">6.00797e-12</wgt>
  <wgt id="39">6.11049e-12</wgt>
  <wgt id="40">6.03344e-12</wgt>
  <wgt id="41">6.02441e-12</wgt>
  <wgt id="42">6.03759e-12</wgt>
  <wgt id="43">6.02717e-12</wgt>
  <wgt id="44">6.03179e-12</wgt>
  <wgt id="45">6.03878e-12</wgt>
  <wgt id="46">6.02193e-12</wgt>
  <wgt id="47">6.03992e-12</wgt>
  <wgt id="48">6.0357e-12</wgt>
  <wgt id="49">6.00943e-12</wgt>
  <wgt id="50">6.01851e-12</wgt>
  <wgt id="51">6.02204e-12</wgt>
  <wgt id="52">6.03895e-12</wgt>
  <wgt id="53">6.01885e-12</wgt>
  <wgt id="54">6.03265e-12</wgt>
  <wgt id="55">6.02761e-12</wgt>
  <wgt id="56">6.04313e-12</wgt>
  <wgt id="57">6.03047e-12</wgt>
  <wgt id="58">6.00771e-12</wgt>
  <wgt id="59">6.01856e-12</wgt>
  <wgt id="60">6.02206e-12</wgt>
  <wgt id="61">5.99228e-12</wgt>
  <wgt id="62">6.00766e-12</wgt>
  <wgt id="63">6.01978e-12</wgt>
  <wgt id="64">6.02798e-12</wgt>
  <wgt id="65">6.03078e-12</wgt>
  <wgt id="66">6.02237e-12</wgt>
  <wgt id="67">5.99971e-12</wgt>
  <wgt id="68">6.02615e-12</wgt>
  <wgt id="69">6.02685e-12</wgt>
  <wgt id="70">6.02729e-12</wgt>
  <wgt id="71">6.02301e-12</wgt>
  <wgt id="72">6.00555e-12</wgt>
  <wgt id="73">6.04106e-12</wgt>
  <wgt id="74">6.03333e-12</wgt>
  <wgt id="75">6.02411e-12</wgt>
  <wgt id="76">6.0485e-12</wgt>
  <wgt id="77">6.02313e-12</wgt>
  <wgt id="78">6.02417e-12</wgt>
  <wgt id="79">6.04441e-12</wgt>
  <wgt id="80">5.9978e-12</wgt>
  <wgt id="81">6.02654e-12</wgt>
  <wgt id="82">6.02921e-12</wgt>
  <wgt id="83">6.0026e-12</wgt>
  <wgt id="84">6.01982e-12</wgt>
  <wgt id="85">6.01151e-12</wgt>
  <wgt id="86">6.04689e-12</wgt>
  <wgt id="87">5.99037e-12</wgt>
  <wgt id="88">6.03533e-12</wgt>
  <wgt id="89">6.03253e-12</wgt>
  <wgt id="90">6.04486e-12</wgt>
  <wgt id="91">6.03464e-12</wgt>
  <wgt id="92">6.04058e-12</wgt>
  <wgt id="93">6.03446e-12</wgt>
  <wgt id="94">6.02067e-12</wgt>
  <wgt id="95">6.04361e-12</wgt>
  <wgt id="96">6.03495e-12</wgt>
  <wgt id="97">6.01223e-12</wgt>
  <wgt id="98">6.02969e-12</wgt>
  <wgt id="99">6.01378e-12</wgt>
  <wgt id="100">6.03896e-12</wgt>
  <wgt id="101">6.02974e-12</wgt>
  <wgt id="102">6.02411e-12</wgt>
  <wgt id="103">6.03979e-12</wgt>
  <wgt id="104">6.0227e-12</wgt>
  <wgt id="105">6.03777e-12</wgt>
  <wgt id="106">6.01674e-12</wgt>
  <wgt id="107">6.05076e-12</wgt>
  <wgt id="108">6.01915e-12</wgt>
  <wgt id="109">6.03208e-12</wgt>
  <wgt id="110">6.02664e-12</wgt>
  <wgt id="111">6.069e-12</wgt>
  <wgt id="112">6.05998e-12</wgt>
  <wgt id="113">8.29325e-12</wgt>
  <wgt id="114">8.25169e-12</wgt>
  <wgt id="115">8.11726e-12</wgt>
  <wgt id="116">1.12212e-11</wgt>
  <wgt id="117">6.68278e-12</wgt>
  <wgt id="118">6.70616e-12</wgt>
  <wgt id="119">6.66943e-12</wgt>
  <wgt id="120">6.6833e-12</wgt>
  <wgt id="121">6.68243e-12</wgt>
  <wgt id="122">6.6714e-12</wgt>
  <wgt id="123">6.69847e-12</wgt>
  <wgt id="124">6.67342e-12</wgt>
  <wgt id="125">6.68873e-12</wgt>
  <wgt id="126">6.69365e-12</wgt>
  <wgt id="127">6.6755e-12</wgt>
  <wgt id="128">6.70343e-12</wgt>
  <wgt id="129">6.6622e-12</wgt>
  <wgt id="130">6.71913e-12</wgt>
  <wgt id="131">6.64526e-12</wgt>
  <wgt id="132">6.50609e-12</wgt>
  <wgt id="133">6.89213e-12</wgt>
  <wgt id="134">6.61146e-12</wgt>
  <wgt id="135">6.73855e-12</wgt>
  <wgt id="136">6.77359e-12</wgt>
  <wgt id="137">6.57326e-12</wgt>
  <wgt id="138">6.95524e-12</wgt>
  <wgt id="139">6.42114e-12</wgt>
  <wgt id="140">6.64288e-12</wgt>
  <wgt id="141">6.71375e-12</wgt>
  <wgt id="142">6.68263e-12</wgt>
  <wgt id="143">6.69657e-12</wgt>
  <wgt id="144">6.46622e-12</wgt>
  <wgt id="145">6.88716e-12</wgt>
  <wgt id="146">6.75131e-12</wgt>
  <wgt id="147">6.6278e-12</wgt>
  <wgt id="148">6.70482e-12</wgt>
  <wgt id="149">6.68125e-12</wgt>
  <wgt id="150">6.73966e-12</wgt>
  <wgt id="151">6.65611e-12</wgt>
  <wgt id="152">6.68532e-12</wgt>
  <wgt id="153">6.68189e-12</wgt>
  <wgt id="154">6.72303e-12</wgt>
  <wgt id="155">6.62999e-12</wgt>
  <wgt id="156">6.8452e-12</wgt>
  <wgt id="157">6.52158e-12</wgt>
  <wgt id="158">8.03222e-12</wgt>
  <wgt id="159">8.06572e-12</wgt>
  <wgt id="160">8.00481e-12</wgt>
  <wgt id="161">8.0121e-12</wgt>
  <wgt id="162">8.05408e-12</wgt>
  <wgt id="163">8.02319e-12</wgt>
  <wgt id="164">8.04472e-12</wgt>
  <wgt id="165">8.03502e-12</wgt>
  <wgt id="166">8.02957e-12</wgt>
  <wgt id="167">8.02629e-12</wgt>
  <wgt id="168">8.04005e-12</wgt>
  <wgt id="169">7.99805e-12</wgt>
  <wgt id="170">8.05316e-12</wgt>
  <wgt id="171">8.02416e-12</wgt>
  <wgt id="172">8.04262e-12</wgt>
  <wgt id="173">8.02616e-12</wgt>
  <wgt id="174">8.03388e-12</wgt>
  <wgt id="175">7.80546e-12</wgt>
  <wgt id="176">8.32736e-12</wgt>
  <wgt id="177">8.07254e-12</wgt>
  <wgt id="178">7.9949e-12</wgt>
  <wgt id="179">8.39046e-12</wgt>
  <wgt id="180">7.4707e-12</wgt>
  <wgt id="181">7.78833e-12</wgt>
  <wgt id="182">8.19355e-12</wgt>
  <wgt id="183">7.88361e-12</wgt>
  <wgt id="184">8.1055e-12</wgt>
  <wgt id="185">7.95802e-12</wgt>
  <wgt id="186">8.12106e-12</wgt>
  <wgt id="187">7.95335e-12</wgt>
  <wgt id="188">8.17226e-12</wgt>
  <wgt id="189">7.97654e-12</wgt>
  <wgt id="190">8.05453e-12</wgt>
  <wgt id="191">8.05621e-12</wgt>
  <wgt id="192">8.01746e-12</wgt>
  <wgt id="193">8.15205e-12</wgt>
  <wgt id="194">7.97216e-12</wgt>
  <wgt id="195">7.80709e-12</wgt>
  <wgt id="196">8.41922e-12</wgt>
  <wgt id="197">8.07303e-12</wgt>
  <wgt id="198">8.02214e-12</wgt>
  <wgt id="199">8.03222e-12</wgt>
  <wgt id="200">8.10374e-12</wgt>
  <wgt id="201">8.07811e-12</wgt>
  <wgt id="202">8.05379e-12</wgt>
  <wgt id="203">8.01707e-12</wgt>
  <wgt id="204">7.99942e-12</wgt>
  <wgt id="205">7.98467e-12</wgt>
  <wgt id="206">7.82357e-12</wgt>
  <wgt id="207">7.86978e-12</wgt>
  <wgt id="208">7.77807e-12</wgt>
  <wgt id="209">7.84676e-12</wgt>
  <wgt id="210">7.80676e-12</wgt>
  <wgt id="211">7.82101e-12</wgt>
  <wgt id="212">7.82563e-12</wgt>
  <wgt id="213">7.82288e-12</wgt>
  <wgt id="214">7.82465e-12</wgt>
  <wgt id="215">7.82919e-12</wgt>
  <wgt id="216">7.81959e-12</wgt>
  <wgt id="217">7.84405e-12</wgt>
  <wgt id="218">7.8079e-12</wgt>
  <wgt id="219">7.81431e-12</wgt>
  <wgt id="220">7.82922e-12</wgt>
  <wgt id="221">7.82265e-12</wgt>
  <wgt id="222">7.82483e-12</wgt>
  <wgt id="223">7.40371e-12</wgt>
  <wgt id="224">8.20707e-12</wgt>
  <wgt id="225">7.72978e-12</wgt>
  <wgt id="226">7.94217e-12</wgt>
  <wgt id="227">7.74997e-12</wgt>
  <wgt id="228">7.85594e-12</wgt>
  <wgt id="229">7.71507e-12</wgt>
  <wgt id="230">7.87747e-12</wgt>
  <wgt id="231">8.05971e-12</wgt>
  <wgt id="232">7.62966e-12</wgt>
  <wgt id="233">7.7805e-12</wgt>
  <wgt id="234">7.89341e-12</wgt>
  <wgt id="235">7.61009e-12</wgt>
  <wgt id="236">8.0093e-12</wgt>
  <wgt id="237">7.68933e-12</wgt>
  <wgt id="238">7.86881e-12</wgt>
  <wgt id="239">7.76725e-12</wgt>
  <wgt id="240">7.92507e-12</wgt>
  <wgt id="241">7.73957e-12</wgt>
  <wgt id="242">7.92411e-12</wgt>
  <wgt id="243">7.92976e-12</wgt>
  <wgt id="244">7.85051e-12</wgt>
  <wgt id="245">7.81877e-12</wgt>
  <wgt id="246">7.87602e-12</wgt>
  <wgt id="247">7.82357e-12</wgt>
  <wgt id="248">7.8968e-12</wgt>
  <wgt id="249">7.87029e-12</wgt>
  <wgt id="250">7.84413e-12</wgt>
  <wgt id="251">7.80651e-12</wgt>
  <wgt id="252">7.78832e-12</wgt>
  <wgt id="253">7.77527e-12</wgt>
  <wgt id="254">7.61512e-12</wgt>
  <wgt id="255">7.62223e-12</wgt>
  <wgt id="256">7.60743e-12</wgt>
  <wgt id="257">7.62103e-12</wgt>
  <wgt id="258">7.61079e-12</wgt>
  <wgt id="259">7.66587e-12</wgt>
  <wgt id="260">7.56603e-12</wgt>
  <wgt id="261">7.62583e-12</wgt>
  <wgt id="262">7.60246e-12</wgt>
  <wgt id="263">7.61104e-12</wgt>
  <wgt id="264">7.61991e-12</wgt>
  <wgt id="265">7.6063e-12</wgt>
  <wgt id="266">7.63269e-12</wgt>
  <wgt id="267">7.61764e-12</wgt>
  <wgt id="268">7.61164e-12</wgt>
  <wgt id="269">7.63867e-12</wgt>
  <wgt id="270">7.59913e-12</wgt>
  <wgt id="271">7.59923e-12</wgt>
  <wgt id="272">7.63275e-12</wgt>
  <wgt id="273">7.59323e-12</wgt>
  <wgt id="274">7.63177e-12</wgt>
  <wgt id="275">7.57868e-12</wgt>
  <wgt id="276">7.65282e-12</wgt>
  <wgt id="277">7.57142e-12</wgt>
  <wgt id="278">7.65526e-12</wgt>
  <wgt id="279">7.47327e-12</wgt>
  <wgt id="280">7.79336e-12</wgt>
  <wgt id="281">7.58174e-12</wgt>
  <wgt id="282">7.61913e-12</wgt>
  <wgt id="283">7.38992e-12</wgt>
  <wgt id="284">7.89351e-12</wgt>
  <wgt id="285">7.2413e-12</wgt>
  <wgt id="286">7.92641e-12</wgt>
  <wgt id="287">7.63989e-12</wgt>
  <wgt id="288">7.58338e-12</wgt>
  <wgt id="289">7.67062e-12</wgt>
  <wgt id="290">7.48836e-12</wgt>
  <wgt id="291">7.59136e-12</wgt>
  <wgt id="292">7.61873e-12</wgt>
  <wgt id="293">7.55449e-12</wgt>
  <wgt id="294">7.67538e-12</wgt>
  <wgt id="295">7.46693e-12</wgt>
  <wgt id="296">7.79621e-12</wgt>
  <wgt id="297">7.60909e-12</wgt>
  <wgt id="298">7.64625e-12</wgt>
  <wgt id="299">7.59065e-12</wgt>
  <wgt id="300">7.68007e-12</wgt>
  <wgt id="301">7.49761e-12</wgt>
  <wgt id="302">7.90313e-12</wgt>
  <wgt id="303">7.5503e-12</wgt>
  <wgt id="304">7.65204e-12</wgt>
  <wgt id="305">7.60819e-12</wgt>
  <wgt id="306">7.61551e-12</wgt>
  <wgt id="307">7.60011e-12</wgt>
  <wgt id="308">7.61468e-12</wgt>
  <wgt id="309">7.60375e-12</wgt>
  <wgt id="310">7.66052e-12</wgt>
  <wgt id="311">7.55957e-12</wgt>
  <wgt id="312">7.61686e-12</wgt>
  <wgt id="313">7.59885e-12</wgt>
  <wgt id="314">7.60394e-12</wgt>
  <wgt id="315">7.61203e-12</wgt>
  <wgt id="316">7.59954e-12</wgt>
  <wgt id="317">7.62675e-12</wgt>
  <wgt id="318">7.61351e-12</wgt>
  <wgt id="319">7.59859e-12</wgt>
  <wgt id="320">7.633e-12</wgt>
  <wgt id="321">7.5942e-12</wgt>
  <wgt id="322">7.58898e-12</wgt>
  <wgt id="323">7.63024e-12</wgt>
  <wgt id="324">7.59052e-12</wgt>
  <wgt id="325">7.62336e-12</wgt>
  <wgt id="326">7.5786e-12</wgt>
  <wgt id="327">7.64591e-12</wgt>
  <wgt id="328">7.56851e-12</wgt>
  <wgt id="329">7.63047e-12</wgt>
  <wgt id="330">7.82642e-12</wgt>
  <wgt id="331">7.39993e-12</wgt>
  <wgt id="332">7.58035e-12</wgt>
  <wgt id="333">7.61004e-12</wgt>
  <wgt id="334">7.43316e-12</wgt>
  <wgt id="335">7.82601e-12</wgt>
  <wgt id="336">7.33878e-12</wgt>
  <wgt id="337">7.93765e-12</wgt>
  <wgt id="338">7.69488e-12</wgt>
  <wgt id="339">7.52775e-12</wgt>
  <wgt id="340">7.65977e-12</wgt>
  <wgt id="341">7.47725e-12</wgt>
  <wgt id="342">7.59116e-12</wgt>
  <wgt id="343">7.59891e-12</wgt>
  <wgt id="344">7.55371e-12</wgt>
  <wgt id="345">7.67124e-12</wgt>
  <wgt id="346">7.45488e-12</wgt>
  <wgt id="347">7.78423e-12</wgt>
  <wgt id="348">7.60477e-12</wgt>
  <wgt id="349">7.63447e-12</wgt>
  <wgt id="350">7.5774e-12</wgt>
  <wgt id="351">7.68599e-12</wgt>
  <wgt id="352">7.483e-12</wgt>
  <wgt id="353">7.90128e-12</wgt>
  <wgt id="354">7.51197e-12</wgt>
  <wgt id="355">7.66636e-12</wgt>
  <wgt id="356">7.61512e-12</wgt>
  <wgt id="357">7.63079e-12</wgt>
  <wgt id="358">7.60819e-12</wgt>
  <wgt id="359">7.63261e-12</wgt>
  <wgt id="360">7.69247e-12</wgt>
  <wgt id="361">7.64423e-12</wgt>
  <wgt id="362">7.78142e-12</wgt>
  <wgt id="363">7.76283e-12</wgt>
  <wgt id="364">7.73262e-12</wgt>
  <wgt id="365">7.70595e-12</wgt>
  <wgt id="366">7.677e-12</wgt>
  <wgt id="367">7.6189e-12</wgt>
  <wgt id="368">7.5851e-12</wgt>
  <wgt id="369">7.54873e-12</wgt>
  <wgt id="370">7.64423e-12</wgt>
  <wgt id="371">7.6773e-12</wgt>
  <wgt id="372">7.65901e-12</wgt>
  <wgt id="373">7.63222e-12</wgt>
  <wgt id="374">7.63389e-12</wgt>
  <wgt id="375">8.34217e-12</wgt>
  <wgt id="376">8.343e-12</wgt>
  <wgt id="377">8.34113e-12</wgt>
  <wgt id="378">8.37278e-12</wgt>
  <wgt id="379">8.31197e-12</wgt>
  <wgt id="380">8.36532e-12</wgt>
  <wgt id="381">8.33309e-12</wgt>
  <wgt id="382">8.38318e-12</wgt>
  <wgt id="383">8.30173e-12</wgt>
  <wgt id="384">8.34752e-12</wgt>
  <wgt id="385">8.33685e-12</wgt>
  <wgt id="386">8.37279e-12</wgt>
  <wgt id="387">8.32919e-12</wgt>
  <wgt id="388">8.33466e-12</wgt>
  <wgt id="389">8.35155e-12</wgt>
  <wgt id="390">8.36332e-12</wgt>
  <wgt id="391">8.31986e-12</wgt>
  <wgt id="392">8.27588e-12</wgt>
  <wgt id="393">8.38005e-12</wgt>
  <wgt id="394">8.35164e-12</wgt>
  <wgt id="395">8.32926e-12</wgt>
  <wgt id="396">8.35074e-12</wgt>
  <wgt id="397">8.33617e-12</wgt>
  <wgt id="398">8.3159e-12</wgt>
  <wgt id="399">8.36776e-12</wgt>
  <wgt id="400">8.32945e-12</wgt>
  <wgt id="401">8.37112e-12</wgt>
  <wgt id="402">8.27288e-12</wgt>
  <wgt id="403">8.37733e-12</wgt>
  <wgt id="404">8.54826e-12</wgt>
  <wgt id="405">7.84759e-12</wgt>
  <wgt id="406">8.19384e-12</wgt>
  <wgt id="407">8.6674e-12</wgt>
  <wgt id="408">8.419e-12</wgt>
  <wgt id="409">8.19738e-12</wgt>
  <wgt id="410">8.09968e-12</wgt>
  <wgt id="411">8.45626e-12</wgt>
  <wgt id="412">8.32594e-12</wgt>
  <wgt id="413">8.36646e-12</wgt>
  <wgt id="414">8.24523e-12</wgt>
  <wgt id="415">8.4175e-12</wgt>
  <wgt id="416">8.58027e-12</wgt>
  <wgt id="417">8.01355e-12</wgt>
  <wgt id="418">8.35524e-12</wgt>
  <wgt id="419">8.27143e-12</wgt>
  <wgt id="420">8.48798e-12</wgt>
  <wgt id="421">8.25268e-12</wgt>
  <wgt id="422">8.31815e-12</wgt>
  <wgt id="423">8.35476e-12</wgt>
  <wgt id="424">8.53273e-12</wgt>
  <wgt id="425">8.21806e-12</wgt>
  <wgt id="426">8.34217e-12</wgt>
  <wgt id="427">8.23871e-12</wgt>
  <wgt id="428">8.60934e-12</wgt>
  <wgt id="429">8.42861e-12</wgt>
  <wgt id="430">8.67406e-12</wgt>
  <wgt id="431">8.62515e-12</wgt>
  <wgt id="432">8.5791e-12</wgt>
  <wgt id="433">8.53438e-12</wgt>
  <wgt id="434">8.479e-12</wgt>
  <wgt id="435">8.36585e-12</wgt>
  <wgt id="436">8.3081e-12</wgt>
  <wgt id="437">8.25264e-12</wgt>
  <wgt id="438">8.42861e-12</wgt>
  <wgt id="439">8.45555e-12</wgt>
  <wgt id="440">8.4393e-12</wgt>
  <wgt id="441">8.42066e-12</wgt>
  <wgt id="442">8.41419e-12</wgt>
  <wgt id="443">7.97315e-12</wgt>
  <wgt id="444">8.03209e-12</wgt>
  <wgt id="445">7.98847e-12</wgt>
  <wgt id="446">7.91765e-12</wgt>
  <wgt id="447">7.96219e-12</wgt>
  <wgt id="448">7.77116e-12</wgt>
  <wgt id="449">8.10886e-12</wgt>
  <wgt id="450">8.00071e-12</wgt>
  <wgt id="451">7.95605e-12</wgt>
  <wgt id="452">8.14878e-12</wgt>
  <wgt id="453">8.05073e-12</wgt>
  <wgt id="454">7.62134e-12</wgt>
  <wgt id="455">8.0057e-12</wgt>
  <wgt id="456">7.99605e-12</wgt>
  <wgt id="457">8.00145e-12</wgt>
  <wgt id="458">8.08615e-12</wgt>
  <wgt id="459">8.03679e-12</wgt>
  <wgt id="460">8.06424e-12</wgt>
  <wgt id="461">7.80973e-12</wgt>
  <wgt id="462">7.91529e-12</wgt>
  <wgt id="463">7.8688e-12</wgt>
  <wgt id="464">7.93301e-12</wgt>
  <wgt id="465">8.05729e-12</wgt>
  <wgt id="466">7.84895e-12</wgt>
  <wgt id="467">7.90192e-12</wgt>
  <wgt id="468">7.95625e-12</wgt>
  <wgt id="469">7.95523e-12</wgt>
  <wgt id="470">7.88132e-12</wgt>
  <wgt id="471">7.89401e-12</wgt>
  <wgt id="472">8.0141e-12</wgt>
  <wgt id="473">7.7257e-12</wgt>
  <wgt id="474">5.79e-12</wgt>
  <wgt id="475">5.92767e-12</wgt>
  <wgt id="476">5.70776e-12</wgt>
  <wgt id="477">5.70556e-12</wgt>
  <wgt id="478">5.83945e-12</wgt>
  <wgt id="479">5.6365e-12</wgt>
  <wgt id="480">6.03722e-12</wgt>
  <wgt id="481">5.76875e-12</wgt>
  <wgt id="482">5.70266e-12</wgt>
  <wgt id="483">5.67234e-12</wgt>
  <wgt id="484">6.00462e-12</wgt>
  <wgt id="485">5.59115e-12</wgt>
  <wgt id="486">6.04445e-12</wgt>
  <wgt id="487">5.77846e-12</wgt>
  <wgt id="488">5.89482e-12</wgt>
  <wgt id="489">5.44045e-12</wgt>
  <wgt id="490">5.57455e-12</wgt>
  <wgt id="491">5.75265e-12</wgt>
  <wgt id="492">5.68144e-12</wgt>
  <wgt id="493">5.51279e-12</wgt>
  <wgt id="494">5.55983e-12</wgt>
  <wgt id="495">5.81438e-12</wgt>
  <wgt id="496">5.58735e-12</wgt>
  <wgt id="497">5.51908e-12</wgt>
  <wgt id="498">5.94578e-12</wgt>
  <wgt id="499">5.73945e-12</wgt>
  <wgt id="500">5.66264e-12</wgt>
  <wgt id="501">6.02247e-12</wgt>
  <wgt id="502">5.7952e-12</wgt>
  <wgt id="503">5.77478e-12</wgt>
  <wgt id="504">5.91975e-12</wgt>
  <wgt id="505">5.80081e-12</wgt>
  <wgt id="506">5.67936e-12</wgt>
  <wgt id="507">5.78724e-12</wgt>
  <wgt id="508">6.0025e-12</wgt>
  <wgt id="509">5.44718e-12</wgt>
  <wgt id="510">5.90964e-12</wgt>
  <wgt id="511">5.58862e-12</wgt>
  <wgt id="512">6.0028e-12</wgt>
  <wgt id="513">5.99633e-12</wgt>
  <wgt id="514">5.89958e-12</wgt>
  <wgt id="515">5.79658e-12</wgt>
  <wgt id="516">6.1505e-12</wgt>
  <wgt id="517">5.9268e-12</wgt>
  <wgt id="518">5.95621e-12</wgt>
  <wgt id="519">5.60776e-12</wgt>
  <wgt id="520">5.90827e-12</wgt>
  <wgt id="521">5.87794e-12</wgt>
  <wgt id="522">6.04319e-12</wgt>
  <wgt id="523">5.69654e-12</wgt>
  <wgt id="524">5.77597e-12</wgt>
  <wgt id="525">5.90027e-12</wgt>
  <wgt id="526">5.91234e-12</wgt>
  <wgt id="527">5.80857e-12</wgt>
  <wgt id="528">5.8217e-12</wgt>
  <wgt id="529">5.68318e-12</wgt>
  <wgt id="530">5.96391e-12</wgt>
  <wgt id="531">5.66122e-12</wgt>
  <wgt id="532">6.18412e-12</wgt>
  <wgt id="533">5.58303e-12</wgt>
  <wgt id="534">5.7294e-12</wgt>
  <wgt id="535">5.79076e-12</wgt>
  <wgt id="536">5.81091e-12</wgt>
  <wgt id="537">5.71436e-12</wgt>
  <wgt id="538">5.82497e-12</wgt>
  <wgt id="539">5.68076e-12</wgt>
  <wgt id="540">5.86072e-12</wgt>
  <wgt id="541">5.66108e-12</wgt>
  <wgt id="542">5.72372e-12</wgt>
  <wgt id="543">5.73205e-12</wgt>
  <wgt id="544">5.99204e-12</wgt>
  <wgt id="545">5.63136e-12</wgt>
  <wgt id="546">5.55167e-12</wgt>
  <wgt id="547">5.64425e-12</wgt>
  <wgt id="548">5.55889e-12</wgt>
  <wgt id="549">5.69283e-12</wgt>
  <wgt id="550">5.67554e-12</wgt>
  <wgt id="551">5.86562e-12</wgt>
  <wgt id="552">5.52937e-12</wgt>
  <wgt id="553">5.66663e-12</wgt>
  <wgt id="554">6.17123e-12</wgt>
  <wgt id="555">5.94742e-12</wgt>
  <wgt id="556">5.57455e-12</wgt>
  <wgt id="557">5.94188e-12</wgt>
  <wgt id="558">5.67229e-12</wgt>
  <wgt id="559">5.67872e-12</wgt>
  <wgt id="560">6.36789e-12</wgt>
  <wgt id="561">5.76873e-12</wgt>
  <wgt id="562">5.96931e-12</wgt>
  <wgt id="563">5.95721e-12</wgt>
  <wgt id="564">5.97807e-12</wgt>
  <wgt id="565">5.71679e-12</wgt>
  <wgt id="566">5.8206e-12</wgt>
  <wgt id="567">5.75157e-12</wgt>
  <wgt id="568">5.72638e-12</wgt>
  <wgt id="569">5.86948e-12</wgt>
  <wgt id="570">5.55306e-12</wgt>
  <wgt id="571">6.40408e-12</wgt>
  <wgt id="572">5.67595e-12</wgt>
  <wgt id="573">5.59997e-12</wgt>
  <wgt id="574">5.62404e-12</wgt>
  <wgt id="575">6.38506e-12</wgt>
  <wgt id="576">6.58506e-12</wgt>
  <wgt id="577">6.59963e-12</wgt>
  <wgt id="578">6.5725e-12</wgt>
  <wgt id="579">6.57965e-12</wgt>
  <wgt id="580">6.65909e-12</wgt>
  <wgt id="581">6.92348e-12</wgt>
  <wgt id="582">6.5538e-12</wgt>
  <wgt id="583">6.4491e-12</wgt>
  <wgt id="584">6.34988e-12</wgt>
  <wgt id="585">6.17955e-12</wgt>
  <wgt id="586">6.13978e-12</wgt>
  <wgt id="587">6.49027e-12</wgt>
  <wgt id="588">6.5341e-12</wgt>
  <wgt id="589">6.68281e-12</wgt>
  <wgt id="590">6.38073e-12</wgt>
  <wgt id="591">6.60424e-12</wgt>
  <wgt id="592">5.99319e-12</wgt>
  <wgt id="593">6.29533e-12</wgt>
  <wgt id="594">6.46463e-12</wgt>
  <wgt id="595">6.48292e-12</wgt>
  <wgt id="596">6.82393e-12</wgt>
  <wgt id="597">6.32987e-12</wgt>
  <wgt id="598">6.18676e-12</wgt>
  <wgt id="599">6.67501e-12</wgt>
  <wgt id="600">6.47951e-12</wgt>
  <wgt id="601">6.179e-12</wgt>
  <wgt id="602">6.19612e-12</wgt>
  <wgt id="603">6.15992e-12</wgt>
  <wgt id="604">6.49826e-12</wgt>
  <wgt id="605">6.57936e-12</wgt>
  <wgt id="606">6.40892e-12</wgt>
  <wgt id="607">6.45162e-12</wgt>
  <wgt id="608">6.53854e-12</wgt>
  <wgt id="609">6.17327e-12</wgt>
  <wgt id="610">6.15673e-12</wgt>
  <wgt id="611">6.30116e-12</wgt>
  <wgt id="612">6.76965e-12</wgt>
  <wgt id="613">6.26229e-12</wgt>
  <wgt id="614">6.38501e-12</wgt>
  <wgt id="615">6.35054e-12</wgt>
  <wgt id="616">6.51565e-12</wgt>
  <wgt id="617">6.57414e-12</wgt>
  <wgt id="618">6.85473e-12</wgt>
  <wgt id="619">6.29263e-12</wgt>
  <wgt id="620">6.61431e-12</wgt>
  <wgt id="621">6.37149e-12</wgt>
  <wgt id="622">6.49027e-12</wgt>
  <wgt id="623">6.51386e-12</wgt>
  <wgt id="624">6.40567e-12</wgt>
  <wgt id="625">6.21614e-12</wgt>
  <wgt id="626">6.03892e-12</wgt>
  <wgt id="627">6.01307e-12</wgt>
  <wgt id="628">6.47897e-12</wgt>
  <wgt id="629">6.3314e-12</wgt>
  <wgt id="630">6.1878e-12</wgt>
  <wgt id="631">6.45668e-12</wgt>
  <wgt id="632">6.00962e-12</wgt>
  <wgt id="633">6.35119e-12</wgt>
  <wgt id="634">6.24635e-12</wgt>
  <wgt id="635">6.0429e-12</wgt>
  <wgt id="636">6.47007e-12</wgt>
  <wgt id="637">6.39328e-12</wgt>
  <wgt id="638">6.15408e-12</wgt>
  <wgt id="639">6.24444e-12</wgt>
  <wgt id="640">6.34699e-12</wgt>
  <wgt id="641">6.55717e-12</wgt>
  <wgt id="642">6.12544e-12</wgt>
  <wgt id="643">6.30943e-12</wgt>
  <wgt id="644">5.864e-12</wgt>
  <wgt id="645">6.40846e-12</wgt>
  <wgt id="646">6.22114e-12</wgt>
  <wgt id="647">6.34965e-12</wgt>
  <wgt id="648">6.53314e-12</wgt>
  <wgt id="649">6.43335e-12</wgt>
  <wgt id="650">6.17229e-12</wgt>
  <wgt id="651">6.64208e-12</wgt>
  <wgt id="652">6.25234e-12</wgt>
  <wgt id="653">6.18012e-12</wgt>
  <wgt id="654">6.30609e-12</wgt>
  <wgt id="655">6.26047e-12</wgt>
  <wgt id="656">6.3855e-12</wgt>
  <wgt id="657">6.82946e-12</wgt>
  <wgt id="658">6.41944e-12</wgt>
  <wgt id="659">6.12228e-12</wgt>
  <wgt id="660">6.39016e-12</wgt>
  <wgt id="661">6.27822e-12</wgt>
  <wgt id="662">6.32682e-12</wgt>
  <wgt id="663">6.43739e-12</wgt>
  <wgt id="664">6.36198e-12</wgt>
  <wgt id="665">6.37113e-12</wgt>
  <wgt id="666">6.29726e-12</wgt>
  <wgt id="667">6.65314e-12</wgt>
  <wgt id="668">6.36591e-12</wgt>
  <wgt id="669">6.48817e-12</wgt>
  <wgt id="670">6.60108e-12</wgt>
  <wgt id="671">6.3818e-12</wgt>
  <wgt id="672">6.13459e-12</wgt>
  <wgt id="673">6.55454e-12</wgt>
  <wgt id="674">6.22726e-12</wgt>
  <wgt id="675">6.27318e-12</wgt>
  <wgt id="676">8.14578e-12</wgt>
  <wgt id="677">8.24479e-12</wgt>
  <wgt id="678">8.67412e-12</wgt>
  <wgt id="679">7.86005e-12</wgt>
  <wgt id="680">8.08325e-12</wgt>
  <wgt id="681">8.16453e-12</wgt>
  <wgt id="682">8.4435e-12</wgt>
  <wgt id="683">7.86821e-12</wgt>
  <wgt id="684">8.50232e-12</wgt>
  <wgt id="685">7.93351e-12</wgt>
  <wgt id="686">7.9521e-12</wgt>
  <wgt id="687">8.46856e-12</wgt>
  <wgt id="688">7.98047e-12</wgt>
  <wgt id="689">8.58071e-12</wgt>
  <wgt id="690">8.43688e-12</wgt>
  <wgt id="691">8.4789e-12</wgt>
  <wgt id="692">8.03214e-12</wgt>
  <wgt id="693">9.96023e-12</wgt>
  <wgt id="694">8.7559e-12</wgt>
  <wgt id="695">7.82905e-12</wgt>
  <wgt id="696">7.84475e-12</wgt>
  <wgt id="697">7.69699e-12</wgt>
  <wgt id="698">7.18716e-12</wgt>
  <wgt id="699">7.17739e-12</wgt>
  <wgt id="700">7.16885e-12</wgt>
  <wgt id="701">8.14796e-12</wgt>
  <wgt id="702">7.98304e-12</wgt>
  <wgt id="703">9.56416e-12</wgt>
  <wgt id="704">9.03136e-12</wgt>
  <wgt id="705">8.8366e-12</wgt>
  <wgt id="706">7.69546e-12</wgt>
  <wgt id="707">7.75796e-12</wgt>
  <wgt id="708">7.9595e-12</wgt>
  <wgt id="709">7.95714e-12</wgt>
  <wgt id="710">7.33947e-12</wgt>
  <wgt id="711">8.21044e-12</wgt>
  <wgt id="712">7.83595e-12</wgt>
  <wgt id="713">8.76886e-12</wgt>
  <wgt id="714">7.73626e-12</wgt>
  <wgt id="715">7.96148e-12</wgt>
  <wgt id="716">7.86256e-12</wgt>
  <wgt id="717">7.50256e-12</wgt>
  <wgt id="718">8.25238e-12</wgt>
  <wgt id="719">7.40084e-12</wgt>
  <wgt id="720">7.94012e-12</wgt>
  <wgt id="721">7.23142e-12</wgt>
  <wgt id="722">6.95643e-12</wgt>
  <wgt id="723">8.83414e-12</wgt>
  <wgt id="724">8.63847e-12</wgt>
  <wgt id="725">8.53247e-12</wgt>
  <wgt id="726">8.15738e-12</wgt>
  <wgt id="727">8.04474e-12</wgt>
  <wgt id="728">7.90925e-12</wgt>
  <wgt id="729">7.80626e-12</wgt>
  <wgt id="730">8.81693e-12</wgt>
  <wgt id="731">8.00349e-12</wgt>
  <wgt id="732">9.14109e-12</wgt>
  <wgt id="733">7.87192e-12</wgt>
  <wgt id="734">8.35436e-12</wgt>
  <wgt id="735">8.21991e-12</wgt>
  <wgt id="736">7.81419e-12</wgt>
  <wgt id="737">8.10207e-12</wgt>
  <wgt id="738">7.78356e-12</wgt>
  <wgt id="739">8.53907e-12</wgt>
  <wgt id="740">9.22158e-12</wgt>
  <wgt id="741">7.66556e-12</wgt>
  <wgt id="742">8.03631e-12</wgt>
  <wgt id="743">7.62721e-12</wgt>
  <wgt id="744">7.98206e-12</wgt>
  <wgt id="745">8.61786e-12</wgt>
  <wgt id="746">8.81118e-12</wgt>
  <wgt id="747">7.12657e-12</wgt>
  <wgt id="748">7.99872e-12</wgt>
  <wgt id="749">8.48174e-12</wgt>
  <wgt id="750">8.6104e-12</wgt>
  <wgt id="751">8.27509e-12</wgt>
  <wgt id="752">7.43482e-12</wgt>
  <wgt id="753">7.5545e-12</wgt>
  <wgt id="754">8.47747e-12</wgt>
  <wgt id="755">8.09086e-12</wgt>
  <wgt id="756">8.05894e-12</wgt>
  <wgt id="757">7.35008e-12</wgt>
  <wgt id="758">8.06666e-12</wgt>
  <wgt id="759">8.73901e-12</wgt>
  <wgt id="760">8.06498e-12</wgt>
  <wgt id="761">8.71603e-12</wgt>
  <wgt id="762">8.75491e-12</wgt>
  <wgt id="763">8.15224e-12</wgt>
  <wgt id="764">8.53151e-12</wgt>
  <wgt id="765">8.23496e-12</wgt>
  <wgt id="766">8.16761e-12</wgt>
  <wgt id="767">8.30897e-12</wgt>
  <wgt id="768">7.58331e-12</wgt>
  <wgt id="769">8.62495e-12</wgt>
  <wgt id="770">7.92471e-12</wgt>
  <wgt id="771">9.71023e-12</wgt>
  <wgt id="772">7.81475e-12</wgt>
  <wgt id="773">8.09225e-12</wgt>
  <wgt id="774">6.87311e-12</wgt>
  <wgt id="775">8.52742e-12</wgt>
  <wgt id="776">8.93743e-12</wgt>
  <wgt id="777">7.5562e-12</wgt>
  <wgt id="778">5.78376e-12</wgt>
  <wgt id="779">4.32477e-12</wgt>
  <wgt id="780">3.19757e-12</wgt>
  <wgt id="781">6.55567e-12</wgt>
  <wgt id="782">6.499e-12</wgt>
  <wgt id="783">4.26317e-12</wgt>
  <wgt id="784">4.71163e-12</wgt>
  <wgt id="785">7.70724e-12</wgt>
  <wgt id="786">4.11397e-12</wgt>
  <wgt id="787">6.8879e-12</wgt>
  <wgt id="788">2.77342e-12</wgt>
  <wgt id="789">4.60798e-12</wgt>
  <wgt id="790">4.02877e-12</wgt>
  <wgt id="791">5.96085e-12</wgt>
  <wgt id="792">7.72231e-12</wgt>
  <wgt id="793">5.67787e-12</wgt>
  <wgt id="794">3.89561e-12</wgt>
  <wgt id="795">7.2005e-12</wgt>
  <wgt id="796">7.7479e-12</wgt>
  <wgt id="797">7.1302e-12</wgt>
  <wgt id="798">4.9524e-12</wgt>
  <wgt id="799">6.78711e-12</wgt>
  <wgt id="800">4.71887e-12</wgt>
  <wgt id="801">5.34176e-12</wgt>
  <wgt id="802">3.84792e-12</wgt>
  <wgt id="803">8.54146e-12</wgt>
  <wgt id="804">7.16927e-12</wgt>
  <wgt id="805">7.14565e-12</wgt>
  <wgt id="806">6.3116e-12</wgt>
  <wgt id="807">5.53581e-12</wgt>
  <wgt id="808">5.53208e-12</wgt>
  <wgt id="809">5.32462e-12</wgt>
  <wgt id="810">6.42041e-12</wgt>
  <wgt id="811">6.19556e-12</wgt>
  <wgt id="812">4.02481e-12</wgt>
  <wgt id="813">4.22394e-12</wgt>
  <wgt id="814">4.54338e-12</wgt>
  <wgt id="815">4.26778e-12</wgt>
  <wgt id="816">4.07312e-12</wgt>
  <wgt id="817">5.91792e-12</wgt>
  <wgt id="818">6.45951e-12</wgt>
  <wgt id="819">4.31909e-12</wgt>
  <wgt id="820">5.65533e-12</wgt>
  <wgt id="821">6.75853e-12</wgt>
  <wgt id="822">4.65452e-12</wgt>
  <wgt id="823">6.93889e-12</wgt>
  <wgt id="824">8.28794e-12</wgt>
  <wgt id="825">3.74762e-12</wgt>
  <wgt id="826">6.5266e-12</wgt>
  <wgt id="827">3.15006e-12</wgt>
  <wgt id="828">7.40175e-12</wgt>
  <wgt id="829">5.97795e-12</wgt>
  <wgt id="830">3.5443e-12</wgt>
  <wgt id="831">6.43795e-12</wgt>
  <wgt id="832">9.7949e-12</wgt>
  <wgt id="833">5.05272e-12</wgt>
  <wgt id="834">9.38316e-12</wgt>
  <wgt id="835">4.51656e-12</wgt>
  <wgt id="836">5.30483e-12</wgt>
  <wgt id="837">6.64446e-12</wgt>
  <wgt id="838">5.14292e-12</wgt>
  <wgt id="839">6.38947e-12</wgt>
  <wgt id="840">5.1816e-12</wgt>
  <wgt id="841">7.55139e-12</wgt>
  <wgt id="842">5.40151e-12</wgt>
  <wgt id="843">5.97163e-12</wgt>
  <wgt id="844">6.17071e-12</wgt>
  <wgt id="845">9.05395e-12</wgt>
  <wgt id="846">5.97423e-12</wgt>
  <wgt id="847">5.98608e-12</wgt>
  <wgt id="848">4.43058e-12</wgt>
  <wgt id="849">6.04885e-12</wgt>
  <wgt id="850">8.03954e-12</wgt>
  <wgt id="851">6.52784e-12</wgt>
  <wgt id="852">4.15804e-12</wgt>
  <wgt id="853">6.6695e-12</wgt>
  <wgt id="854">7.4296e-12</wgt>
  <wgt id="855">6.85438e-12</wgt>
  <wgt id="856">3.57856e-12</wgt>
  <wgt id="857">5.4884e-12</wgt>
  <wgt id="858">5.43436e-12</wgt>
  <wgt id="859">5.47781e-12</wgt>
  <wgt id="860">6.75187e-12</wgt>
  <wgt id="861">4.98498e-12</wgt>
  <wgt id="862">5.86254e-12</wgt>
  <wgt id="863">6.35368e-12</wgt>
  <wgt id="864">6.07892e-12</wgt>
  <wgt id="865">8.67362e-12</wgt>
  <wgt id="866">9.58067e-12</wgt>
  <wgt id="867">5.89968e-12</wgt>
  <wgt id="868">5.78779e-12</wgt>
  <wgt id="869">4.04241e-12</wgt>
  <wgt id="870">4.39416e-12</wgt>
  <wgt id="871">4.27409e-12</wgt>
  <wgt id="872">7.43584e-12</wgt>
  <wgt id="873">4.77252e-12</wgt>
  <wgt id="874">6.22378e-12</wgt>
  <wgt id="875">4.83261e-12</wgt>
  <wgt id="876">7.29351e-12</wgt>
  <wgt id="877">6.5994e-12</wgt>
  <wgt id="878">4.71881e-12</wgt>
  <wgt id="879">8.14578e-12</wgt>
  <wgt id="880">8.24479e-12</wgt>
  <wgt id="881">8.67412e-12</wgt>
  <wgt id="882">7.86005e-12</wgt>
  <wgt id="883">8.08325e-12</wgt>
  <wgt id="884">8.16453e-12</wgt>
  <wgt id="885">8.4435e-12</wgt>
  <wgt id="886">7.86821e-12</wgt>
  <wgt id="887">8.50232e-12</wgt>
  <wgt id="888">7.93351e-12</wgt>
  <wgt id="889">7.9521e-12</wgt>
  <wgt id="890">8.46856e-12</wgt>
  <wgt id="891">7.98047e-12</wgt>
  <wgt id="892">8.58071e-12</wgt>
  <wgt id="893">8.43688e-12</wgt>
  <wgt id="894">8.4789e-12</wgt>
  <wgt id="895">8.03214e-12</wgt>
  <wgt id="896">9.96023e-12</wgt>
  <wgt id="897">8.7559e-12</wgt>
  <wgt id="898">7.82905e-12</wgt>
  <wgt id="899">7.84475e-12</wgt>
  <wgt id="900">7.69699e-12</wgt>
  <wgt id="901">7.18716e-12</wgt>
  <wgt id="902">7.17739e-12</wgt>
  <wgt id="903">7.16885e-12</wgt>
  <wgt id="904">8.14796e-12</wgt>
  <wgt id="905">7.98304e-12</wgt>
  <wgt id="906">9.56416e-12</wgt>
  <wgt id="907">9.03136e-12</wgt>
  <wgt id="908">8.8366e-12</wgt>
  <wgt id="909">7.69546e-12</wgt>
  <wgt id="910">7.75796e-12</wgt>
  <wgt id="911">7.9595e-12</wgt>
  <wgt id="912">7.95714e-12</wgt>
  <wgt id="913">7.33947e-12</wgt>
  <wgt id="914">8.21044e-12</wgt>
  <wgt id="915">7.83595e-12</wgt>
  <wgt id="916">8.76886e-12</wgt>
  <wgt id="917">7.73626e-12</wgt>
  <wgt id="918">7.96148e-12</wgt>
  <wgt id="919">7.86256e-12</wgt>
  <wgt id="920">7.50256e-12</wgt>
  <wgt id="921">8.25238e-12</wgt>
  <wgt id="922">7.40084e-12</wgt>
  <wgt id="923">7.94012e-12</wgt>
  <wgt id="924">7.23142e-12</wgt>
  <wgt id="925">6.95643e-12</wgt>
  <wgt id="926">8.83414e-12</wgt>
  <wgt id="927">8.63847e-12</wgt>
  <wgt id="928">8.53247e-12</wgt>
  <wgt id="929">8.15738e-12</wgt>
  <wgt id="930">8.04474e-12</wgt>
  <wgt id="931">7.90925e-12</wgt>
  <wgt id="932">7.80626e-12</wgt>
  <wgt id="933">8.81693e-12</wgt>
  <wgt id="934">8.00349e-12</wgt>
  <wgt id="935">9.14109e-12</wgt>
  <wgt id="936">7.87192e-12</wgt>
  <wgt id="937">8.35436e-12</wgt>
  <wgt id="938">8.21991e-12</wgt>
  <wgt id="939">7.81419e-12</wgt>
  <wgt id="940">8.10207e-12</wgt>
  <wgt id="941">7.78356e-12</wgt>
  <wgt id="942">8.53907e-12</wgt>
  <wgt id="943">9.22158e-12</wgt>
  <wgt id="944">7.66556e-12</wgt>
  <wgt id="945">8.03631e-12</wgt>
  <wgt id="946">7.62721e-12</wgt>
  <wgt id="947">7.98206e-12</wgt>
  <wgt id="948">8.61786e-12</wgt>
  <wgt id="949">8.81118e-12</wgt>
  <wgt id="950">7.12657e-12</wgt>
  <wgt id="951">7.99872e-12</wgt>
  <wgt id="952">8.48174e-12</wgt>
  <wgt id="953">8.6104e-12</wgt>
  <wgt id="954">8.27509e-12</wgt>
  <wgt id="955">7.43482e-12</wgt>
  <wgt id="956">7.5545e-12</wgt>
  <wgt id="957">8.47747e-12</wgt>
  <wgt id="958">8.09086e-12</wgt>
  <wgt id="959">8.05894e-12</wgt>
  <wgt id="960">7.35008e-12</wgt>
  <wgt id="961">8.06666e-12</wgt>
  <wgt id="962">8.73901e-12</wgt>
  <wgt id="963">8.06498e-12</wgt>
  <wgt id="964">8.71603e-12</wgt>
  <wgt id="965">8.75491e-12</wgt>
  <wgt id="966">8.15224e-12</wgt>
  <wgt id="967">8.53151e-12</wgt>
  <wgt id="968">8.23496e-12</wgt>
  <wgt id="969">8.16761e-12</wgt>
  <wgt id="970">8.30897e-12</wgt>
  <wgt id="971">7.58331e-12</wgt>
  <wgt id="972">8.62495e-12</wgt>
  <wgt id="973">7.92471e-12</wgt>
  <wgt id="974">9.71023e-12</wgt>
  <wgt id="975">7.81475e-12</wgt>
  <wgt id="976">8.09225e-12</wgt>
  <wgt id="977">6.87311e-12</wgt>
  <wgt id="978">8.52742e-12</wgt>
  <wgt id="979">8.93743e-12</wgt>
  <wgt id="980">8.11597e-12</wgt>
  <wgt id="981">8.22849e-12</wgt>
  <wgt id="982">7.89186e-12</wgt>
</rwgt>
</event>
<event>
 5   1  0.5790000E-11  0.2167967E+04  0.7818608E-02  0.7761043E-01
       21   -1    0    0  502  501  0.00000000000E+00  0.00000000000E+00  0.29523400109E+04  0.29523400109E+04  0.00000000000E+00 0. -1.
       21   -1    0    0  501  502 -0.00000000000E+00 -0.00000000000E+00 -0.39799637425E+03  0.39799637425E+03  0.00000000000E+00 0.  1.
       39    2    1    2    0    0  0.00000000000E+00  0.00000000000E+00  0.25543436367E+04  0.33503363852E+04  0.21679673613E+04 0.  0.
       25    1    3    3    0    0 -0.99306411645E+03 -0.23370509981E+03  0.18093783845E+04  0.20809299727E+04  0.12500000000E+03 0.  0.
       25    1    3    3    0    0  0.99306411645E+03  0.23370509981E+03  0.74496525220E+03  0.12694064125E+04  0.12500000000E+03 0.  0.
<mgrwt>
<rscale>  0 0.21679674E+04</rscale>
<asrwt>0</asrwt>
<pdfrwt beam="1">  1       21 0.45420614E+00 0.21679674E+04</pdfrwt>
<pdfrwt beam="2">  1       21 0.61230213E-01 0.21679674E+04</pdfrwt>
<totfact> 0.34432794E+00</totfact>
</mgrwt>
<rwgt>
  <wgt id="1">5.79e-12</wgt>
  <wgt id="2">4.90966e-12</wgt>
  <wgt id="3">6.9222e-12</wgt>
  <wgt id="4">5.79e-12</wgt>
  <wgt id="5">4.90966e-12</wgt>
  <wgt id="6">6.9222e-12</wgt>
  <wgt id="7">5.79e-12</wgt>
  <wgt id="8">4.90966e-12</wgt>
  <wgt id="9">6.9222e-12</wgt>
  <wgt id="10">6.24821e-12</wgt>
  <wgt id="11">6.26025e-12</wgt>
  <wgt id="12">6.22593e-12</wgt>
  <wgt id="13">6.25315e-12</wgt>
  <wgt id="14">6.22695e-12</wgt>
  <wgt id="15">6.2413e-12</wgt>
  <wgt id="16">6.21181e-12</wgt>
  <wgt id="17">6.30886e-12</wgt>
  <wgt id="18">6.24501e-12</wgt>
  <wgt id="19">6.28224e-12</wgt>
  <wgt id="20">6.27183e-12</wgt>
  <wgt id="21">6.14618e-12</wgt>
  <wgt id="22">6.18243e-12</wgt>
  <wgt id="23">6.13358e-12</wgt>
  <wgt id="24">6.2053e-12</wgt>
  <wgt id="25">6.25314e-12</wgt>
  <wgt id="26">6.26352e-12</wgt>
  <wgt id="27">6.24459e-12</wgt>
  <wgt id="28">6.21276e-12</wgt>
  <wgt id="29">6.24807e-12</wgt>
  <wgt id="30">6.19525e-12</wgt>
  <wgt id="31">6.26859e-12</wgt>
  <wgt id="32">6.16863e-12</wgt>
  <wgt id="33">6.25328e-12</wgt>
  <wgt id="34">6.18392e-12</wgt>
  <wgt id="35">6.1687e-12</wgt>
  <wgt id="36">6.28377e-12</wgt>
  <wgt id="37">6.22677e-12</wgt>
  <wgt id="38">6.20253e-12</wgt>
  <wgt id="39">6.40529e-12</wgt>
  <wgt id="40">6.28834e-12</wgt>
  <wgt id="41">6.23028e-12</wgt>
  <wgt id="42">6.23127e-12</wgt>
  <wgt id="43">6.25482e-12</wgt>
  <wgt id="44">6.30195e-12</wgt>
  <wgt id="45">6.27824e-12</wgt>
  <wgt id="46">6.18598e-12</wgt>
  <wgt id="47">6.40055e-12</wgt>
  <wgt id="48">6.35386e-12</wgt>
  <wgt id="49">6.24096e-12</wgt>
  <wgt id="50">6.15621e-12</wgt>
  <wgt id="51">6.18958e-12</wgt>
  <wgt id="52">6.25503e-12</wgt>
  <wgt id="53">6.4744e-12</wgt>
  <wgt id="54">6.31603e-12</wgt>
  <wgt id="55">6.20893e-12</wgt>
  <wgt id="56">6.05014e-12</wgt>
  <wgt id="57">6.10226e-12</wgt>
  <wgt id="58">6.2445e-12</wgt>
  <wgt id="59">6.30625e-12</wgt>
  <wgt id="60">6.10312e-12</wgt>
  <wgt id="61">6.31392e-12</wgt>
  <wgt id="62">6.35033e-12</wgt>
  <wgt id="63">6.21546e-12</wgt>
  <wgt id="64">6.24016e-12</wgt>
  <wgt id="65">6.20371e-12</wgt>
  <wgt id="66">6.36564e-12</wgt>
  <wgt id="67">6.41222e-12</wgt>
  <wgt id="68">6.2533e-12</wgt>
  <wgt id="69">6.25396e-12</wgt>
  <wgt id="70">6.13365e-12</wgt>
  <wgt id="71">6.35824e-12</wgt>
  <wgt id="72">6.39354e-12</wgt>
  <wgt id="73">6.1257e-12</wgt>
  <wgt id="74">6.31848e-12</wgt>
  <wgt id="75">6.04435e-12</wgt>
  <wgt id="76">6.2763e-12</wgt>
  <wgt id="77">6.20746e-12</wgt>
  <wgt id="78">6.22985e-12</wgt>
  <wgt id="79">6.24281e-12</wgt>
  <wgt id="80">6.24752e-12</wgt>
  <wgt id="81">6.23964e-12</wgt>
  <wgt id="82">6.23353e-12</wgt>
  <wgt id="83">6.19314e-12</wgt>
  <wgt id="84">6.17404e-12</wgt>
  <wgt id="85">6.16089e-12</wgt>
  <wgt id="86">6.36018e-12</wgt>
  <wgt id="87">6.11902e-12</wgt>
  <wgt id="88">6.26614e-12</wgt>
  <wgt id="89">6.26947e-12</wgt>
  <wgt id="90">6.34172e-12</wgt>
  <wgt id="91">6.23995e-12</wgt>
  <wgt id="92">6.28119e-12</wgt>
  <wgt id="93">6.28476e-12</wgt>
  <wgt id="94">6.18167e-12</wgt>
  <wgt id="95">6.37246e-12</wgt>
  <wgt id="96">6.34481e-12</wgt>
  <wgt id="97">6.14201e-12</wgt>
  <wgt id="98">6.2445e-12</wgt>
  <wgt id="99">6.19539e-12</wgt>
  <wgt id="100">6.29705e-12</wgt>
  <wgt id="101">6.19954e-12</wgt>
  <wgt id="102">6.23243e-12</wgt>
  <wgt id="103">6.33869e-12</wgt>
  <wgt id="104">6.22787e-12</wgt>
  <wgt id="105">6.32705e-12</wgt>
  <wgt id="106">6.17664e-12</wgt>
  <wgt id="107">6.38885e-12</wgt>
  <wgt id="108">6.2121e-12</wgt>
  <wgt id="109">6.25442e-12</wgt>
  <wgt id="110">6.23681e-12</wgt>
  <wgt id="111">6.10763e-12</wgt>
  <wgt id="112">6.41699e-12</wgt>
  <wgt id="113">1.04295e-11</wgt>
  <wgt id="114">7.68906e-12</wgt>
  <wgt id="115">7.5398e-12</wgt>
  <wgt id="116">1.01359e-11</wgt>
  <wgt id="117">6.90392e-12</wgt>
  <wgt id="118">6.93074e-12</wgt>
  <wgt id="119">6.88847e-12</wgt>
  <wgt id="120">6.90351e-12</wgt>
  <wgt id="121">6.90393e-12</wgt>
  <wgt id="122">6.89472e-12</wgt>
  <wgt id="123">6.91659e-12</wgt>
  <wgt id="124">6.89557e-12</wgt>
  <wgt id="125">6.90897e-12</wgt>
  <wgt id="126">6.90856e-12</wgt>
  <wgt id="127">6.9009e-12</wgt>
  <wgt id="128">6.92386e-12</wgt>
  <wgt id="129">6.88409e-12</wgt>
  <wgt id="130">6.92536e-12</wgt>
  <wgt id="131">6.88073e-12</wgt>
  <wgt id="132">6.6911e-12</wgt>
  <wgt id="133">7.15976e-12</wgt>
  <wgt id="134">6.83405e-12</wgt>
  <wgt id="135">6.95893e-12</wgt>
  <wgt id="136">7.04425e-12</wgt>
  <wgt id="137">6.73656e-12</wgt>
  <wgt id="138">7.31129e-12</wgt>
  <wgt id="139">6.52961e-12</wgt>
  <wgt id="140">6.89691e-12</wgt>
  <wgt id="141">6.90652e-12</wgt>
  <wgt id="142">6.89896e-12</wgt>
  <wgt id="143">6.93999e-12</wgt>
  <wgt id="144">6.45001e-12</wgt>
  <wgt id="145">7.3788e-12</wgt>
  <wgt id="146">7.06554e-12</wgt>
  <wgt id="147">6.76803e-12</wgt>
  <wgt id="148">6.93086e-12</wgt>
  <wgt id="149">6.90206e-12</wgt>
  <wgt id="150">6.95761e-12</wgt>
  <wgt id="151">6.87849e-12</wgt>
  <wgt id="152">6.90182e-12</wgt>
  <wgt id="153">6.90457e-12</wgt>
  <wgt id="154">6.84009e-12</wgt>
  <wgt id="155">6.94242e-12</wgt>
  <wgt id="156">7.33827e-12</wgt>
  <wgt id="157">6.55716e-12</wgt>
  <wgt id="158">8.15187e-12</wgt>
  <wgt id="159">8.18776e-12</wgt>
  <wgt id="160">8.12277e-12</wgt>
  <wgt id="161">8.1308e-12</wgt>
  <wgt id="162">8.17471e-12</wgt>
  <wgt id="163">8.14265e-12</wgt>
  <wgt id="164">8.16564e-12</wgt>
  <wgt id="165">8.15458e-12</wgt>
  <wgt id="166">8.14985e-12</wgt>
  <wgt id="167">8.14638e-12</wgt>
  <wgt id="168">8.1589e-12</wgt>
  <wgt id="169">8.1202e-12</wgt>
  <wgt id="170">8.17131e-12</wgt>
  <wgt id="171">8.15163e-12</wgt>
  <wgt id="172">8.15239e-12</wgt>
  <wgt id="173">8.11117e-12</wgt>
  <wgt id="174">8.16632e-12</wgt>
  <wgt id="175">7.8999e-12</wgt>
  <wgt id="176">8.48357e-12</wgt>
  <wgt id="177">8.17145e-12</wgt>
  <wgt id="178">8.13501e-12</wgt>
  <wgt id="179">8.71436e-12</wgt>
  <wgt id="180">7.32256e-12</wgt>
  <wgt id="181">7.81433e-12</wgt>
  <wgt id="182">8.38131e-12</wgt>
  <wgt id="183">7.94709e-12</wgt>
  <wgt id="184">8.2536e-12</wgt>
  <wgt id="185">8.02599e-12</wgt>
  <wgt id="186">8.30364e-12</wgt>
  <wgt id="187">8.01894e-12</wgt>
  <wgt id="188">8.38037e-12</wgt>
  <wgt id="189">8.06838e-12</wgt>
  <wgt id="190">8.18583e-12</wgt>
  <wgt id="191">8.19467e-12</wgt>
  <wgt id="192">8.12603e-12</wgt>
  <wgt id="193">8.32449e-12</wgt>
  <wgt id="194">8.06324e-12</wgt>
  <wgt id="195">7.67512e-12</wgt>
  <wgt id="196">8.89349e-12</wgt>
  <wgt id="197">8.19639e-12</wgt>
  <wgt id="198">8.14094e-12</wgt>
  <wgt id="199">8.15187e-12</wgt>
  <wgt id="200">8.24606e-12</wgt>
  <wgt id="201">8.21827e-12</wgt>
  <wgt id="202">8.18863e-12</wgt>
  <wgt id="203">8.15289e-12</wgt>
  <wgt id="204">8.13149e-12</wgt>
  <wgt id="205">8.11503e-12</wgt>
  <wgt id="206">8.11305e-12</wgt>
  <wgt id="207">8.16363e-12</wgt>
  <wgt id="208">8.06296e-12</wgt>
  <wgt id="209">8.13449e-12</wgt>
  <wgt id="210">8.09727e-12</wgt>
  <wgt id="211">8.11061e-12</wgt>
  <wgt id="212">8.11494e-12</wgt>
  <wgt id="213">8.1122e-12</wgt>
  <wgt id="214">8.11354e-12</wgt>
  <wgt id="215">8.11869e-12</wgt>
  <wgt id="216">8.10903e-12</wgt>
  <wgt id="217">8.12285e-12</wgt>
  <wgt id="218">8.10537e-12</wgt>
  <wgt id="219">8.09865e-12</wgt>
  <wgt id="220">8.12193e-12</wgt>
  <wgt id="221">8.12713e-12</wgt>
  <wgt id="222">8.0749e-12</wgt>
  <wgt id="223">7.57278e-12</wgt>
  <wgt id="224">8.61274e-12</wgt>
  <wgt id="225">8.00983e-12</wgt>
  <wgt id="226">8.24588e-12</wgt>
  <wgt id="227">8.03229e-12</wgt>
  <wgt id="228">8.14848e-12</wgt>
  <wgt id="229">7.98467e-12</wgt>
  <wgt id="230">8.17658e-12</wgt>
  <wgt id="231">8.48179e-12</wgt>
  <wgt id="232">7.81571e-12</wgt>
  <wgt id="233">8.03131e-12</wgt>
  <wgt id="234">8.25282e-12</wgt>
  <wgt id="235">7.44076e-12</wgt>
  <wgt id="236">8.65233e-12</wgt>
  <wgt id="237">7.75028e-12</wgt>
  <wgt id="238">8.23408e-12</wgt>
  <wgt id="239">7.97182e-12</wgt>
  <wgt id="240">8.36693e-12</wgt>
  <wgt id="241">7.97907e-12</wgt>
  <wgt id="242">8.2658e-12</wgt>
  <wgt id="243">8.34788e-12</wgt>
  <wgt id="244">8.03943e-12</wgt>
  <wgt id="245">8.11573e-12</wgt>
  <wgt id="246">8.12703e-12</wgt>
  <wgt id="247">8.11305e-12</wgt>
  <wgt id="248">8.22779e-12</wgt>
  <wgt id="249">8.19229e-12</wgt>
  <wgt id="250">8.14586e-12</wgt>
  <wgt id="251">8.09709e-12</wgt>
  <wgt id="252">8.0656e-12</wgt>
  <wgt id="253">8.04647e-12</wgt>
  <wgt id="254">7.62371e-12</wgt>
  <wgt id="255">7.62972e-12</wgt>
  <wgt id="256">7.61751e-12</wgt>
  <wgt id="257">7.62994e-12</wgt>
  <wgt id="258">7.61922e-12</wgt>
  <wgt id="259">7.67499e-12</wgt>
  <wgt id="260">7.57407e-12</wgt>
  <wgt id="261">7.63593e-12</wgt>
  <wgt id="262">7.60891e-12</wgt>
  <wgt id="263">7.61555e-12</wgt>
  <wgt id="264">7.6336e-12</wgt>
  <wgt id="265">7.61466e-12</wgt>
  <wgt id="266">7.64154e-12</wgt>
  <wgt id="267">7.62599e-12</wgt>
  <wgt id="268">7.62083e-12</wgt>
  <wgt id="269">7.64333e-12</wgt>
  <wgt id="270">7.61043e-12</wgt>
  <wgt id="271">7.58665e-12</wgt>
  <wgt id="272">7.66508e-12</wgt>
  <wgt id="273">7.60885e-12</wgt>
  <wgt id="274">7.63482e-12</wgt>
  <wgt id="275">7.55012e-12</wgt>
  <wgt id="276">7.70021e-12</wgt>
  <wgt id="277">7.58715e-12</wgt>
  <wgt id="278">7.65699e-12</wgt>
  <wgt id="279">7.48449e-12</wgt>
  <wgt id="280">7.80043e-12</wgt>
  <wgt id="281">7.5662e-12</wgt>
  <wgt id="282">7.67568e-12</wgt>
  <wgt id="283">7.30529e-12</wgt>
  <wgt id="284">8.03284e-12</wgt>
  <wgt id="285">7.09943e-12</wgt>
  <wgt id="286">8.08504e-12</wgt>
  <wgt id="287">7.65651e-12</wgt>
  <wgt id="288">7.58209e-12</wgt>
  <wgt id="289">7.70123e-12</wgt>
  <wgt id="290">7.46283e-12</wgt>
  <wgt id="291">7.58761e-12</wgt>
  <wgt id="292">7.60416e-12</wgt>
  <wgt id="293">7.53834e-12</wgt>
  <wgt id="294">7.70887e-12</wgt>
  <wgt id="295">7.41484e-12</wgt>
  <wgt id="296">7.87965e-12</wgt>
  <wgt id="297">7.56207e-12</wgt>
  <wgt id="298">7.68318e-12</wgt>
  <wgt id="299">7.594e-12</wgt>
  <wgt id="300">7.70272e-12</wgt>
  <wgt id="301">7.35351e-12</wgt>
  <wgt id="302">8.20373e-12</wgt>
  <wgt id="303">7.47789e-12</wgt>
  <wgt id="304">7.70368e-12</wgt>
  <wgt id="305">7.36429e-12</wgt>
  <wgt id="306">7.36987e-12</wgt>
  <wgt id="307">7.35835e-12</wgt>
  <wgt id="308">7.37076e-12</wgt>
  <wgt id="309">7.35998e-12</wgt>
  <wgt id="310">7.41445e-12</wgt>
  <wgt id="311">7.31781e-12</wgt>
  <wgt id="312">7.37813e-12</wgt>
  <wgt id="313">7.34963e-12</wgt>
  <wgt id="314">7.35485e-12</wgt>
  <wgt id="315">7.37377e-12</wgt>
  <wgt id="316">7.35448e-12</wgt>
  <wgt id="317">7.38568e-12</wgt>
  <wgt id="318">7.36942e-12</wgt>
  <wgt id="319">7.35566e-12</wgt>
  <wgt id="320">7.38661e-12</wgt>
  <wgt id="321">7.35237e-12</wgt>
  <wgt id="322">7.3296e-12</wgt>
  <wgt id="323">7.40547e-12</wgt>
  <wgt id="324">7.35893e-12</wgt>
  <wgt id="325">7.36946e-12</wgt>
  <wgt id="326">7.30262e-12</wgt>
  <wgt id="327">7.4442e-12</wgt>
  <wgt id="328">7.33871e-12</wgt>
  <wgt id="329">7.37756e-12</wgt>
  <wgt id="330">7.56622e-12</wgt>
  <wgt id="331">7.17375e-12</wgt>
  <wgt id="332">7.31529e-12</wgt>
  <wgt id="333">7.40251e-12</wgt>
  <wgt id="334">7.13793e-12</wgt>
  <wgt id="335">7.65502e-12</wgt>
  <wgt id="336">7.01284e-12</wgt>
  <wgt id="337">7.81547e-12</wgt>
  <wgt id="338">7.47401e-12</wgt>
  <wgt id="339">7.2656e-12</wgt>
  <wgt id="340">7.42775e-12</wgt>
  <wgt id="341">7.2176e-12</wgt>
  <wgt id="342">7.34419e-12</wgt>
  <wgt id="343">7.32243e-12</wgt>
  <wgt id="344">7.29512e-12</wgt>
  <wgt id="345">7.44514e-12</wgt>
  <wgt id="346">7.16047e-12</wgt>
  <wgt id="347">7.595e-12</wgt>
  <wgt id="348">7.30164e-12</wgt>
  <wgt id="349">7.42124e-12</wgt>
  <wgt id="350">7.3298e-12</wgt>
  <wgt id="351">7.45357e-12</wgt>
  <wgt id="352">7.11542e-12</wgt>
  <wgt id="353">7.87349e-12</wgt>
  <wgt id="354">7.17676e-12</wgt>
  <wgt id="355">7.47242e-12</wgt>
  <wgt id="356">7.62371e-12</wgt>
  <wgt id="357">7.32003e-12</wgt>
  <wgt id="358">7.36429e-12</wgt>
  <wgt id="359">7.55907e-12</wgt>
  <wgt id="360">7.93662e-12</wgt>
  <wgt id="361">7.69562e-12</wgt>
  <wgt id="362">7.90187e-12</wgt>
  <wgt id="363">7.87686e-12</wgt>
  <wgt id="364">7.81174e-12</wgt>
  <wgt id="365">7.77363e-12</wgt>
  <wgt id="366">7.73875e-12</wgt>
  <wgt id="367">7.68275e-12</wgt>
  <wgt id="368">7.6368e-12</wgt>
  <wgt id="369">7.5872e-12</wgt>
  <wgt id="370">7.69562e-12</wgt>
  <wgt id="371">7.7219e-12</wgt>
  <wgt id="372">7.70652e-12</wgt>
  <wgt id="373">7.68837e-12</wgt>
  <wgt id="374">7.72256e-12</wgt>
  <wgt id="375">1.04196e-11</wgt>
  <wgt id="376">1.04197e-11</wgt>
  <wgt id="377">1.0421e-11</wgt>
  <wgt id="378">1.04643e-11</wgt>
  <wgt id="379">1.03761e-11</wgt>
  <wgt id="380">1.0453e-11</wgt>
  <wgt id="381">1.04061e-11</wgt>
  <wgt id="382">1.04528e-11</wgt>
  <wgt id="383">1.03876e-11</wgt>
  <wgt id="384">1.04275e-11</wgt>
  <wgt id="385">1.04126e-11</wgt>
  <wgt id="386">1.04295e-11</wgt>
  <wgt id="387">1.0416e-11</wgt>
  <wgt id="388">1.04134e-11</wgt>
  <wgt id="389">1.04278e-11</wgt>
  <wgt id="390">1.04314e-11</wgt>
  <wgt id="391">1.04074e-11</wgt>
  <wgt id="392">1.03075e-11</wgt>
  <wgt id="393">1.04837e-11</wgt>
  <wgt id="394">1.04129e-11</wgt>
  <wgt id="395">1.04287e-11</wgt>
  <wgt id="396">1.04517e-11</wgt>
  <wgt id="397">1.0397e-11</wgt>
  <wgt id="398">1.04426e-11</wgt>
  <wgt id="399">1.03991e-11</wgt>
  <wgt id="400">1.04022e-11</wgt>
  <wgt id="401">1.04612e-11</wgt>
  <wgt id="402">1.02756e-11</wgt>
  <wgt id="403">1.05573e-11</wgt>
  <wgt id="404">1.08807e-11</wgt>
  <wgt id="405">9.35483e-12</wgt>
  <wgt id="406">1.00847e-11</wgt>
  <wgt id="407">1.1187e-11</wgt>
  <wgt id="408">1.05952e-11</wgt>
  <wgt id="409">1.01067e-11</wgt>
  <wgt id="410">9.88741e-12</wgt>
  <wgt id="411">1.06866e-11</wgt>
  <wgt id="412">1.03843e-11</wgt>
  <wgt id="413">1.04684e-11</wgt>
  <wgt id="414">1.02119e-11</wgt>
  <wgt id="415">1.05814e-11</wgt>
  <wgt id="416">1.09927e-11</wgt>
  <wgt id="417">9.65252e-12</wgt>
  <wgt id="418">1.04561e-11</wgt>
  <wgt id="419">1.02225e-11</wgt>
  <wgt id="420">1.09347e-11</wgt>
  <wgt id="421">1.00527e-11</wgt>
  <wgt id="422">1.02306e-11</wgt>
  <wgt id="423">1.05028e-11</wgt>
  <wgt id="424">1.10046e-11</wgt>
  <wgt id="425">1.00052e-11</wgt>
  <wgt id="426">1.04196e-11</wgt>
  <wgt id="427">9.9241e-12</wgt>
  <wgt id="428">1.14259e-11</wgt>
  <wgt id="429">1.06863e-11</wgt>
  <wgt id="430">1.1217e-11</wgt>
  <wgt id="431">1.11003e-11</wgt>
  <wgt id="432">1.10059e-11</wgt>
  <wgt id="433">1.09127e-11</wgt>
  <wgt id="434">1.07843e-11</wgt>
  <wgt id="435">1.05672e-11</wgt>
  <wgt id="436">1.04618e-11</wgt>
  <wgt id="437">1.03545e-11</wgt>
  <wgt id="438">1.06863e-11</wgt>
  <wgt id="439">1.07133e-11</wgt>
  <wgt id="440">1.06934e-11</wgt>
  <wgt id="441">1.06844e-11</wgt>
  <wgt id="442">1.06831e-11</wgt>
  <wgt id="443">7.79402e-12</wgt>
  <wgt id="444">7.94169e-12</wgt>
  <wgt id="445">8.05159e-12</wgt>
  <wgt id="446">7.75163e-12</wgt>
  <wgt id="447">7.77267e-12</wgt>
  <wgt id="448">7.65338e-12</wgt>
  <wgt id="449">8.09273e-12</wgt>
  <wgt id="450">8.03254e-12</wgt>
  <wgt id="451">7.77042e-12</wgt>
  <wgt id="452">7.93964e-12</wgt>
  <wgt id="453">8.04561e-12</wgt>
  <wgt id="454">7.22834e-12</wgt>
  <wgt id="455">7.95768e-12</wgt>
  <wgt id="456">8.11498e-12</wgt>
  <wgt id="457">7.8124e-12</wgt>
  <wgt id="458">7.99201e-12</wgt>
  <wgt id="459">7.86334e-12</wgt>
  <wgt id="460">8.15157e-12</wgt>
  <wgt id="461">7.52683e-12</wgt>
  <wgt id="462">7.72962e-12</wgt>
  <wgt id="463">7.61521e-12</wgt>
  <wgt id="464">7.7855e-12</wgt>
  <wgt id="465">7.8645e-12</wgt>
  <wgt id="466">7.37345e-12</wgt>
  <wgt id="467">7.76653e-12</wgt>
  <wgt id="468">7.83904e-12</wgt>
  <wgt id="469">7.75658e-12</wgt>
  <wgt id="470">7.5865e-12</wgt>
  <wgt id="471">7.62628e-12</wgt>
  <wgt id="472">7.8671e-12</wgt>
  <wgt id="473">7.47971e-12</wgt>
  <wgt id="474">5.79e-12</wgt>
  <wgt id="475">5.98315e-12</wgt>
  <wgt id="476">6.12064e-12</wgt>
  <wgt id="477">6.57201e-12</wgt>
  <wgt id="478">6.4061e-12</wgt>
  <wgt id="479">4.84204e-12</wgt>
  <wgt id="480">6.47034e-12</wgt>
  <wgt id="481">6.03583e-12</wgt>
  <wgt id="482">6.69767e-12</wgt>
  <wgt id="483">6.59841e-12</wgt>
  <wgt id="484">6.5106e-12</wgt>
  <wgt id="485">5.30058e-12</wgt>
  <wgt id="486">6.19357e-12</wgt>
  <wgt id="487">5.35201e-12</wgt>
  <wgt id="488">5.19045e-12</wgt>
  <wgt id="489">4.17438e-12</wgt>
  <wgt id="490">6.14379e-12</wgt>
  <wgt id="491">5.70246e-12</wgt>
  <wgt id="492">5.77896e-12</wgt>
  <wgt id="493">4.45692e-12</wgt>
  <wgt id="494">4.4401e-12</wgt>
  <wgt id="495">6.43102e-12</wgt>
  <wgt id="496">4.6325e-12</wgt>
  <wgt id="497">5.28775e-12</wgt>
  <wgt id="498">5.87492e-12</wgt>
  <wgt id="499">5.96096e-12</wgt>
  <wgt id="500">6.56202e-12</wgt>
  <wgt id="501">6.44864e-12</wgt>
  <wgt id="502">7.0522e-12</wgt>
  <wgt id="503">5.57225e-12</wgt>
  <wgt id="504">6.0772e-12</wgt>
  <wgt id="505">6.59129e-12</wgt>
  <wgt id="506">4.59207e-12</wgt>
  <wgt id="507">5.15581e-12</wgt>
  <wgt id="508">6.15775e-12</wgt>
  <wgt id="509">6.16361e-12</wgt>
  <wgt id="510">5.32398e-12</wgt>
  <wgt id="511">5.47124e-12</wgt>
  <wgt id="512">6.31079e-12</wgt>
  <wgt id="513">6.82136e-12</wgt>
  <wgt id="514">6.78908e-12</wgt>
  <wgt id="515">6.99099e-12</wgt>
  <wgt id="516">6.89118e-12</wgt>
  <wgt id="517">5.85446e-12</wgt>
  <wgt id="518">6.61673e-12</wgt>
  <wgt id="519">5.83708e-12</wgt>
  <wgt id="520">5.0379e-12</wgt>
  <wgt id="521">5.18889e-12</wgt>
  <wgt id="522">5.55069e-12</wgt>
  <wgt id="523">5.83829e-12</wgt>
  <wgt id="524">5.90949e-12</wgt>
  <wgt id="525">5.82332e-12</wgt>
  <wgt id="526">6.43404e-12</wgt>
  <wgt id="527">5.82605e-12</wgt>
  <wgt id="528">5.07497e-12</wgt>
  <wgt id="529">4.24088e-12</wgt>
  <wgt id="530">6.5215e-12</wgt>
  <wgt id="531">5.40106e-12</wgt>
  <wgt id="532">5.97754e-12</wgt>
  <wgt id="533">6.19096e-12</wgt>
  <wgt id="534">4.88561e-12</wgt>
  <wgt id="535">6.47144e-12</wgt>
  <wgt id="536">6.56805e-12</wgt>
  <wgt id="537">4.82833e-12</wgt>
  <wgt id="538">5.60266e-12</wgt>
  <wgt id="539">5.72833e-12</wgt>
  <wgt id="540">5.2801e-12</wgt>
  <wgt id="541">5.7868e-12</wgt>
  <wgt id="542">4.90283e-12</wgt>
  <wgt id="543">4.97635e-12</wgt>
  <wgt id="544">5.47035e-12</wgt>
  <wgt id="545">5.04171e-12</wgt>
  <wgt id="546">5.05666e-12</wgt>
  <wgt id="547">5.19616e-12</wgt>
  <wgt id="548">6.40717e-12</wgt>
  <wgt id="549">5.64834e-12</wgt>
  <wgt id="550">4.45606e-12</wgt>
  <wgt id="551">5.11617e-12</wgt>
  <wgt id="552">6.59146e-12</wgt>
  <wgt id="553">4.86197e-12</wgt>
  <wgt id="554">5.64877e-12</wgt>
  <wgt id="555">5.59726e-12</wgt>
  <wgt id="556">6.14379e-12</wgt>
  <wgt id="557">5.35734e-12</wgt>
  <wgt id="558">5.65059e-12</wgt>
  <wgt id="559">6.23477e-12</wgt>
  <wgt id="560">6.19415e-12</wgt>
  <wgt id="561">6.77494e-12</wgt>
  <wgt id="562">6.17884e-12</wgt>
  <wgt id="563">6.08932e-12</wgt>
  <wgt id="564">6.69501e-12</wgt>
  <wgt id="565">6.97308e-12</wgt>
  <wgt id="566">4.57215e-12</wgt>
  <wgt id="567">6.30397e-12</wgt>
  <wgt id="568">4.74515e-12</wgt>
  <wgt id="569">6.01231e-12</wgt>
  <wgt id="570">6.3646e-12</wgt>
  <wgt id="571">6.71093e-12</wgt>
  <wgt id="572">4.92692e-12</wgt>
  <wgt id="573">5.66957e-12</wgt>
  <wgt id="574">5.89892e-12</wgt>
  <wgt id="575">6.07543e-12</wgt>
  <wgt id="576">6.8102e-12</wgt>
  <wgt id="577">6.02839e-12</wgt>
  <wgt id="578">4.93987e-12</wgt>
  <wgt id="579">6.34523e-12</wgt>
  <wgt id="580">6.07705e-12</wgt>
  <wgt id="581">6.89962e-12</wgt>
  <wgt id="582">6.30341e-12</wgt>
  <wgt id="583">6.7717e-12</wgt>
  <wgt id="584">6.32398e-12</wgt>
  <wgt id="585">5.43141e-12</wgt>
  <wgt id="586">5.59014e-12</wgt>
  <wgt id="587">6.23903e-12</wgt>
  <wgt id="588">8.00822e-12</wgt>
  <wgt id="589">7.18888e-12</wgt>
  <wgt id="590">6.45214e-12</wgt>
  <wgt id="591">6.46702e-12</wgt>
  <wgt id="592">6.39292e-12</wgt>
  <wgt id="593">5.94516e-12</wgt>
  <wgt id="594">5.78755e-12</wgt>
  <wgt id="595">7.11131e-12</wgt>
  <wgt id="596">6.58206e-12</wgt>
  <wgt id="597">5.91532e-12</wgt>
  <wgt id="598">7.21825e-12</wgt>
  <wgt id="599">7.08506e-12</wgt>
  <wgt id="600">7.12752e-12</wgt>
  <wgt id="601">5.7142e-12</wgt>
  <wgt id="602">5.10148e-12</wgt>
  <wgt id="603">4.84232e-12</wgt>
  <wgt id="604">6.97147e-12</wgt>
  <wgt id="605">5.66672e-12</wgt>
  <wgt id="606">4.73089e-12</wgt>
  <wgt id="607">6.53988e-12</wgt>
  <wgt id="608">6.14984e-12</wgt>
  <wgt id="609">5.75015e-12</wgt>
  <wgt id="610">5.29258e-12</wgt>
  <wgt id="611">5.37823e-12</wgt>
  <wgt id="612">5.77449e-12</wgt>
  <wgt id="613">5.35177e-12</wgt>
  <wgt id="614">6.50506e-12</wgt>
  <wgt id="615">6.83235e-12</wgt>
  <wgt id="616">4.74718e-12</wgt>
  <wgt id="617">6.38485e-12</wgt>
  <wgt id="618">6.96713e-12</wgt>
  <wgt id="619">5.88578e-12</wgt>
  <wgt id="620">6.16655e-12</wgt>
  <wgt id="621">6.28518e-12</wgt>
  <wgt id="622">6.23903e-12</wgt>
  <wgt id="623">5.9413e-12</wgt>
  <wgt id="624">5.63873e-12</wgt>
  <wgt id="625">5.63129e-12</wgt>
  <wgt id="626">3.16949e-12</wgt>
  <wgt id="627">5.11086e-12</wgt>
  <wgt id="628">6.23657e-12</wgt>
  <wgt id="629">7.9159e-12</wgt>
  <wgt id="630">6.6299e-12</wgt>
  <wgt id="631">7.1173e-12</wgt>
  <wgt id="632">5.51574e-12</wgt>
  <wgt id="633">6.06248e-12</wgt>
  <wgt id="634">5.17656e-12</wgt>
  <wgt id="635">5.81352e-12</wgt>
  <wgt id="636">5.3806e-12</wgt>
  <wgt id="637">6.44048e-12</wgt>
  <wgt id="638">5.56058e-12</wgt>
  <wgt id="639">5.19147e-12</wgt>
  <wgt id="640">5.19109e-12</wgt>
  <wgt id="641">6.935e-12</wgt>
  <wgt id="642">4.8091e-12</wgt>
  <wgt id="643">5.7778e-12</wgt>
  <wgt id="644">5.93952e-12</wgt>
  <wgt id="645">6.5716e-12</wgt>
  <wgt id="646">4.50276e-12</wgt>
  <wgt id="647">7.01867e-12</wgt>
  <wgt id="648">7.10971e-12</wgt>
  <wgt id="649">6.67563e-12</wgt>
  <wgt id="650">6.27311e-12</wgt>
  <wgt id="651">6.17105e-12</wgt>
  <wgt id="652">5.5248e-12</wgt>
  <wgt id="653">5.83693e-12</wgt>
  <wgt id="654">5.97222e-12</wgt>
  <wgt id="655">4.94799e-12</wgt>
  <wgt id="656">6.68088e-12</wgt>
  <wgt id="657">7.12153e-12</wgt>
  <wgt id="658">5.59956e-12</wgt>
  <wgt id="659">6.22269e-12</wgt>
  <wgt id="660">5.0776e-12</wgt>
  <wgt id="661">5.64729e-12</wgt>
  <wgt id="662">6.29058e-12</wgt>
  <wgt id="663">6.67701e-12</wgt>
  <wgt id="664">6.96217e-12</wgt>
  <wgt id="665">5.58662e-12</wgt>
  <wgt id="666">5.7587e-12</wgt>
  <wgt id="667">6.18509e-12</wgt>
  <wgt id="668">5.94971e-12</wgt>
  <wgt id="669">5.54985e-12</wgt>
  <wgt id="670">6.76248e-12</wgt>
  <wgt id="671">6.24104e-12</wgt>
  <wgt id="672">6.93838e-12</wgt>
  <wgt id="673">7.00752e-12</wgt>
  <wgt id="674">5.82331e-12</wgt>
  <wgt id="675">5.44926e-12</wgt>
  <wgt id="676">8.26185e-12</wgt>
  <wgt id="677">8.08228e-12</wgt>
  <wgt id="678">9.85997e-12</wgt>
  <wgt id="679">9.5147e-12</wgt>
  <wgt id="680">8.6883e-12</wgt>
  <wgt id="681">7.76271e-12</wgt>
  <wgt id="682">9.34387e-12</wgt>
  <wgt id="683">7.10141e-12</wgt>
  <wgt id="684">9.76041e-12</wgt>
  <wgt id="685">8.85939e-12</wgt>
  <wgt id="686">9.00645e-12</wgt>
  <wgt id="687">7.67205e-12</wgt>
  <wgt id="688">8.42335e-12</wgt>
  <wgt id="689">1.02176e-11</wgt>
  <wgt id="690">9.19018e-12</wgt>
  <wgt id="691">9.07004e-12</wgt>
  <wgt id="692">7.48435e-12</wgt>
  <wgt id="693">1.40602e-11</wgt>
  <wgt id="694">1.03025e-11</wgt>
  <wgt id="695">6.443e-12</wgt>
  <wgt id="696">6.38983e-12</wgt>
  <wgt id="697">5.92306e-12</wgt>
  <wgt id="698">5.07193e-12</wgt>
  <wgt id="699">6.74441e-12</wgt>
  <wgt id="700">6.25415e-12</wgt>
  <wgt id="701">8.55798e-12</wgt>
  <wgt id="702">7.26135e-12</wgt>
  <wgt id="703">1.28796e-11</wgt>
  <wgt id="704">1.01296e-11</wgt>
  <wgt id="705">8.819e-12</wgt>
  <wgt id="706">6.09166e-12</wgt>
  <wgt id="707">7.07847e-12</wgt>
  <wgt id="708">7.10676e-12</wgt>
  <wgt id="709">7.10881e-12</wgt>
  <wgt id="710">3.4257e-12</wgt>
  <wgt id="711">9.68965e-12</wgt>
  <wgt id="712">7.59434e-12</wgt>
  <wgt id="713">9.11575e-12</wgt>
  <wgt id="714">6.0426e-12</wgt>
  <wgt id="715">6.70739e-12</wgt>
  <wgt id="716">7.44441e-12</wgt>
  <wgt id="717">5.33541e-12</wgt>
  <wgt id="718">8.30631e-12</wgt>
  <wgt id="719">7.52206e-12</wgt>
  <wgt id="720">8.36809e-12</wgt>
  <wgt id="721">6.29684e-12</wgt>
  <wgt id="722">3.26366e-12</wgt>
  <wgt id="723">1.12121e-11</wgt>
  <wgt id="724">9.54372e-12</wgt>
  <wgt id="725">9.22265e-12</wgt>
  <wgt id="726">8.15952e-12</wgt>
  <wgt id="727">8.69714e-12</wgt>
  <wgt id="728">1.01518e-11</wgt>
  <wgt id="729">5.32529e-12</wgt>
  <wgt id="730">1.03882e-11</wgt>
  <wgt id="731">8.17245e-12</wgt>
  <wgt id="732">1.02098e-11</wgt>
  <wgt id="733">7.13522e-12</wgt>
  <wgt id="734">8.82223e-12</wgt>
  <wgt id="735">7.04505e-12</wgt>
  <wgt id="736">6.80457e-12</wgt>
  <wgt id="737">4.37771e-12</wgt>
  <wgt id="738">7.2463e-12</wgt>
  <wgt id="739">8.271e-12</wgt>
  <wgt id="740">1.15974e-11</wgt>
  <wgt id="741">1.01555e-11</wgt>
  <wgt id="742">6.2088e-12</wgt>
  <wgt id="743">7.27447e-12</wgt>
  <wgt id="744">7.49346e-12</wgt>
  <wgt id="745">1.04241e-11</wgt>
  <wgt id="746">1.09883e-11</wgt>
  <wgt id="747">6.14231e-12</wgt>
  <wgt id="748">7.73567e-12</wgt>
  <wgt id="749">9.78043e-12</wgt>
  <wgt id="750">9.81363e-12</wgt>
  <wgt id="751">8.83972e-12</wgt>
  <wgt id="752">6.7701e-12</wgt>
  <wgt id="753">6.62255e-12</wgt>
  <wgt id="754">8.56498e-12</wgt>
  <wgt id="755">7.22779e-12</wgt>
  <wgt id="756">7.32474e-12</wgt>
  <wgt id="757">6.47254e-12</wgt>
  <wgt id="758">8.22551e-12</wgt>
  <wgt id="759">8.78661e-12</wgt>
  <wgt id="760">6.70862e-12</wgt>
  <wgt id="761">1.04859e-11</wgt>
  <wgt id="762">1.05332e-11</wgt>
  <wgt id="763">1.0981e-11</wgt>
  <wgt id="764">1.01565e-11</wgt>
  <wgt id="765">9.05239e-12</wgt>
  <wgt id="766">9.50096e-12</wgt>
  <wgt id="767">9.21216e-12</wgt>
  <wgt id="768">6.8878e-12</wgt>
  <wgt id="769">8.57868e-12</wgt>
  <wgt id="770">4.90852e-12</wgt>
  <wgt id="771">1.25529e-11</wgt>
  <wgt id="772">7.50078e-12</wgt>
  <wgt id="773">9.22756e-12</wgt>
  <wgt id="774">5.98139e-12</wgt>
  <wgt id="775">9.36907e-12</wgt>
  <wgt id="776">1.23897e-11</wgt>
  <wgt id="777">4.81004e-12</wgt>
  <wgt id="778">3.61809e-12</wgt>
  <wgt id="779">8.08667e-20</wgt>
  <wgt id="780">8.0412e-20</wgt>
  <wgt id="781">2.32687e-12</wgt>
  <wgt id="782">3.27637e-12</wgt>
  <wgt id="783">8.09266e-20</wgt>
  <wgt id="784">8.13023e-20</wgt>
  <wgt id="785">8.08224e-12</wgt>
  <wgt id="786">8.01407e-20</wgt>
  <wgt id="787">6.81579e-12</wgt>
  <wgt id="788">7.83086e-20</wgt>
  <wgt id="789">8.53469e-20</wgt>
  <wgt id="790">8.01582e-20</wgt>
  <wgt id="791">2.63099e-12</wgt>
  <wgt id="792">4.85838e-12</wgt>
  <wgt id="793">8.18463e-20</wgt>
  <wgt id="794">7.96732e-20</wgt>
  <wgt id="795">7.36028e-12</wgt>
  <wgt id="796">8.11954e-12</wgt>
  <wgt id="797">6.25813e-12</wgt>
  <wgt id="798">7.9805e-20</wgt>
  <wgt id="799">7.57708e-12</wgt>
  <wgt id="800">8.22745e-20</wgt>
  <wgt id="801">6.16333e-12</wgt>
  <wgt id="802">8.14687e-20</wgt>
  <wgt id="803">6.66525e-12</wgt>
  <wgt id="804">7.78071e-12</wgt>
  <wgt id="805">7.51703e-12</wgt>
  <wgt id="806">4.48751e-12</wgt>
  <wgt id="807">2.58511e-12</wgt>
  <wgt id="808">4.74224e-12</wgt>
  <wgt id="809">7.43329e-13</wgt>
  <wgt id="810">1.11106e-11</wgt>
  <wgt id="811">4.71235e-12</wgt>
  <wgt id="812">8.10898e-20</wgt>
  <wgt id="813">8.05735e-20</wgt>
  <wgt id="814">7.88838e-20</wgt>
  <wgt id="815">8.07039e-20</wgt>
  <wgt id="816">8.1888e-20</wgt>
  <wgt id="817">4.64477e-12</wgt>
  <wgt id="818">6.8702e-12</wgt>
  <wgt id="819">8.15463e-20</wgt>
  <wgt id="820">1.27713e-12</wgt>
  <wgt id="821">5.95345e-12</wgt>
  <wgt id="822">8.25926e-20</wgt>
  <wgt id="823">7.50628e-12</wgt>
  <wgt id="824">6.13702e-12</wgt>
  <wgt id="825">7.97674e-20</wgt>
  <wgt id="826">7.90287e-12</wgt>
  <wgt id="827">8.09411e-20</wgt>
  <wgt id="828">5.40974e-12</wgt>
  <wgt id="829">4.08481e-12</wgt>
  <wgt id="830">8.03762e-20</wgt>
  <wgt id="831">6.2272e-12</wgt>
  <wgt id="832">1.099e-11</wgt>
  <wgt id="833">3.66275e-13</wgt>
  <wgt id="834">1.13524e-11</wgt>
  <wgt id="835">8.15787e-20</wgt>
  <wgt id="836">8.5888e-20</wgt>
  <wgt id="837">5.99617e-12</wgt>
  <wgt id="838">8.15677e-20</wgt>
  <wgt id="839">7.49872e-12</wgt>
  <wgt id="840">1.98668e-12</wgt>
  <wgt id="841">7.01302e-12</wgt>
  <wgt id="842">2.04578e-12</wgt>
  <wgt id="843">2.38571e-12</wgt>
  <wgt id="844">5.9575e-12</wgt>
  <wgt id="845">1.08426e-11</wgt>
  <wgt id="846">8.4811e-20</wgt>
  <wgt id="847">5.13863e-12</wgt>
  <wgt id="848">8.2107e-20</wgt>
  <wgt id="849">6.05828e-12</wgt>
  <wgt id="850">9.87025e-12</wgt>
  <wgt id="851">6.11423e-12</wgt>
  <wgt id="852">8.17767e-20</wgt>
  <wgt id="853">6.34386e-12</wgt>
  <wgt id="854">8.76681e-12</wgt>
  <wgt id="855">4.87964e-12</wgt>
  <wgt id="856">8.00811e-20</wgt>
  <wgt id="857">8.24743e-20</wgt>
  <wgt id="858">4.98171e-12</wgt>
  <wgt id="859">2.35467e-12</wgt>
  <wgt id="860">3.04631e-12</wgt>
  <wgt id="861">8.33478e-20</wgt>
  <wgt id="862">4.70359e-12</wgt>
  <wgt id="863">6.32832e-12</wgt>
  <wgt id="864">3.26118e-12</wgt>
  <wgt id="865">9.71558e-12</wgt>
  <wgt id="866">1.00637e-11</wgt>
  <wgt id="867">3.91548e-12</wgt>
  <wgt id="868">5.74856e-12</wgt>
  <wgt id="869">8.05648e-20</wgt>
  <wgt id="870">8.12645e-20</wgt>
  <wgt id="871">8.23176e-13</wgt>
  <wgt id="872">1.02273e-11</wgt>
  <wgt id="873">8.19999e-20</wgt>
  <wgt id="874">5.74013e-12</wgt>
  <wgt id="875">8.06606e-20</wgt>
  <wgt id="876">9.07707e-12</wgt>
  <wgt id="877">5.72976e-12</wgt>
  <wgt id="878">8.21755e-20</wgt>
  <wgt id="879">8.26185e-12</wgt>
  <wgt id="880">8.08228e-12</wgt>
  <wgt id="881">9.85997e-12</wgt>
  <wgt id="882">9.5147e-12</wgt>
  <wgt id="883">8.6883e-12</wgt>
  <wgt id="884">7.76271e-12</wgt>
  <wgt id="885">9.34387e-12</wgt>
  <wgt id="886">7.10141e-12</wgt>
  <wgt id="887">9.76041e-12</wgt>
  <wgt id="888">8.85939e-12</wgt>
  <wgt id="889">9.00645e-12</wgt>
  <wgt id="890">7.67205e-12</wgt>
  <wgt id="891">8.42335e-12</wgt>
  <wgt id="892">1.02176e-11</wgt>
  <wgt id="893">9.19018e-12</wgt>
  <wgt id="894">9.07004e-12</wgt>
  <wgt id="895">7.48435e-12</wgt>
  <wgt id="896">1.40602e-11</wgt>
  <wgt id="897">1.03025e-11</wgt>
  <wgt id="898">6.443e-12</wgt>
  <wgt id="899">6.38983e-12</wgt>
  <wgt id="900">5.92306e-12</wgt>
  <wgt id="901">5.07193e-12</wgt>
  <wgt id="902">6.74441e-12</wgt>
  <wgt id="903">6.25415e-12</wgt>
  <wgt id="904">8.55798e-12</wgt>
  <wgt id="905">7.26135e-12</wgt>
  <wgt id="906">1.28796e-11</wgt>
  <wgt id="907">1.01296e-11</wgt>
  <wgt id="908">8.819e-12</wgt>
  <wgt id="909">6.09166e-12</wgt>
  <wgt id="910">7.07847e-12</wgt>
  <wgt id="911">7.10676e-12</wgt>
  <wgt id="912">7.10881e-12</wgt>
  <wgt id="913">3.4257e-12</wgt>
  <wgt id="914">9.68965e-12</wgt>
  <wgt id="915">7.59434e-12</wgt>
  <wgt id="916">9.11575e-12</wgt>
  <wgt id="917">6.0426e-12</wgt>
  <wgt id="918">6.70739e-12</wgt>
  <wgt id="919">7.44441e-12</wgt>
  <wgt id="920">5.33541e-12</wgt>
  <wgt id="921">8.30631e-12</wgt>
  <wgt id="922">7.52206e-12</wgt>
  <wgt id="923">8.36809e-12</wgt>
  <wgt id="924">6.29684e-12</wgt>
  <wgt id="925">3.26366e-12</wgt>
  <wgt id="926">1.12121e-11</wgt>
  <wgt id="927">9.54372e-12</wgt>
  <wgt id="928">9.22265e-12</wgt>
  <wgt id="929">8.15952e-12</wgt>
  <wgt id="930">8.69714e-12</wgt>
  <wgt id="931">1.01518e-11</wgt>
  <wgt id="932">5.32529e-12</wgt>
  <wgt id="933">1.03882e-11</wgt>
  <wgt id="934">8.17245e-12</wgt>
  <wgt id="935">1.02098e-11</wgt>
  <wgt id="936">7.13522e-12</wgt>
  <wgt id="937">8.82223e-12</wgt>
  <wgt id="938">7.04505e-12</wgt>
  <wgt id="939">6.80457e-12</wgt>
  <wgt id="940">4.37771e-12</wgt>
  <wgt id="941">7.2463e-12</wgt>
  <wgt id="942">8.271e-12</wgt>
  <wgt id="943">1.15974e-11</wgt>
  <wgt id="944">1.01555e-11</wgt>
  <wgt id="945">6.2088e-12</wgt>
  <wgt id="946">7.27447e-12</wgt>
  <wgt id="947">7.49346e-12</wgt>
  <wgt id="948">1.04241e-11</wgt>
  <wgt id="949">1.09883e-11</wgt>
  <wgt id="950">6.14231e-12</wgt>
  <wgt id="951">7.73567e-12</wgt>
  <wgt id="952">9.78043e-12</wgt>
  <wgt id="953">9.81363e-12</wgt>
  <wgt id="954">8.83972e-12</wgt>
  <wgt id="955">6.7701e-12</wgt>
  <wgt id="956">6.62255e-12</wgt>
  <wgt id="957">8.56498e-12</wgt>
  <wgt id="958">7.22779e-12</wgt>
  <wgt id="959">7.32474e-12</wgt>
  <wgt id="960">6.47254e-12</wgt>
  <wgt id="961">8.22551e-12</wgt>
  <wgt id="962">8.78661e-12</wgt>
  <wgt id="963">6.70862e-12</wgt>
  <wgt id="964">1.04859e-11</wgt>
  <wgt id="965">1.05332e-11</wgt>
  <wgt id="966">1.0981e-11</wgt>
  <wgt id="967">1.01565e-11</wgt>
  <wgt id="968">9.05239e-12</wgt>
  <wgt id="969">9.50096e-12</wgt>
  <wgt id="970">9.21216e-12</wgt>
  <wgt id="971">6.8878e-12</wgt>
  <wgt id="972">8.57868e-12</wgt>
  <wgt id="973">4.90852e-12</wgt>
  <wgt id="974">1.25529e-11</wgt>
  <wgt id="975">7.50078e-12</wgt>
  <wgt id="976">9.22756e-12</wgt>
  <wgt id="977">5.98139e-12</wgt>
  <wgt id="978">9.36907e-12</wgt>
  <wgt id="979">1.23897e-11</wgt>
  <wgt id="980">8.13147e-12</wgt>
  <wgt id="981">9.0592e-12</wgt>
  <wgt id="982">8.42555e-12</wgt>
</rwgt>
</event>
<event>
 5   1  0.5790000E-11  0.2160517E+04  0.7818608E-02  0.7763906E-01
       21   -1    0    0  502  501  0.00000000000E+00  0.00000000000E+00  0.11577045664E+04  0.11577045664E+04  0.00000000000E+00 0.  1.
       21   -1    0    0  501  502 -0.00000000000E+00 -0.00000000000E+00 -0.10079935425E+04  0.10079935425E+04  0.00000000000E+00 0. -1.
       39    2    1    2    0    0  0.00000000000E+00  0.00000000000E+00  0.14971102393E+03  0.21656981089E+04  0.21605172779E+04 0.  0.
       25    1    3    3    0    0 -0.77157446420E+03  0.69669224335E+03 -0.19153821215E+03  0.10644337098E+04  0.12500000000E+03 0.  0.
       25    1    3    3    0    0  0.77157446420E+03 -0.69669224335E+03  0.34124923607E+03  0.11012643992E+04  0.12500000000E+03 0.  0.
<mgrwt>
<rscale>  0 0.21605173E+04</rscale>
<asrwt>0</asrwt>
<pdfrwt beam="1">  1       21 0.17810840E+00 0.21605173E+04</pdfrwt>
<pdfrwt beam="2">  1       21 0.15507593E+00 0.21605173E+04</pdfrwt>
<totfact> 0.21381451E+01</totfact>
</mgrwt>
<rwgt>
  <wgt id="1">5.79e-12</wgt>
  <wgt id="2">5.06073e-12</wgt>
  <wgt id="3">6.6913e-12</wgt>
  <wgt id="4">5.79e-12</wgt>
  <wgt id="5">5.06073e-12</wgt>
  <wgt id="6">6.6913e-12</wgt>
  <wgt id="7">5.79e-12</wgt>
  <wgt id="8">5.06073e-12</wgt>
  <wgt id="9">6.6913e-12</wgt>
  <wgt id="10">5.94426e-12</wgt>
  <wgt id="11">5.9382e-12</wgt>
  <wgt id="12">5.93257e-12</wgt>
  <wgt id="13">5.9238e-12</wgt>
  <wgt id="14">5.96518e-12</wgt>
  <wgt id="15">5.95236e-12</wgt>
  <wgt id="16">5.93039e-12</wgt>
  <wgt id="17">5.95316e-12</wgt>
  <wgt id="18">5.93684e-12</wgt>
  <wgt id="19">5.9563e-12</wgt>
  <wgt id="20">5.92636e-12</wgt>
  <wgt id="21">5.91464e-12</wgt>
  <wgt id="22">5.9281e-12</wgt>
  <wgt id="23">5.89585e-12</wgt>
  <wgt id="24">5.91939e-12</wgt>
  <wgt id="25">5.92977e-12</wgt>
  <wgt id="26">5.96934e-12</wgt>
  <wgt id="27">5.94385e-12</wgt>
  <wgt id="28">5.91641e-12</wgt>
  <wgt id="29">5.95101e-12</wgt>
  <wgt id="30">5.93068e-12</wgt>
  <wgt id="31">5.95893e-12</wgt>
  <wgt id="32">5.93198e-12</wgt>
  <wgt id="33">5.95677e-12</wgt>
  <wgt id="34">5.92807e-12</wgt>
  <wgt id="35">5.93718e-12</wgt>
  <wgt id="36">5.95682e-12</wgt>
  <wgt id="37">5.92919e-12</wgt>
  <wgt id="38">5.93074e-12</wgt>
  <wgt id="39">6.00303e-12</wgt>
  <wgt id="40">5.96038e-12</wgt>
  <wgt id="41">5.94293e-12</wgt>
  <wgt id="42">5.96538e-12</wgt>
  <wgt id="43">5.95122e-12</wgt>
  <wgt id="44">5.9167e-12</wgt>
  <wgt id="45">5.95257e-12</wgt>
  <wgt id="46">5.95123e-12</wgt>
  <wgt id="47">5.91568e-12</wgt>
  <wgt id="48">5.94555e-12</wgt>
  <wgt id="49">5.97255e-12</wgt>
  <wgt id="50">5.98603e-12</wgt>
  <wgt id="51">5.97034e-12</wgt>
  <wgt id="52">5.91784e-12</wgt>
  <wgt id="53">5.91013e-12</wgt>
  <wgt id="54">5.93218e-12</wgt>
  <wgt id="55">5.94241e-12</wgt>
  <wgt id="56">5.9603e-12</wgt>
  <wgt id="57">5.96498e-12</wgt>
  <wgt id="58">5.90286e-12</wgt>
  <wgt id="59">5.92478e-12</wgt>
  <wgt id="60">5.94455e-12</wgt>
  <wgt id="61">5.94284e-12</wgt>
  <wgt id="62">5.94718e-12</wgt>
  <wgt id="63">5.95443e-12</wgt>
  <wgt id="64">5.95134e-12</wgt>
  <wgt id="65">5.94823e-12</wgt>
  <wgt id="66">5.93766e-12</wgt>
  <wgt id="67">5.9414e-12</wgt>
  <wgt id="68">5.93812e-12</wgt>
  <wgt id="69">5.94131e-12</wgt>
  <wgt id="70">5.93958e-12</wgt>
  <wgt id="71">5.93992e-12</wgt>
  <wgt id="72">5.93877e-12</wgt>
  <wgt id="73">5.94923e-12</wgt>
  <wgt id="74">5.94696e-12</wgt>
  <wgt id="75">5.94601e-12</wgt>
  <wgt id="76">5.95859e-12</wgt>
  <wgt id="77">5.94331e-12</wgt>
  <wgt id="78">5.94608e-12</wgt>
  <wgt id="79">5.95285e-12</wgt>
  <wgt id="80">5.92185e-12</wgt>
  <wgt id="81">5.93716e-12</wgt>
  <wgt id="82">5.94447e-12</wgt>
  <wgt id="83">5.92555e-12</wgt>
  <wgt id="84">5.93273e-12</wgt>
  <wgt id="85">5.9369e-12</wgt>
  <wgt id="86">5.9535e-12</wgt>
  <wgt id="87">5.9212e-12</wgt>
  <wgt id="88">5.94978e-12</wgt>
  <wgt id="89">5.94888e-12</wgt>
  <wgt id="90">5.94992e-12</wgt>
  <wgt id="91">5.94755e-12</wgt>
  <wgt id="92">5.95338e-12</wgt>
  <wgt id="93">5.94338e-12</wgt>
  <wgt id="94">5.94039e-12</wgt>
  <wgt id="95">5.94696e-12</wgt>
  <wgt id="96">5.94762e-12</wgt>
  <wgt id="97">5.9382e-12</wgt>
  <wgt id="98">5.94721e-12</wgt>
  <wgt id="99">5.94246e-12</wgt>
  <wgt id="100">5.94997e-12</wgt>
  <wgt id="101">5.94284e-12</wgt>
  <wgt id="102">5.93954e-12</wgt>
  <wgt id="103">5.9508e-12</wgt>
  <wgt id="104">5.93996e-12</wgt>
  <wgt id="105">5.94837e-12</wgt>
  <wgt id="106">5.93839e-12</wgt>
  <wgt id="107">5.95729e-12</wgt>
  <wgt id="108">5.93915e-12</wgt>
  <wgt id="109">5.94739e-12</wgt>
  <wgt id="110">5.94273e-12</wgt>
  <wgt id="111">6.01865e-12</wgt>
  <wgt id="112">5.92611e-12</wgt>
  <wgt id="113">7.78638e-12</wgt>
  <wgt id="114">8.13191e-12</wgt>
  <wgt id="115">8.0235e-12</wgt>
  <wgt id="116">1.09377e-11</wgt>
  <wgt id="117">6.52772e-12</wgt>
  <wgt id="118">6.54848e-12</wgt>
  <wgt id="119">6.5161e-12</wgt>
  <wgt id="120">6.52854e-12</wgt>
  <wgt id="121">6.52726e-12</wgt>
  <wgt id="122">6.51592e-12</wgt>
  <wgt id="123">6.5441e-12</wgt>
  <wgt id="124">6.51828e-12</wgt>
  <wgt id="125">6.53406e-12</wgt>
  <wgt id="126">6.53869e-12</wgt>
  <wgt id="127">6.52059e-12</wgt>
  <wgt id="128">6.54833e-12</wgt>
  <wgt id="129">6.50734e-12</wgt>
  <wgt id="130">6.56552e-12</wgt>
  <wgt id="131">6.48913e-12</wgt>
  <wgt id="132">6.3648e-12</wgt>
  <wgt id="133">6.71947e-12</wgt>
  <wgt id="134">6.46122e-12</wgt>
  <wgt id="135">6.57959e-12</wgt>
  <wgt id="136">6.60492e-12</wgt>
  <wgt id="137">6.43427e-12</wgt>
  <wgt id="138">6.76212e-12</wgt>
  <wgt id="139">6.29967e-12</wgt>
  <wgt id="140">6.48247e-12</wgt>
  <wgt id="141">6.56338e-12</wgt>
  <wgt id="142">6.529e-12</wgt>
  <wgt id="143">6.53472e-12</wgt>
  <wgt id="144">6.37646e-12</wgt>
  <wgt id="145">6.66562e-12</wgt>
  <wgt id="146">6.57573e-12</wgt>
  <wgt id="147">6.4906e-12</wgt>
  <wgt id="148">6.54601e-12</wgt>
  <wgt id="149">6.52653e-12</wgt>
  <wgt id="150">6.58257e-12</wgt>
  <wgt id="151">6.50219e-12</wgt>
  <wgt id="152">6.53031e-12</wgt>
  <wgt id="153">6.5268e-12</wgt>
  <wgt id="154">6.58789e-12</wgt>
  <wgt id="155">6.45786e-12</wgt>
  <wgt id="156">6.62754e-12</wgt>
  <wgt id="157">6.41369e-12</wgt>
  <wgt id="158">7.85667e-12</wgt>
  <wgt id="159">7.88912e-12</wgt>
  <wgt id="160">7.83047e-12</wgt>
  <wgt id="161">7.83834e-12</wgt>
  <wgt id="162">7.87706e-12</wgt>
  <wgt id="163">7.84894e-12</wgt>
  <wgt id="164">7.86844e-12</wgt>
  <wgt id="165">7.85987e-12</wgt>
  <wgt id="166">7.85451e-12</wgt>
  <wgt id="167">7.85096e-12</wgt>
  <wgt id="168">7.86491e-12</wgt>
  <wgt id="169">7.82281e-12</wgt>
  <wgt id="170">7.87801e-12</wgt>
  <wgt id="171">7.84856e-12</wgt>
  <wgt id="172">7.86831e-12</wgt>
  <wgt id="173">7.85882e-12</wgt>
  <wgt id="174">7.85565e-12</wgt>
  <wgt id="175">7.64661e-12</wgt>
  <wgt id="176">8.12943e-12</wgt>
  <wgt id="177">7.89587e-12</wgt>
  <wgt id="178">7.8203e-12</wgt>
  <wgt id="179">8.15784e-12</wgt>
  <wgt id="180">7.37821e-12</wgt>
  <wgt id="181">7.64483e-12</wgt>
  <wgt id="182">7.99617e-12</wgt>
  <wgt id="183">7.72688e-12</wgt>
  <wgt id="184">7.92126e-12</wgt>
  <wgt id="185">7.79831e-12</wgt>
  <wgt id="186">7.9253e-12</wgt>
  <wgt id="187">7.79034e-12</wgt>
  <wgt id="188">7.97656e-12</wgt>
  <wgt id="189">7.81087e-12</wgt>
  <wgt id="190">7.87556e-12</wgt>
  <wgt id="191">7.87613e-12</wgt>
  <wgt id="192">7.84534e-12</wgt>
  <wgt id="193">7.95879e-12</wgt>
  <wgt id="194">7.80624e-12</wgt>
  <wgt id="195">7.705e-12</wgt>
  <wgt id="196">8.1483e-12</wgt>
  <wgt id="197">7.89328e-12</wgt>
  <wgt id="198">7.84803e-12</wgt>
  <wgt id="199">7.85667e-12</wgt>
  <wgt id="200">7.91997e-12</wgt>
  <wgt id="201">7.8962e-12</wgt>
  <wgt id="202">7.87368e-12</wgt>
  <wgt id="203">7.83897e-12</wgt>
  <wgt id="204">7.82273e-12</wgt>
  <wgt id="205">7.80919e-12</wgt>
  <wgt id="206">7.65173e-12</wgt>
  <wgt id="207">7.69579e-12</wgt>
  <wgt id="208">7.60822e-12</wgt>
  <wgt id="209">7.67231e-12</wgt>
  <wgt id="210">7.63668e-12</wgt>
  <wgt id="211">7.64955e-12</wgt>
  <wgt id="212">7.65352e-12</wgt>
  <wgt id="213">7.65102e-12</wgt>
  <wgt id="214">7.65286e-12</wgt>
  <wgt id="215">7.65671e-12</wgt>
  <wgt id="216">7.6483e-12</wgt>
  <wgt id="217">7.67293e-12</wgt>
  <wgt id="218">7.63564e-12</wgt>
  <wgt id="219">7.642e-12</wgt>
  <wgt id="220">7.6576e-12</wgt>
  <wgt id="221">7.6478e-12</wgt>
  <wgt id="222">7.66137e-12</wgt>
  <wgt id="223">7.26921e-12</wgt>
  <wgt id="224">7.99893e-12</wgt>
  <wgt id="225">7.56667e-12</wgt>
  <wgt id="226">7.7583e-12</wgt>
  <wgt id="227">7.58334e-12</wgt>
  <wgt id="228">7.68176e-12</wgt>
  <wgt id="229">7.55053e-12</wgt>
  <wgt id="230">7.70207e-12</wgt>
  <wgt id="231">7.85516e-12</wgt>
  <wgt id="232">7.48416e-12</wgt>
  <wgt id="233">7.61515e-12</wgt>
  <wgt id="234">7.70691e-12</wgt>
  <wgt id="235">7.54005e-12</wgt>
  <wgt id="236">7.76711e-12</wgt>
  <wgt id="237">7.56817e-12</wgt>
  <wgt id="238">7.68071e-12</wgt>
  <wgt id="239">7.61418e-12</wgt>
  <wgt id="240">7.72043e-12</wgt>
  <wgt id="241">7.58082e-12</wgt>
  <wgt id="242">7.73718e-12</wgt>
  <wgt id="243">7.72121e-12</wgt>
  <wgt id="244">7.70577e-12</wgt>
  <wgt id="245">7.64511e-12</wgt>
  <wgt id="246">7.71264e-12</wgt>
  <wgt id="247">7.65173e-12</wgt>
  <wgt id="248">7.71348e-12</wgt>
  <wgt id="249">7.68942e-12</wgt>
  <wgt id="250">7.66746e-12</wgt>
  <wgt id="251">7.63378e-12</wgt>
  <wgt id="252">7.61814e-12</wgt>
  <wgt id="253">7.60657e-12</wgt>
  <wgt id="254">7.50207e-12</wgt>
  <wgt id="255">7.50956e-12</wgt>
  <wgt id="256">7.49431e-12</wgt>
  <wgt id="257">7.50804e-12</wgt>
  <wgt id="258">7.49777e-12</wgt>
  <wgt id="259">7.5521e-12</wgt>
  <wgt id="260">7.45413e-12</wgt>
  <wgt id="261">7.51018e-12</wgt>
  <wgt id="262">7.49273e-12</wgt>
  <wgt id="263">7.49967e-12</wgt>
  <wgt id="264">7.50503e-12</wgt>
  <wgt id="265">7.49443e-12</wgt>
  <wgt id="266">7.51725e-12</wgt>
  <wgt id="267">7.50444e-12</wgt>
  <wgt id="268">7.4992e-12</wgt>
  <wgt id="269">7.52391e-12</wgt>
  <wgt id="270">7.48738e-12</wgt>
  <wgt id="271">7.49041e-12</wgt>
  <wgt id="272">7.51542e-12</wgt>
  <wgt id="273">7.47986e-12</wgt>
  <wgt id="274">7.51933e-12</wgt>
  <wgt id="275">7.47538e-12</wgt>
  <wgt id="276">7.52964e-12</wgt>
  <wgt id="277">7.46175e-12</wgt>
  <wgt id="278">7.53935e-12</wgt>
  <wgt id="279">7.36616e-12</wgt>
  <wgt id="280">7.67211e-12</wgt>
  <wgt id="281">7.47208e-12</wgt>
  <wgt id="282">7.5023e-12</wgt>
  <wgt id="283">7.30535e-12</wgt>
  <wgt id="284">7.74336e-12</wgt>
  <wgt id="285">7.17338e-12</wgt>
  <wgt id="286">7.77151e-12</wgt>
  <wgt id="287">7.52369e-12</wgt>
  <wgt id="288">7.47447e-12</wgt>
  <wgt id="289">7.54991e-12</wgt>
  <wgt id="290">7.38835e-12</wgt>
  <wgt id="291">7.48563e-12</wgt>
  <wgt id="292">7.50632e-12</wgt>
  <wgt id="293">7.4496e-12</wgt>
  <wgt id="294">7.55432e-12</wgt>
  <wgt id="295">7.37137e-12</wgt>
  <wgt id="296">7.66136e-12</wgt>
  <wgt id="297">7.50737e-12</wgt>
  <wgt id="298">7.52407e-12</wgt>
  <wgt id="299">7.48018e-12</wgt>
  <wgt id="300">7.55996e-12</wgt>
  <wgt id="301">7.42676e-12</wgt>
  <wgt id="302">7.71371e-12</wgt>
  <wgt id="303">7.45826e-12</wgt>
  <wgt id="304">7.52813e-12</wgt>
  <wgt id="305">7.54801e-12</wgt>
  <wgt id="306">7.55581e-12</wgt>
  <wgt id="307">7.53996e-12</wgt>
  <wgt id="308">7.55479e-12</wgt>
  <wgt id="309">7.54353e-12</wgt>
  <wgt id="310">7.59999e-12</wgt>
  <wgt id="311">7.50002e-12</wgt>
  <wgt id="312">7.55365e-12</wgt>
  <wgt id="313">7.54283e-12</wgt>
  <wgt id="314">7.54576e-12</wgt>
  <wgt id="315">7.55044e-12</wgt>
  <wgt id="316">7.54089e-12</wgt>
  <wgt id="317">7.56393e-12</wgt>
  <wgt id="318">7.55296e-12</wgt>
  <wgt id="319">7.53991e-12</wgt>
  <wgt id="320">7.57073e-12</wgt>
  <wgt id="321">7.53546e-12</wgt>
  <wgt id="322">7.53199e-12</wgt>
  <wgt id="323">7.567e-12</wgt>
  <wgt id="324">7.52943e-12</wgt>
  <wgt id="325">7.56447e-12</wgt>
  <wgt id="326">7.52659e-12</wgt>
  <wgt id="327">7.57556e-12</wgt>
  <wgt id="328">7.51109e-12</wgt>
  <wgt id="329">7.56932e-12</wgt>
  <wgt id="330">7.76011e-12</wgt>
  <wgt id="331">7.34535e-12</wgt>
  <wgt id="332">7.5232e-12</wgt>
  <wgt id="333">7.54731e-12</wgt>
  <wgt id="334">7.39211e-12</wgt>
  <wgt id="335">7.74079e-12</wgt>
  <wgt id="336">7.30792e-12</wgt>
  <wgt id="337">7.83791e-12</wgt>
  <wgt id="338">7.62499e-12</wgt>
  <wgt id="339">7.47668e-12</wgt>
  <wgt id="340">7.59405e-12</wgt>
  <wgt id="341">7.42805e-12</wgt>
  <wgt id="342">7.53707e-12</wgt>
  <wgt id="343">7.5419e-12</wgt>
  <wgt id="344">7.49986e-12</wgt>
  <wgt id="345">7.60406e-12</wgt>
  <wgt id="346">7.41165e-12</wgt>
  <wgt id="347">7.70528e-12</wgt>
  <wgt id="348">7.55737e-12</wgt>
  <wgt id="349">7.56461e-12</wgt>
  <wgt id="350">7.52023e-12</wgt>
  <wgt id="351">7.61899e-12</wgt>
  <wgt id="352">7.46266e-12</wgt>
  <wgt id="353">7.77434e-12</wgt>
  <wgt id="354">7.47943e-12</wgt>
  <wgt id="355">7.59128e-12</wgt>
  <wgt id="356">7.50207e-12</wgt>
  <wgt id="357">7.58555e-12</wgt>
  <wgt id="358">7.54801e-12</wgt>
  <wgt id="359">7.53497e-12</wgt>
  <wgt id="360">7.53025e-12</wgt>
  <wgt id="361">7.52088e-12</wgt>
  <wgt id="362">7.63962e-12</wgt>
  <wgt id="363">7.62273e-12</wgt>
  <wgt id="364">7.60064e-12</wgt>
  <wgt id="365">7.57727e-12</wgt>
  <wgt id="366">7.55049e-12</wgt>
  <wgt id="367">7.49388e-12</wgt>
  <wgt id="368">7.46359e-12</wgt>
  <wgt id="369">7.43089e-12</wgt>
  <wgt id="370">7.52088e-12</wgt>
  <wgt id="371">7.55415e-12</wgt>
  <wgt id="372">7.53593e-12</wgt>
  <wgt id="373">7.50857e-12</wgt>
  <wgt id="374">7.50351e-12</wgt>
  <wgt id="375">7.90686e-12</wgt>
  <wgt id="376">7.90787e-12</wgt>
  <wgt id="377">7.90564e-12</wgt>
  <wgt id="378">7.935e-12</wgt>
  <wgt id="379">7.87893e-12</wgt>
  <wgt id="380">7.92835e-12</wgt>
  <wgt id="381">7.89819e-12</wgt>
  <wgt id="382">7.94505e-12</wgt>
  <wgt id="383">7.86896e-12</wgt>
  <wgt id="384">7.91203e-12</wgt>
  <wgt id="385">7.90189e-12</wgt>
  <wgt id="386">7.93633e-12</wgt>
  <wgt id="387">7.89403e-12</wgt>
  <wgt id="388">7.89979e-12</wgt>
  <wgt id="389">7.9154e-12</wgt>
  <wgt id="390">7.92713e-12</wgt>
  <wgt id="391">7.88543e-12</wgt>
  <wgt id="392">7.85443e-12</wgt>
  <wgt id="393">7.93643e-12</wgt>
  <wgt id="394">7.91824e-12</wgt>
  <wgt id="395">7.89089e-12</wgt>
  <wgt id="396">7.90818e-12</wgt>
  <wgt id="397">7.90573e-12</wgt>
  <wgt id="398">7.87417e-12</wgt>
  <wgt id="399">7.93838e-12</wgt>
  <wgt id="400">7.89461e-12</wgt>
  <wgt id="401">7.93408e-12</wgt>
  <wgt id="402">7.84852e-12</wgt>
  <wgt id="403">7.92946e-12</wgt>
  <wgt id="404">8.06999e-12</wgt>
  <wgt id="405">7.51137e-12</wgt>
  <wgt id="406">7.78931e-12</wgt>
  <wgt id="407">8.15954e-12</wgt>
  <wgt id="408">7.96714e-12</wgt>
  <wgt id="409">7.79031e-12</wgt>
  <wgt id="410">7.71263e-12</wgt>
  <wgt id="411">7.995e-12</wgt>
  <wgt id="412">7.89461e-12</wgt>
  <wgt id="413">7.9234e-12</wgt>
  <wgt id="414">7.82947e-12</wgt>
  <wgt id="415">7.96685e-12</wgt>
  <wgt id="416">8.08661e-12</wgt>
  <wgt id="417">7.65782e-12</wgt>
  <wgt id="418">7.91595e-12</wgt>
  <wgt id="419">7.85738e-12</wgt>
  <wgt id="420">7.98971e-12</wgt>
  <wgt id="421">7.86605e-12</wgt>
  <wgt id="422">7.90741e-12</wgt>
  <wgt id="423">7.90882e-12</wgt>
  <wgt id="424">8.03247e-12</wgt>
  <wgt id="425">7.83154e-12</wgt>
  <wgt id="426">7.90686e-12</wgt>
  <wgt id="427">7.85836e-12</wgt>
  <wgt id="428">8.06442e-12</wgt>
  <wgt id="429">7.96368e-12</wgt>
  <wgt id="430">8.16685e-12</wgt>
  <wgt id="431">8.12666e-12</wgt>
  <wgt id="432">8.08792e-12</wgt>
  <wgt id="433">8.05041e-12</wgt>
  <wgt id="434">8.00603e-12</wgt>
  <wgt id="435">7.91065e-12</wgt>
  <wgt id="436">7.86111e-12</wgt>
  <wgt id="437">7.81462e-12</wgt>
  <wgt id="438">7.96368e-12</wgt>
  <wgt id="439">7.98988e-12</wgt>
  <wgt id="440">7.97478e-12</wgt>
  <wgt id="441">7.95528e-12</wgt>
  <wgt id="442">7.948e-12</wgt>
  <wgt id="443">7.82234e-12</wgt>
  <wgt id="444">7.85403e-12</wgt>
  <wgt id="445">7.79056e-12</wgt>
  <wgt id="446">7.77663e-12</wgt>
  <wgt id="447">7.79486e-12</wgt>
  <wgt id="448">7.63349e-12</wgt>
  <wgt id="449">7.92927e-12</wgt>
  <wgt id="450">7.78481e-12</wgt>
  <wgt id="451">7.81235e-12</wgt>
  <wgt id="452">7.97711e-12</wgt>
  <wgt id="453">7.8806e-12</wgt>
  <wgt id="454">7.53502e-12</wgt>
  <wgt id="455">7.82958e-12</wgt>
  <wgt id="456">7.69581e-12</wgt>
  <wgt id="457">7.84951e-12</wgt>
  <wgt id="458">7.90031e-12</wgt>
  <wgt id="459">7.86763e-12</wgt>
  <wgt id="460">7.85935e-12</wgt>
  <wgt id="461">7.70466e-12</wgt>
  <wgt id="462">7.76943e-12</wgt>
  <wgt id="463">7.75187e-12</wgt>
  <wgt id="464">7.78694e-12</wgt>
  <wgt id="465">7.88937e-12</wgt>
  <wgt id="466">7.74986e-12</wgt>
  <wgt id="467">7.75892e-12</wgt>
  <wgt id="468">7.80412e-12</wgt>
  <wgt id="469">7.80497e-12</wgt>
  <wgt id="470">7.76249e-12</wgt>
  <wgt id="471">7.76633e-12</wgt>
  <wgt id="472">7.85173e-12</wgt>
  <wgt id="473">7.6119e-12</wgt>
  <wgt id="474">5.79e-12</wgt>
  <wgt id="475">6.16824e-12</wgt>
  <wgt id="476">5.67791e-12</wgt>
  <wgt id="477">5.70129e-12</wgt>
  <wgt id="478">5.82127e-12</wgt>
  <wgt id="479">5.72715e-12</wgt>
  <wgt id="480">5.95445e-12</wgt>
  <wgt id="481">5.63204e-12</wgt>
  <wgt id="482">5.54596e-12</wgt>
  <wgt id="483">5.64361e-12</wgt>
  <wgt id="484">6.23054e-12</wgt>
  <wgt id="485">5.82116e-12</wgt>
  <wgt id="486">5.86176e-12</wgt>
  <wgt id="487">5.87473e-12</wgt>
  <wgt id="488">5.85143e-12</wgt>
  <wgt id="489">5.59325e-12</wgt>
  <wgt id="490">5.62756e-12</wgt>
  <wgt id="491">5.72419e-12</wgt>
  <wgt id="492">5.60498e-12</wgt>
  <wgt id="493">5.60043e-12</wgt>
  <wgt id="494">5.61998e-12</wgt>
  <wgt id="495">5.89638e-12</wgt>
  <wgt id="496">5.5919e-12</wgt>
  <wgt id="497">5.59196e-12</wgt>
  <wgt id="498">5.84644e-12</wgt>
  <wgt id="499">5.63668e-12</wgt>
  <wgt id="500">5.68955e-12</wgt>
  <wgt id="501">6.03126e-12</wgt>
  <wgt id="502">5.62156e-12</wgt>
  <wgt id="503">5.76476e-12</wgt>
  <wgt id="504">5.77922e-12</wgt>
  <wgt id="505">5.91763e-12</wgt>
  <wgt id="506">5.86193e-12</wgt>
  <wgt id="507">5.71649e-12</wgt>
  <wgt id="508">5.87418e-12</wgt>
  <wgt id="509">5.79862e-12</wgt>
  <wgt id="510">5.91741e-12</wgt>
  <wgt id="511">5.67053e-12</wgt>
  <wgt id="512">5.84398e-12</wgt>
  <wgt id="513">5.98803e-12</wgt>
  <wgt id="514">5.73285e-12</wgt>
  <wgt id="515">5.71603e-12</wgt>
  <wgt id="516">5.92537e-12</wgt>
  <wgt id="517">5.91746e-12</wgt>
  <wgt id="518">5.94026e-12</wgt>
  <wgt id="519">5.66386e-12</wgt>
  <wgt id="520">5.80312e-12</wgt>
  <wgt id="521">6.00413e-12</wgt>
  <wgt id="522">5.99917e-12</wgt>
  <wgt id="523">5.91534e-12</wgt>
  <wgt id="524">5.91916e-12</wgt>
  <wgt id="525">5.92187e-12</wgt>
  <wgt id="526">5.77158e-12</wgt>
  <wgt id="527">5.90237e-12</wgt>
  <wgt id="528">5.77685e-12</wgt>
  <wgt id="529">5.72215e-12</wgt>
  <wgt id="530">5.80781e-12</wgt>
  <wgt id="531">5.71598e-12</wgt>
  <wgt id="532">6.07815e-12</wgt>
  <wgt id="533">5.43772e-12</wgt>
  <wgt id="534">5.79598e-12</wgt>
  <wgt id="535">5.8911e-12</wgt>
  <wgt id="536">5.81144e-12</wgt>
  <wgt id="537">5.81151e-12</wgt>
  <wgt id="538">5.89412e-12</wgt>
  <wgt id="539">5.65369e-12</wgt>
  <wgt id="540">5.74034e-12</wgt>
  <wgt id="541">5.71615e-12</wgt>
  <wgt id="542">5.65241e-12</wgt>
  <wgt id="543">5.77903e-12</wgt>
  <wgt id="544">6.06862e-12</wgt>
  <wgt id="545">5.71621e-12</wgt>
  <wgt id="546">5.74356e-12</wgt>
  <wgt id="547">5.61617e-12</wgt>
  <wgt id="548">5.55571e-12</wgt>
  <wgt id="549">5.70468e-12</wgt>
  <wgt id="550">5.84383e-12</wgt>
  <wgt id="551">5.85849e-12</wgt>
  <wgt id="552">5.74692e-12</wgt>
  <wgt id="553">5.77924e-12</wgt>
  <wgt id="554">6.22269e-12</wgt>
  <wgt id="555">5.95108e-12</wgt>
  <wgt id="556">5.62756e-12</wgt>
  <wgt id="557">5.86782e-12</wgt>
  <wgt id="558">5.59791e-12</wgt>
  <wgt id="559">5.72807e-12</wgt>
  <wgt id="560">6.22932e-12</wgt>
  <wgt id="561">5.64665e-12</wgt>
  <wgt id="562">5.85161e-12</wgt>
  <wgt id="563">5.64264e-12</wgt>
  <wgt id="564">5.77113e-12</wgt>
  <wgt id="565">5.60889e-12</wgt>
  <wgt id="566">5.83971e-12</wgt>
  <wgt id="567">5.69593e-12</wgt>
  <wgt id="568">5.79832e-12</wgt>
  <wgt id="569">5.82454e-12</wgt>
  <wgt id="570">5.67127e-12</wgt>
  <wgt id="571">6.39461e-12</wgt>
  <wgt id="572">5.66177e-12</wgt>
  <wgt id="573">5.52808e-12</wgt>
  <wgt id="574">5.58595e-12</wgt>
  <wgt id="575">6.33215e-12</wgt>
  <wgt id="576">6.21088e-12</wgt>
  <wgt id="577">6.56629e-12</wgt>
  <wgt id="578">6.43095e-12</wgt>
  <wgt id="579">6.37494e-12</wgt>
  <wgt id="580">6.41124e-12</wgt>
  <wgt id="581">6.68544e-12</wgt>
  <wgt id="582">6.18984e-12</wgt>
  <wgt id="583">6.39112e-12</wgt>
  <wgt id="584">6.33834e-12</wgt>
  <wgt id="585">6.39372e-12</wgt>
  <wgt id="586">6.19229e-12</wgt>
  <wgt id="587">6.39574e-12</wgt>
  <wgt id="588">6.28652e-12</wgt>
  <wgt id="589">6.38351e-12</wgt>
  <wgt id="590">6.43505e-12</wgt>
  <wgt id="591">6.58466e-12</wgt>
  <wgt id="592">6.23962e-12</wgt>
  <wgt id="593">6.30231e-12</wgt>
  <wgt id="594">6.6048e-12</wgt>
  <wgt id="595">6.27813e-12</wgt>
  <wgt id="596">6.42202e-12</wgt>
  <wgt id="597">6.0855e-12</wgt>
  <wgt id="598">6.30985e-12</wgt>
  <wgt id="599">6.65699e-12</wgt>
  <wgt id="600">6.26667e-12</wgt>
  <wgt id="601">6.15204e-12</wgt>
  <wgt id="602">6.22933e-12</wgt>
  <wgt id="603">6.26238e-12</wgt>
  <wgt id="604">6.40829e-12</wgt>
  <wgt id="605">6.58768e-12</wgt>
  <wgt id="606">6.1615e-12</wgt>
  <wgt id="607">6.23517e-12</wgt>
  <wgt id="608">6.28897e-12</wgt>
  <wgt id="609">5.95048e-12</wgt>
  <wgt id="610">6.08392e-12</wgt>
  <wgt id="611">6.44931e-12</wgt>
  <wgt id="612">6.80971e-12</wgt>
  <wgt id="613">6.34738e-12</wgt>
  <wgt id="614">6.41232e-12</wgt>
  <wgt id="615">6.20201e-12</wgt>
  <wgt id="616">6.76714e-12</wgt>
  <wgt id="617">6.55542e-12</wgt>
  <wgt id="618">6.26698e-12</wgt>
  <wgt id="619">6.30691e-12</wgt>
  <wgt id="620">6.53334e-12</wgt>
  <wgt id="621">6.43315e-12</wgt>
  <wgt id="622">6.39574e-12</wgt>
  <wgt id="623">6.48699e-12</wgt>
  <wgt id="624">6.28611e-12</wgt>
  <wgt id="625">6.2642e-12</wgt>
  <wgt id="626">6.21044e-12</wgt>
  <wgt id="627">6.12003e-12</wgt>
  <wgt id="628">6.68095e-12</wgt>
  <wgt id="629">6.1958e-12</wgt>
  <wgt id="630">6.18297e-12</wgt>
  <wgt id="631">6.32493e-12</wgt>
  <wgt id="632">6.17276e-12</wgt>
  <wgt id="633">6.24635e-12</wgt>
  <wgt id="634">6.38266e-12</wgt>
  <wgt id="635">6.30742e-12</wgt>
  <wgt id="636">6.36623e-12</wgt>
  <wgt id="637">6.35875e-12</wgt>
  <wgt id="638">6.11757e-12</wgt>
  <wgt id="639">6.27092e-12</wgt>
  <wgt id="640">6.34935e-12</wgt>
  <wgt id="641">6.3296e-12</wgt>
  <wgt id="642">6.27791e-12</wgt>
  <wgt id="643">6.31463e-12</wgt>
  <wgt id="644">6.15083e-12</wgt>
  <wgt id="645">6.36493e-12</wgt>
  <wgt id="646">6.47834e-12</wgt>
  <wgt id="647">6.22173e-12</wgt>
  <wgt id="648">6.34903e-12</wgt>
  <wgt id="649">6.43006e-12</wgt>
  <wgt id="650">6.22355e-12</wgt>
  <wgt id="651">6.39766e-12</wgt>
  <wgt id="652">6.33354e-12</wgt>
  <wgt id="653">6.17432e-12</wgt>
  <wgt id="654">6.31712e-12</wgt>
  <wgt id="655">6.18723e-12</wgt>
  <wgt id="656">6.31709e-12</wgt>
  <wgt id="657">6.43605e-12</wgt>
  <wgt id="658">6.46336e-12</wgt>
  <wgt id="659">6.11526e-12</wgt>
  <wgt id="660">6.45188e-12</wgt>
  <wgt id="661">6.24226e-12</wgt>
  <wgt id="662">6.30086e-12</wgt>
  <wgt id="663">6.30587e-12</wgt>
  <wgt id="664">6.22429e-12</wgt>
  <wgt id="665">6.30499e-12</wgt>
  <wgt id="666">6.32648e-12</wgt>
  <wgt id="667">6.5236e-12</wgt>
  <wgt id="668">6.29227e-12</wgt>
  <wgt id="669">6.48877e-12</wgt>
  <wgt id="670">6.38893e-12</wgt>
  <wgt id="671">6.2184e-12</wgt>
  <wgt id="672">6.06801e-12</wgt>
  <wgt id="673">6.29369e-12</wgt>
  <wgt id="674">6.20396e-12</wgt>
  <wgt id="675">6.18569e-12</wgt>
  <wgt id="676">7.83581e-12</wgt>
  <wgt id="677">7.94903e-12</wgt>
  <wgt id="678">8.17749e-12</wgt>
  <wgt id="679">7.48456e-12</wgt>
  <wgt id="680">7.54317e-12</wgt>
  <wgt id="681">8.08e-12</wgt>
  <wgt id="682">7.92769e-12</wgt>
  <wgt id="683">7.78799e-12</wgt>
  <wgt id="684">8.16934e-12</wgt>
  <wgt id="685">7.41913e-12</wgt>
  <wgt id="686">7.9152e-12</wgt>
  <wgt id="687">8.17281e-12</wgt>
  <wgt id="688">7.80166e-12</wgt>
  <wgt id="689">8.38295e-12</wgt>
  <wgt id="690">8.28824e-12</wgt>
  <wgt id="691">8.2498e-12</wgt>
  <wgt id="692">7.82077e-12</wgt>
  <wgt id="693">8.94952e-12</wgt>
  <wgt id="694">8.25963e-12</wgt>
  <wgt id="695">7.58137e-12</wgt>
  <wgt id="696">7.47069e-12</wgt>
  <wgt id="697">7.60342e-12</wgt>
  <wgt id="698">7.4088e-12</wgt>
  <wgt id="699">7.31265e-12</wgt>
  <wgt id="700">7.01495e-12</wgt>
  <wgt id="701">7.85206e-12</wgt>
  <wgt id="702">7.4778e-12</wgt>
  <wgt id="703">8.82143e-12</wgt>
  <wgt id="704">8.36793e-12</wgt>
  <wgt id="705">8.09102e-12</wgt>
  <wgt id="706">7.31802e-12</wgt>
  <wgt id="707">7.55099e-12</wgt>
  <wgt id="708">7.75141e-12</wgt>
  <wgt id="709">7.71449e-12</wgt>
  <wgt id="710">7.03346e-12</wgt>
  <wgt id="711">7.83949e-12</wgt>
  <wgt id="712">7.75398e-12</wgt>
  <wgt id="713">8.34117e-12</wgt>
  <wgt id="714">7.83477e-12</wgt>
  <wgt id="715">7.75987e-12</wgt>
  <wgt id="716">7.56155e-12</wgt>
  <wgt id="717">7.56338e-12</wgt>
  <wgt id="718">7.66958e-12</wgt>
  <wgt id="719">7.20178e-12</wgt>
  <wgt id="720">7.44109e-12</wgt>
  <wgt id="721">7.50589e-12</wgt>
  <wgt id="722">7.14956e-12</wgt>
  <wgt id="723">8.24896e-12</wgt>
  <wgt id="724">8.12213e-12</wgt>
  <wgt id="725">8.28169e-12</wgt>
  <wgt id="726">7.92973e-12</wgt>
  <wgt id="727">7.65912e-12</wgt>
  <wgt id="728">7.78824e-12</wgt>
  <wgt id="729">7.09941e-12</wgt>
  <wgt id="730">8.29009e-12</wgt>
  <wgt id="731">7.77132e-12</wgt>
  <wgt id="732">8.50255e-12</wgt>
  <wgt id="733">7.84513e-12</wgt>
  <wgt id="734">8.0145e-12</wgt>
  <wgt id="735">7.78271e-12</wgt>
  <wgt id="736">7.75633e-12</wgt>
  <wgt id="737">7.96753e-12</wgt>
  <wgt id="738">7.56166e-12</wgt>
  <wgt id="739">7.77715e-12</wgt>
  <wgt id="740">8.62727e-12</wgt>
  <wgt id="741">6.98391e-12</wgt>
  <wgt id="742">7.72344e-12</wgt>
  <wgt id="743">7.64011e-12</wgt>
  <wgt id="744">7.68694e-12</wgt>
  <wgt id="745">8.10451e-12</wgt>
  <wgt id="746">8.18763e-12</wgt>
  <wgt id="747">7.28791e-12</wgt>
  <wgt id="748">7.70488e-12</wgt>
  <wgt id="749">8.28174e-12</wgt>
  <wgt id="750">7.71429e-12</wgt>
  <wgt id="751">8.13138e-12</wgt>
  <wgt id="752">7.26982e-12</wgt>
  <wgt id="753">7.49119e-12</wgt>
  <wgt id="754">8.03528e-12</wgt>
  <wgt id="755">7.89422e-12</wgt>
  <wgt id="756">7.88125e-12</wgt>
  <wgt id="757">7.3262e-12</wgt>
  <wgt id="758">7.95115e-12</wgt>
  <wgt id="759">7.74569e-12</wgt>
  <wgt id="760">7.99847e-12</wgt>
  <wgt id="761">8.24018e-12</wgt>
  <wgt id="762">8.23214e-12</wgt>
  <wgt id="763">7.86677e-12</wgt>
  <wgt id="764">8.09603e-12</wgt>
  <wgt id="765">7.89475e-12</wgt>
  <wgt id="766">7.80333e-12</wgt>
  <wgt id="767">8.00678e-12</wgt>
  <wgt id="768">7.48205e-12</wgt>
  <wgt id="769">8.26325e-12</wgt>
  <wgt id="770">7.61168e-12</wgt>
  <wgt id="771">9.10869e-12</wgt>
  <wgt id="772">7.37732e-12</wgt>
  <wgt id="773">7.81523e-12</wgt>
  <wgt id="774">7.14805e-12</wgt>
  <wgt id="775">8.17484e-12</wgt>
  <wgt id="776">8.5478e-12</wgt>
  <wgt id="777">7.64881e-12</wgt>
  <wgt id="778">5.93328e-12</wgt>
  <wgt id="779">5.13432e-12</wgt>
  <wgt id="780">4.4182e-12</wgt>
  <wgt id="781">5.86408e-12</wgt>
  <wgt id="782">6.2736e-12</wgt>
  <wgt id="783">5.24526e-12</wgt>
  <wgt id="784">5.33661e-12</wgt>
  <wgt id="785">7.03862e-12</wgt>
  <wgt id="786">4.69055e-12</wgt>
  <wgt id="787">6.57031e-12</wgt>
  <wgt id="788">4.10801e-12</wgt>
  <wgt id="789">4.8097e-12</wgt>
  <wgt id="790">4.69381e-12</wgt>
  <wgt id="791">5.48261e-12</wgt>
  <wgt id="792">7.46552e-12</wgt>
  <wgt id="793">5.70665e-12</wgt>
  <wgt id="794">4.81597e-12</wgt>
  <wgt id="795">6.67889e-12</wgt>
  <wgt id="796">7.62876e-12</wgt>
  <wgt id="797">6.65948e-12</wgt>
  <wgt id="798">5.59297e-12</wgt>
  <wgt id="799">6.61674e-12</wgt>
  <wgt id="800">4.87856e-12</wgt>
  <wgt id="801">5.64339e-12</wgt>
  <wgt id="802">4.86597e-12</wgt>
  <wgt id="803">7.66041e-12</wgt>
  <wgt id="804">6.6386e-12</wgt>
  <wgt id="805">6.77264e-12</wgt>
  <wgt id="806">6.72054e-12</wgt>
  <wgt id="807">5.72117e-12</wgt>
  <wgt id="808">5.81666e-12</wgt>
  <wgt id="809">5.49135e-12</wgt>
  <wgt id="810">6.78249e-12</wgt>
  <wgt id="811">6.41745e-12</wgt>
  <wgt id="812">4.77447e-12</wgt>
  <wgt id="813">4.81973e-12</wgt>
  <wgt id="814">5.03952e-12</wgt>
  <wgt id="815">5.15495e-12</wgt>
  <wgt id="816">4.5976e-12</wgt>
  <wgt id="817">6.26313e-12</wgt>
  <wgt id="818">5.7216e-12</wgt>
  <wgt id="819">5.15849e-12</wgt>
  <wgt id="820">5.96576e-12</wgt>
  <wgt id="821">6.6615e-12</wgt>
  <wgt id="822">5.21558e-12</wgt>
  <wgt id="823">6.65647e-12</wgt>
  <wgt id="824">7.81342e-12</wgt>
  <wgt id="825">4.63292e-12</wgt>
  <wgt id="826">6.09796e-12</wgt>
  <wgt id="827">3.93526e-12</wgt>
  <wgt id="828">7.57218e-12</wgt>
  <wgt id="829">6.09698e-12</wgt>
  <wgt id="830">4.41165e-12</wgt>
  <wgt id="831">6.28225e-12</wgt>
  <wgt id="832">9.3482e-12</wgt>
  <wgt id="833">5.68172e-12</wgt>
  <wgt id="834">8.75266e-12</wgt>
  <wgt id="835">4.90502e-12</wgt>
  <wgt id="836">6.01412e-12</wgt>
  <wgt id="837">6.58065e-12</wgt>
  <wgt id="838">5.72522e-12</wgt>
  <wgt id="839">6.26024e-12</wgt>
  <wgt id="840">5.67818e-12</wgt>
  <wgt id="841">7.00233e-12</wgt>
  <wgt id="842">5.49219e-12</wgt>
  <wgt id="843">5.73481e-12</wgt>
  <wgt id="844">6.10444e-12</wgt>
  <wgt id="845">7.84669e-12</wgt>
  <wgt id="846">5.45721e-12</wgt>
  <wgt id="847">5.82418e-12</wgt>
  <wgt id="848">5.35509e-12</wgt>
  <wgt id="849">6.04949e-12</wgt>
  <wgt id="850">7.41253e-12</wgt>
  <wgt id="851">6.42059e-12</wgt>
  <wgt id="852">5.29837e-12</wgt>
  <wgt id="853">6.36969e-12</wgt>
  <wgt id="854">7.03079e-12</wgt>
  <wgt id="855">6.6576e-12</wgt>
  <wgt id="856">4.52425e-12</wgt>
  <wgt id="857">6.02705e-12</wgt>
  <wgt id="858">5.91098e-12</wgt>
  <wgt id="859">5.54825e-12</wgt>
  <wgt id="860">6.17053e-12</wgt>
  <wgt id="861">5.40953e-12</wgt>
  <wgt id="862">6.02063e-12</wgt>
  <wgt id="863">6.15841e-12</wgt>
  <wgt id="864">6.20062e-12</wgt>
  <wgt id="865">8.1292e-12</wgt>
  <wgt id="866">8.88177e-12</wgt>
  <wgt id="867">5.95466e-12</wgt>
  <wgt id="868">5.8223e-12</wgt>
  <wgt id="869">4.80796e-12</wgt>
  <wgt id="870">5.05181e-12</wgt>
  <wgt id="871">4.91934e-12</wgt>
  <wgt id="872">6.80921e-12</wgt>
  <wgt id="873">5.00422e-12</wgt>
  <wgt id="874">6.14663e-12</wgt>
  <wgt id="875">5.22663e-12</wgt>
  <wgt id="876">6.82569e-12</wgt>
  <wgt id="877">6.62692e-12</wgt>
  <wgt id="878">5.29793e-12</wgt>
  <wgt id="879">7.83581e-12</wgt>
  <wgt id="880">7.94903e-12</wgt>
  <wgt id="881">8.17749e-12</wgt>
  <wgt id="882">7.48456e-12</wgt>
  <wgt id="883">7.54317e-12</wgt>
  <wgt id="884">8.08e-12</wgt>
  <wgt id="885">7.92769e-12</wgt>
  <wgt id="886">7.78799e-12</wgt>
  <wgt id="887">8.16934e-12</wgt>
  <wgt id="888">7.41913e-12</wgt>
  <wgt id="889">7.9152e-12</wgt>
  <wgt id="890">8.17281e-12</wgt>
  <wgt id="891">7.80166e-12</wgt>
  <wgt id="892">8.38295e-12</wgt>
  <wgt id="893">8.28824e-12</wgt>
  <wgt id="894">8.2498e-12</wgt>
  <wgt id="895">7.82077e-12</wgt>
  <wgt id="896">8.94952e-12</wgt>
  <wgt id="897">8.25963e-12</wgt>
  <wgt id="898">7.58137e-12</wgt>
  <wgt id="899">7.47069e-12</wgt>
  <wgt id="900">7.60342e-12</wgt>
  <wgt id="901">7.4088e-12</wgt>
  <wgt id="902">7.31265e-12</wgt>
  <wgt id="903">7.01495e-12</wgt>
  <wgt id="904">7.85206e-12</wgt>
  <wgt id="905">7.4778e-12</wgt>
  <wgt id="906">8.82143e-12</wgt>
  <wgt id="907">8.36793e-12</wgt>
  <wgt id="908">8.09102e-12</wgt>
  <wgt id="909">7.31802e-12</wgt>
  <wgt id="910">7.55099e-12</wgt>
  <wgt id="911">7.75141e-12</wgt>
  <wgt id="912">7.71449e-12</wgt>
  <wgt id="913">7.03346e-12</wgt>
  <wgt id="914">7.83949e-12</wgt>
  <wgt id="915">7.75398e-12</wgt>
  <wgt id="916">8.34117e-12</wgt>
  <wgt id="917">7.83477e-12</wgt>
  <wgt id="918">7.75987e-12</wgt>
  <wgt id="919">7.56155e-12</wgt>
  <wgt id="920">7.56338e-12</wgt>
  <wgt id="921">7.66958e-12</wgt>
  <wgt id="922">7.20178e-12</wgt>
  <wgt id="923">7.44109e-12</wgt>
  <wgt id="924">7.50589e-12</wgt>
  <wgt id="925">7.14956e-12</wgt>
  <wgt id="926">8.24896e-12</wgt>
  <wgt id="927">8.12213e-12</wgt>
  <wgt id="928">8.28169e-12</wgt>
  <wgt id="929">7.92973e-12</wgt>
  <wgt id="930">7.65912e-12</wgt>
  <wgt id="931">7.78824e-12</wgt>
  <wgt id="932">7.09941e-12</wgt>
  <wgt id="933">8.29009e-12</wgt>
  <wgt id="934">7.77132e-12</wgt>
  <wgt id="935">8.50255e-12</wgt>
  <wgt id="936">7.84513e-12</wgt>
  <wgt id="937">8.0145e-12</wgt>
  <wgt id="938">7.78271e-12</wgt>
  <wgt id="939">7.75633e-12</wgt>
  <wgt id="940">7.96753e-12</wgt>
  <wgt id="941">7.56166e-12</wgt>
  <wgt id="942">7.77715e-12</wgt>
  <wgt id="943">8.62727e-12</wgt>
  <wgt id="944">6.98391e-12</wgt>
  <wgt id="945">7.72344e-12</wgt>
  <wgt id="946">7.64011e-12</wgt>
  <wgt id="947">7.68694e-12</wgt>
  <wgt id="948">8.10451e-12</wgt>
  <wgt id="949">8.18763e-12</wgt>
  <wgt id="950">7.28791e-12</wgt>
  <wgt id="951">7.70488e-12</wgt>
  <wgt id="952">8.28174e-12</wgt>
  <wgt id="953">7.71429e-12</wgt>
  <wgt id="954">8.13138e-12</wgt>
  <wgt id="955">7.26982e-12</wgt>
  <wgt id="956">7.49119e-12</wgt>
  <wgt id="957">8.03528e-12</wgt>
  <wgt id="958">7.89422e-12</wgt>
  <wgt id="959">7.88125e-12</wgt>
  <wgt id="960">7.3262e-12</wgt>
  <wgt id="961">7.95115e-12</wgt>
  <wgt id="962">7.74569e-12</wgt>
  <wgt id="963">7.99847e-12</wgt>
  <wgt id="964">8.24018e-12</wgt>
  <wgt id="965">8.23214e-12</wgt>
  <wgt id="966">7.86677e-12</wgt>
  <wgt id="967">8.09603e-12</wgt>
  <wgt id="968">7.89475e-12</wgt>
  <wgt id="969">7.80333e-12</wgt>
  <wgt id="970">8.00678e-12</wgt>
  <wgt id="971">7.48205e-12</wgt>
  <wgt id="972">8.26325e-12</wgt>
  <wgt id="973">7.61168e-12</wgt>
  <wgt id="974">9.10869e-12</wgt>
  <wgt id="975">7.37732e-12</wgt>
  <wgt id="976">7.81523e-12</wgt>
  <wgt id="977">7.14805e-12</wgt>
  <wgt id="978">8.17484e-12</wgt>
  <wgt id="979">8.5478e-12</wgt>
  <wgt id="980">7.8566e-12</wgt>
  <wgt id="981">7.85761e-12</wgt>
  <wgt id="982">7.62532e-12</wgt>
</rwgt>
</event>
<event>
 5   1  0.5790000E-11  0.2134958E+04  0.7818608E-02  0.7773822E-01
       21   -1    0    0  502  501  0.00000000000E+00  0.00000000000E+00  0.78499664070E+03  0.78499664070E+03  0.00000000000E+00 0.  1.
       21   -1    0    0  501  502 -0.00000000000E+00 -0.00000000000E+00 -0.14516126674E+04  0.14516126674E+04  0.00000000000E+00 0. -1.
       39    2    1    2    0    0  0.00000000000E+00  0.00000000000E+00 -0.66661602670E+03  0.22366093081E+04  0.21349576741E+04 0.  0.
       25    1    3    3    0    0  0.64135325437E+03 -0.76178169746E+03  0.47655562542E+02  0.10047593762E+04  0.12500000000E+03 0.  0.
       25    1    3    3    0    0 -0.64135325437E+03  0.76178169746E+03 -0.71427158924E+03  0.12318499319E+04  0.12500000000E+03 0.  0.
<mgrwt>
<rscale>  0 0.21349577E+04</rscale>
<asrwt>0</asrwt>
<pdfrwt beam="1">  1       21 0.12076871E+00 0.21349577E+04</pdfrwt>
<pdfrwt beam="2">  1       21 0.22332503E+00 0.21349577E+04</pdfrwt>
<totfact> 0.20306923E+01</totfact>
</mgrwt>
<rwgt>
  <wgt id="1">5.79e-12</wgt>
  <wgt id="2">5.05706e-12</wgt>
  <wgt id="3">6.69644e-12</wgt>
  <wgt id="4">5.79e-12</wgt>
  <wgt id="5">5.05706e-12</wgt>
  <wgt id="6">6.69644e-12</wgt>
  <wgt id="7">5.79e-12</wgt>
  <wgt id="8">5.05706e-12</wgt>
  <wgt id="9">6.69644e-12</wgt>
  <wgt id="10">5.96804e-12</wgt>
  <wgt id="11">5.96369e-12</wgt>
  <wgt id="12">5.95833e-12</wgt>
  <wgt id="13">5.94899e-12</wgt>
  <wgt id="14">5.98944e-12</wgt>
  <wgt id="15">5.97773e-12</wgt>
  <wgt id="16">5.95804e-12</wgt>
  <wgt id="17">5.98304e-12</wgt>
  <wgt id="18">5.9596e-12</wgt>
  <wgt id="19">5.98006e-12</wgt>
  <wgt id="20">5.95289e-12</wgt>
  <wgt id="21">5.93038e-12</wgt>
  <wgt id="22">5.94278e-12</wgt>
  <wgt id="23">5.91153e-12</wgt>
  <wgt id="24">5.93784e-12</wgt>
  <wgt id="25">5.95256e-12</wgt>
  <wgt id="26">5.98865e-12</wgt>
  <wgt id="27">5.96573e-12</wgt>
  <wgt id="28">5.93864e-12</wgt>
  <wgt id="29">5.97263e-12</wgt>
  <wgt id="30">5.94483e-12</wgt>
  <wgt id="31">5.98794e-12</wgt>
  <wgt id="32">5.95107e-12</wgt>
  <wgt id="33">5.97976e-12</wgt>
  <wgt id="34">5.94631e-12</wgt>
  <wgt id="35">5.95609e-12</wgt>
  <wgt id="36">5.98443e-12</wgt>
  <wgt id="37">5.95243e-12</wgt>
  <wgt id="38">5.95244e-12</wgt>
  <wgt id="39">6.03569e-12</wgt>
  <wgt id="40">5.97777e-12</wgt>
  <wgt id="41">5.96595e-12</wgt>
  <wgt id="42">5.98116e-12</wgt>
  <wgt id="43">5.96937e-12</wgt>
  <wgt id="44">5.95648e-12</wgt>
  <wgt id="45">5.97736e-12</wgt>
  <wgt id="46">5.97053e-12</wgt>
  <wgt id="47">5.95714e-12</wgt>
  <wgt id="48">5.96788e-12</wgt>
  <wgt id="49">5.96988e-12</wgt>
  <wgt id="50">5.9853e-12</wgt>
  <wgt id="51">5.98042e-12</wgt>
  <wgt id="52">5.96372e-12</wgt>
  <wgt id="53">5.93865e-12</wgt>
  <wgt id="54">5.96157e-12</wgt>
  <wgt id="55">5.96681e-12</wgt>
  <wgt id="56">5.99134e-12</wgt>
  <wgt id="57">5.98509e-12</wgt>
  <wgt id="58">5.93712e-12</wgt>
  <wgt id="59">5.95187e-12</wgt>
  <wgt id="60">5.97367e-12</wgt>
  <wgt id="61">5.94759e-12</wgt>
  <wgt id="62">5.95655e-12</wgt>
  <wgt id="63">5.9661e-12</wgt>
  <wgt id="64">5.97276e-12</wgt>
  <wgt id="65">5.97681e-12</wgt>
  <wgt id="66">5.96105e-12</wgt>
  <wgt id="67">5.94759e-12</wgt>
  <wgt id="68">5.96419e-12</wgt>
  <wgt id="69">5.96927e-12</wgt>
  <wgt id="70">5.96822e-12</wgt>
  <wgt id="71">5.96707e-12</wgt>
  <wgt id="72">5.9578e-12</wgt>
  <wgt id="73">5.97164e-12</wgt>
  <wgt id="74">5.96972e-12</wgt>
  <wgt id="75">5.96102e-12</wgt>
  <wgt id="76">5.98023e-12</wgt>
  <wgt id="77">5.96678e-12</wgt>
  <wgt id="78">5.96876e-12</wgt>
  <wgt id="79">5.98053e-12</wgt>
  <wgt id="80">5.94737e-12</wgt>
  <wgt id="81">5.9626e-12</wgt>
  <wgt id="82">5.9681e-12</wgt>
  <wgt id="83">5.94776e-12</wgt>
  <wgt id="84">5.96034e-12</wgt>
  <wgt id="85">5.95554e-12</wgt>
  <wgt id="86">5.9844e-12</wgt>
  <wgt id="87">5.93899e-12</wgt>
  <wgt id="88">5.97375e-12</wgt>
  <wgt id="89">5.97307e-12</wgt>
  <wgt id="90">5.97893e-12</wgt>
  <wgt id="91">5.97371e-12</wgt>
  <wgt id="92">5.97894e-12</wgt>
  <wgt id="93">5.96971e-12</wgt>
  <wgt id="94">5.96301e-12</wgt>
  <wgt id="95">5.97471e-12</wgt>
  <wgt id="96">5.97155e-12</wgt>
  <wgt id="97">5.9585e-12</wgt>
  <wgt id="98">5.97032e-12</wgt>
  <wgt id="99">5.96087e-12</wgt>
  <wgt id="100">5.97265e-12</wgt>
  <wgt id="101">5.96827e-12</wgt>
  <wgt id="102">5.96332e-12</wgt>
  <wgt id="103">5.97528e-12</wgt>
  <wgt id="104">5.96617e-12</wgt>
  <wgt id="105">5.97552e-12</wgt>
  <wgt id="106">5.95985e-12</wgt>
  <wgt id="107">5.98333e-12</wgt>
  <wgt id="108">5.96265e-12</wgt>
  <wgt id="109">5.96761e-12</wgt>
  <wgt id="110">5.96875e-12</wgt>
  <wgt id="111">6.02561e-12</wgt>
  <wgt id="112">5.97274e-12</wgt>
  <wgt id="113">7.92633e-12</wgt>
  <wgt id="114">8.12285e-12</wgt>
  <wgt id="115">8.00223e-12</wgt>
  <wgt id="116">1.08448e-11</wgt>
  <wgt id="117">6.55901e-12</wgt>
  <wgt id="118">6.57996e-12</wgt>
  <wgt id="119">6.54688e-12</wgt>
  <wgt id="120">6.55977e-12</wgt>
  <wgt id="121">6.55872e-12</wgt>
  <wgt id="122">6.54718e-12</wgt>
  <wgt id="123">6.57498e-12</wgt>
  <wgt id="124">6.54941e-12</wgt>
  <wgt id="125">6.56494e-12</wgt>
  <wgt id="126">6.56926e-12</wgt>
  <wgt id="127">6.55205e-12</wgt>
  <wgt id="128">6.57945e-12</wgt>
  <wgt id="129">6.53878e-12</wgt>
  <wgt id="130">6.59563e-12</wgt>
  <wgt id="131">6.52152e-12</wgt>
  <wgt id="132">6.39338e-12</wgt>
  <wgt id="133">6.75397e-12</wgt>
  <wgt id="134">6.49201e-12</wgt>
  <wgt id="135">6.61133e-12</wgt>
  <wgt id="136">6.6392e-12</wgt>
  <wgt id="137">6.46163e-12</wgt>
  <wgt id="138">6.80214e-12</wgt>
  <wgt id="139">6.32332e-12</wgt>
  <wgt id="140">6.51571e-12</wgt>
  <wgt id="141">6.59262e-12</wgt>
  <wgt id="142">6.55962e-12</wgt>
  <wgt id="143">6.56835e-12</wgt>
  <wgt id="144">6.39038e-12</wgt>
  <wgt id="145">6.71411e-12</wgt>
  <wgt id="146">6.61173e-12</wgt>
  <wgt id="147">6.51726e-12</wgt>
  <wgt id="148">6.57816e-12</wgt>
  <wgt id="149">6.55754e-12</wgt>
  <wgt id="150">6.61371e-12</wgt>
  <wgt id="151">6.53353e-12</wgt>
  <wgt id="152">6.56151e-12</wgt>
  <wgt id="153">6.55803e-12</wgt>
  <wgt id="154">6.612e-12</wgt>
  <wgt id="155">6.4952e-12</wgt>
  <wgt id="156">6.67566e-12</wgt>
  <wgt id="157">6.43213e-12</wgt>
  <wgt id="158">7.89344e-12</wgt>
  <wgt id="159">7.92648e-12</wgt>
  <wgt id="160">7.86699e-12</wgt>
  <wgt id="161">7.87544e-12</wgt>
  <wgt id="162">7.91392e-12</wgt>
  <wgt id="163">7.88551e-12</wgt>
  <wgt id="164">7.90522e-12</wgt>
  <wgt id="165">7.89679e-12</wgt>
  <wgt id="166">7.891e-12</wgt>
  <wgt id="167">7.88757e-12</wgt>
  <wgt id="168">7.9018e-12</wgt>
  <wgt id="169">7.85937e-12</wgt>
  <wgt id="170">7.91454e-12</wgt>
  <wgt id="171">7.88578e-12</wgt>
  <wgt id="172">7.90414e-12</wgt>
  <wgt id="173">7.89287e-12</wgt>
  <wgt id="174">7.89365e-12</wgt>
  <wgt id="175">7.68224e-12</wgt>
  <wgt id="176">8.16822e-12</wgt>
  <wgt id="177">7.93201e-12</wgt>
  <wgt id="178">7.85797e-12</wgt>
  <wgt id="179">8.20844e-12</wgt>
  <wgt id="180">7.39505e-12</wgt>
  <wgt id="181">7.67453e-12</wgt>
  <wgt id="182">8.03772e-12</wgt>
  <wgt id="183">7.75955e-12</wgt>
  <wgt id="184">7.95971e-12</wgt>
  <wgt id="185">7.83025e-12</wgt>
  <wgt id="186">7.96799e-12</wgt>
  <wgt id="187">7.82309e-12</wgt>
  <wgt id="188">8.01901e-12</wgt>
  <wgt id="189">7.84505e-12</wgt>
  <wgt id="190">7.91312e-12</wgt>
  <wgt id="191">7.91407e-12</wgt>
  <wgt id="192">7.88112e-12</wgt>
  <wgt id="193">7.99921e-12</wgt>
  <wgt id="194">7.84098e-12</wgt>
  <wgt id="195">7.72486e-12</wgt>
  <wgt id="196">8.2059e-12</wgt>
  <wgt id="197">7.93071e-12</wgt>
  <wgt id="198">7.88461e-12</wgt>
  <wgt id="199">7.89344e-12</wgt>
  <wgt id="200">7.95852e-12</wgt>
  <wgt id="201">7.93484e-12</wgt>
  <wgt id="202">7.91162e-12</wgt>
  <wgt id="203">7.8769e-12</wgt>
  <wgt id="204">7.86054e-12</wgt>
  <wgt id="205">7.84681e-12</wgt>
  <wgt id="206">7.69982e-12</wgt>
  <wgt id="207">7.74425e-12</wgt>
  <wgt id="208">7.65615e-12</wgt>
  <wgt id="209">7.72052e-12</wgt>
  <wgt id="210">7.68533e-12</wgt>
  <wgt id="211">7.698e-12</wgt>
  <wgt id="212">7.70148e-12</wgt>
  <wgt id="213">7.69933e-12</wgt>
  <wgt id="214">7.70085e-12</wgt>
  <wgt id="215">7.70487e-12</wgt>
  <wgt id="216">7.69665e-12</wgt>
  <wgt id="217">7.71998e-12</wgt>
  <wgt id="218">7.68441e-12</wgt>
  <wgt id="219">7.68958e-12</wgt>
  <wgt id="220">7.70645e-12</wgt>
  <wgt id="221">7.69734e-12</wgt>
  <wgt id="222">7.70605e-12</wgt>
  <wgt id="223">7.31084e-12</wgt>
  <wgt id="224">8.05345e-12</wgt>
  <wgt id="225">7.61364e-12</wgt>
  <wgt id="226">7.80845e-12</wgt>
  <wgt id="227">7.63101e-12</wgt>
  <wgt id="228">7.7303e-12</wgt>
  <wgt id="229">7.59812e-12</wgt>
  <wgt id="230">7.7507e-12</wgt>
  <wgt id="231">7.91172e-12</wgt>
  <wgt id="232">7.52534e-12</wgt>
  <wgt id="233">7.66189e-12</wgt>
  <wgt id="234">7.75934e-12</wgt>
  <wgt id="235">7.55637e-12</wgt>
  <wgt id="236">7.83698e-12</wgt>
  <wgt id="237">7.60113e-12</wgt>
  <wgt id="238">7.73389e-12</wgt>
  <wgt id="239">7.65691e-12</wgt>
  <wgt id="240">7.77869e-12</wgt>
  <wgt id="241">7.62568e-12</wgt>
  <wgt id="242">7.78888e-12</wgt>
  <wgt id="243">7.77674e-12</wgt>
  <wgt id="244">7.74445e-12</wgt>
  <wgt id="245">7.69392e-12</wgt>
  <wgt id="246">7.7571e-12</wgt>
  <wgt id="247">7.69982e-12</wgt>
  <wgt id="248">7.76521e-12</wgt>
  <wgt id="249">7.74037e-12</wgt>
  <wgt id="250">7.7171e-12</wgt>
  <wgt id="251">7.68257e-12</wgt>
  <wgt id="252">7.6662e-12</wgt>
  <wgt id="253">7.65437e-12</wgt>
  <wgt id="254">7.52489e-12</wgt>
  <wgt id="255">7.53156e-12</wgt>
  <wgt id="256">7.51723e-12</wgt>
  <wgt id="257">7.5306e-12</wgt>
  <wgt id="258">7.52041e-12</wgt>
  <wgt id="259">7.57444e-12</wgt>
  <wgt id="260">7.47657e-12</wgt>
  <wgt id="261">7.53257e-12</wgt>
  <wgt id="262">7.51534e-12</wgt>
  <wgt id="263">7.52167e-12</wgt>
  <wgt id="264">7.52808e-12</wgt>
  <wgt id="265">7.51704e-12</wgt>
  <wgt id="266">7.54041e-12</wgt>
  <wgt id="267">7.52681e-12</wgt>
  <wgt id="268">7.52158e-12</wgt>
  <wgt id="269">7.54619e-12</wgt>
  <wgt id="270">7.51008e-12</wgt>
  <wgt id="271">7.51153e-12</wgt>
  <wgt id="272">7.53977e-12</wgt>
  <wgt id="273">7.50304e-12</wgt>
  <wgt id="274">7.54113e-12</wgt>
  <wgt id="275">7.4951e-12</wgt>
  <wgt id="276">7.5554e-12</wgt>
  <wgt id="277">7.48363e-12</wgt>
  <wgt id="278">7.56274e-12</wgt>
  <wgt id="279">7.39049e-12</wgt>
  <wgt id="280">7.69291e-12</wgt>
  <wgt id="281">7.49462e-12</wgt>
  <wgt id="282">7.52587e-12</wgt>
  <wgt id="283">7.32181e-12</wgt>
  <wgt id="284">7.77406e-12</wgt>
  <wgt id="285">7.18572e-12</wgt>
  <wgt id="286">7.80397e-12</wgt>
  <wgt id="287">7.54727e-12</wgt>
  <wgt id="288">7.49587e-12</wgt>
  <wgt id="289">7.57451e-12</wgt>
  <wgt id="290">7.40828e-12</wgt>
  <wgt id="291">7.50576e-12</wgt>
  <wgt id="292">7.52903e-12</wgt>
  <wgt id="293">7.47025e-12</wgt>
  <wgt id="294">7.57897e-12</wgt>
  <wgt id="295">7.38964e-12</wgt>
  <wgt id="296">7.68921e-12</wgt>
  <wgt id="297">7.52661e-12</wgt>
  <wgt id="298">7.54861e-12</wgt>
  <wgt id="299">7.50236e-12</wgt>
  <wgt id="300">7.58389e-12</wgt>
  <wgt id="301">7.43952e-12</wgt>
  <wgt id="302">7.75282e-12</wgt>
  <wgt id="303">7.47539e-12</wgt>
  <wgt id="304">7.55322e-12</wgt>
  <wgt id="305">7.55271e-12</wgt>
  <wgt id="306">7.56017e-12</wgt>
  <wgt id="307">7.54425e-12</wgt>
  <wgt id="308">7.55944e-12</wgt>
  <wgt id="309">7.54826e-12</wgt>
  <wgt id="310">7.60461e-12</wgt>
  <wgt id="311">7.5044e-12</wgt>
  <wgt id="312">7.55825e-12</wgt>
  <wgt id="313">7.54703e-12</wgt>
  <wgt id="314">7.54948e-12</wgt>
  <wgt id="315">7.55526e-12</wgt>
  <wgt id="316">7.545e-12</wgt>
  <wgt id="317">7.56859e-12</wgt>
  <wgt id="318">7.55741e-12</wgt>
  <wgt id="319">7.54398e-12</wgt>
  <wgt id="320">7.57509e-12</wgt>
  <wgt id="321">7.53984e-12</wgt>
  <wgt id="322">7.53524e-12</wgt>
  <wgt id="323">7.57233e-12</wgt>
  <wgt id="324">7.53485e-12</wgt>
  <wgt id="325">7.56786e-12</wgt>
  <wgt id="326">7.52848e-12</wgt>
  <wgt id="327">7.58342e-12</wgt>
  <wgt id="328">7.51422e-12</wgt>
  <wgt id="329">7.57432e-12</wgt>
  <wgt id="330">7.76178e-12</wgt>
  <wgt id="331">7.35255e-12</wgt>
  <wgt id="332">7.52741e-12</wgt>
  <wgt id="333">7.55264e-12</wgt>
  <wgt id="334">7.39314e-12</wgt>
  <wgt id="335">7.75016e-12</wgt>
  <wgt id="336">7.30595e-12</wgt>
  <wgt id="337">7.85132e-12</wgt>
  <wgt id="338">7.63211e-12</wgt>
  <wgt id="339">7.47866e-12</wgt>
  <wgt id="340">7.59944e-12</wgt>
  <wgt id="341">7.43057e-12</wgt>
  <wgt id="342">7.53984e-12</wgt>
  <wgt id="343">7.54537e-12</wgt>
  <wgt id="344">7.50301e-12</wgt>
  <wgt id="345">7.61001e-12</wgt>
  <wgt id="346">7.4121e-12</wgt>
  <wgt id="347">7.71387e-12</wgt>
  <wgt id="348">7.55822e-12</wgt>
  <wgt id="349">7.57166e-12</wgt>
  <wgt id="350">7.52417e-12</wgt>
  <wgt id="351">7.62437e-12</wgt>
  <wgt id="352">7.45911e-12</wgt>
  <wgt id="353">7.79154e-12</wgt>
  <wgt id="354">7.47777e-12</wgt>
  <wgt id="355">7.5991e-12</wgt>
  <wgt id="356">7.52489e-12</wgt>
  <wgt id="357">7.58464e-12</wgt>
  <wgt id="358">7.55271e-12</wgt>
  <wgt id="359">7.55224e-12</wgt>
  <wgt id="360">7.56861e-12</wgt>
  <wgt id="361">7.5465e-12</wgt>
  <wgt id="362">7.66927e-12</wgt>
  <wgt id="363">7.65224e-12</wgt>
  <wgt id="364">7.62783e-12</wgt>
  <wgt id="365">7.60396e-12</wgt>
  <wgt id="366">7.57662e-12</wgt>
  <wgt id="367">7.52116e-12</wgt>
  <wgt id="368">7.49001e-12</wgt>
  <wgt id="369">7.45633e-12</wgt>
  <wgt id="370">7.5465e-12</wgt>
  <wgt id="371">7.57965e-12</wgt>
  <wgt id="372">7.56156e-12</wgt>
  <wgt id="373">7.53438e-12</wgt>
  <wgt id="374">7.53192e-12</wgt>
  <wgt id="375">8.03339e-12</wgt>
  <wgt id="376">8.03435e-12</wgt>
  <wgt id="377">8.03228e-12</wgt>
  <wgt id="378">8.06242e-12</wgt>
  <wgt id="379">8.00473e-12</wgt>
  <wgt id="380">8.05542e-12</wgt>
  <wgt id="381">8.02482e-12</wgt>
  <wgt id="382">8.07135e-12</wgt>
  <wgt id="383">7.99583e-12</wgt>
  <wgt id="384">8.03857e-12</wgt>
  <wgt id="385">8.02855e-12</wgt>
  <wgt id="386">8.06215e-12</wgt>
  <wgt id="387">8.02101e-12</wgt>
  <wgt id="388">8.02623e-12</wgt>
  <wgt id="389">8.04188e-12</wgt>
  <wgt id="390">8.05332e-12</wgt>
  <wgt id="391">8.01246e-12</wgt>
  <wgt id="392">7.97826e-12</wgt>
  <wgt id="393">8.06486e-12</wgt>
  <wgt id="394">8.04406e-12</wgt>
  <wgt id="395">8.01895e-12</wgt>
  <wgt id="396">8.037e-12</wgt>
  <wgt id="397">8.03087e-12</wgt>
  <wgt id="398">8.00561e-12</wgt>
  <wgt id="399">8.06045e-12</wgt>
  <wgt id="400">8.02199e-12</wgt>
  <wgt id="401">8.05906e-12</wgt>
  <wgt id="402">7.97304e-12</wgt>
  <wgt id="403">8.05929e-12</wgt>
  <wgt id="404">8.20723e-12</wgt>
  <wgt id="405">7.61297e-12</wgt>
  <wgt id="406">7.9074e-12</wgt>
  <wgt id="407">8.30607e-12</wgt>
  <wgt id="408">8.09777e-12</wgt>
  <wgt id="409">7.90988e-12</wgt>
  <wgt id="410">7.82667e-12</wgt>
  <wgt id="411">8.12891e-12</wgt>
  <wgt id="412">8.01969e-12</wgt>
  <wgt id="413">8.05229e-12</wgt>
  <wgt id="414">7.95073e-12</wgt>
  <wgt id="415">8.09787e-12</wgt>
  <wgt id="416">8.22826e-12</wgt>
  <wgt id="417">7.76368e-12</wgt>
  <wgt id="418">8.04377e-12</wgt>
  <wgt id="419">7.97692e-12</wgt>
  <wgt id="420">8.13199e-12</wgt>
  <wgt id="421">7.98005e-12</wgt>
  <wgt id="422">8.02725e-12</wgt>
  <wgt id="423">8.03811e-12</wgt>
  <wgt id="424">8.17535e-12</wgt>
  <wgt id="425">7.94512e-12</wgt>
  <wgt id="426">8.03339e-12</wgt>
  <wgt id="427">7.96852e-12</wgt>
  <wgt id="428">8.22192e-12</wgt>
  <wgt id="429">8.0981e-12</wgt>
  <wgt id="430">8.31107e-12</wgt>
  <wgt id="431">8.26882e-12</wgt>
  <wgt id="432">8.22866e-12</wgt>
  <wgt id="433">8.18969e-12</wgt>
  <wgt id="434">8.14246e-12</wgt>
  <wgt id="435">8.04291e-12</wgt>
  <wgt id="436">7.99151e-12</wgt>
  <wgt id="437">7.94284e-12</wgt>
  <wgt id="438">8.0981e-12</wgt>
  <wgt id="439">8.12444e-12</wgt>
  <wgt id="440">8.10913e-12</wgt>
  <wgt id="441">8.08994e-12</wgt>
  <wgt id="442">8.08308e-12</wgt>
  <wgt id="443">7.84688e-12</wgt>
  <wgt id="444">7.88857e-12</wgt>
  <wgt id="445">7.83631e-12</wgt>
  <wgt id="446">7.79713e-12</wgt>
  <wgt id="447">7.82893e-12</wgt>
  <wgt id="448">7.65742e-12</wgt>
  <wgt id="449">7.96185e-12</wgt>
  <wgt id="450">7.83742e-12</wgt>
  <wgt id="451">7.83457e-12</wgt>
  <wgt id="452">8.00527e-12</wgt>
  <wgt id="453">7.90878e-12</wgt>
  <wgt id="454">7.54127e-12</wgt>
  <wgt id="455">7.86413e-12</wgt>
  <wgt id="456">7.78468e-12</wgt>
  <wgt id="457">7.87231e-12</wgt>
  <wgt id="458">7.93876e-12</wgt>
  <wgt id="459">7.89991e-12</wgt>
  <wgt id="460">7.90536e-12</wgt>
  <wgt id="461">7.71474e-12</wgt>
  <wgt id="462">7.79626e-12</wgt>
  <wgt id="463">7.76387e-12</wgt>
  <wgt id="464">7.81152e-12</wgt>
  <wgt id="465">7.91848e-12</wgt>
  <wgt id="466">7.75939e-12</wgt>
  <wgt id="467">7.78213e-12</wgt>
  <wgt id="468">7.82929e-12</wgt>
  <wgt id="469">7.83213e-12</wgt>
  <wgt id="470">7.77626e-12</wgt>
  <wgt id="471">7.78483e-12</wgt>
  <wgt id="472">7.87833e-12</wgt>
  <wgt id="473">7.63563e-12</wgt>
  <wgt id="474">5.79e-12</wgt>
  <wgt id="475">6.051e-12</wgt>
  <wgt id="476">5.68853e-12</wgt>
  <wgt id="477">5.63185e-12</wgt>
  <wgt id="478">5.835e-12</wgt>
  <wgt id="479">5.70494e-12</wgt>
  <wgt id="480">5.99236e-12</wgt>
  <wgt id="481">5.7015e-12</wgt>
  <wgt id="482">5.63157e-12</wgt>
  <wgt id="483">5.64969e-12</wgt>
  <wgt id="484">6.07106e-12</wgt>
  <wgt id="485">5.73718e-12</wgt>
  <wgt id="486">5.96451e-12</wgt>
  <wgt id="487">5.82889e-12</wgt>
  <wgt id="488">5.88607e-12</wgt>
  <wgt id="489">5.53416e-12</wgt>
  <wgt id="490">5.60834e-12</wgt>
  <wgt id="491">5.75615e-12</wgt>
  <wgt id="492">5.65615e-12</wgt>
  <wgt id="493">5.58034e-12</wgt>
  <wgt id="494">5.61687e-12</wgt>
  <wgt id="495">5.8303e-12</wgt>
  <wgt id="496">5.60452e-12</wgt>
  <wgt id="497">5.57707e-12</wgt>
  <wgt id="498">5.90334e-12</wgt>
  <wgt id="499">5.68745e-12</wgt>
  <wgt id="500">5.6762e-12</wgt>
  <wgt id="501">6.01613e-12</wgt>
  <wgt id="502">5.69507e-12</wgt>
  <wgt id="503">5.79234e-12</wgt>
  <wgt id="504">5.84683e-12</wgt>
  <wgt id="505">5.69855e-12</wgt>
  <wgt id="506">5.81304e-12</wgt>
  <wgt id="507">5.76571e-12</wgt>
  <wgt id="508">5.93811e-12</wgt>
  <wgt id="509">5.54563e-12</wgt>
  <wgt id="510">5.9104e-12</wgt>
  <wgt id="511">5.63432e-12</wgt>
  <wgt id="512">5.90529e-12</wgt>
  <wgt id="513">5.96545e-12</wgt>
  <wgt id="514">5.80304e-12</wgt>
  <wgt id="515">5.74902e-12</wgt>
  <wgt id="516">6.01778e-12</wgt>
  <wgt id="517">5.92549e-12</wgt>
  <wgt id="518">5.95019e-12</wgt>
  <wgt id="519">5.65385e-12</wgt>
  <wgt id="520">5.86518e-12</wgt>
  <wgt id="521">5.9666e-12</wgt>
  <wgt id="522">6.02651e-12</wgt>
  <wgt id="523">5.81129e-12</wgt>
  <wgt id="524">5.81001e-12</wgt>
  <wgt id="525">5.93528e-12</wgt>
  <wgt id="526">5.82285e-12</wgt>
  <wgt id="527">5.86587e-12</wgt>
  <wgt id="528">5.80338e-12</wgt>
  <wgt id="529">5.73093e-12</wgt>
  <wgt id="530">5.87995e-12</wgt>
  <wgt id="531">5.70346e-12</wgt>
  <wgt id="532">6.11601e-12</wgt>
  <wgt id="533">5.5054e-12</wgt>
  <wgt id="534">5.77945e-12</wgt>
  <wgt id="535">5.8335e-12</wgt>
  <wgt id="536">5.75775e-12</wgt>
  <wgt id="537">5.79507e-12</wgt>
  <wgt id="538">5.87523e-12</wgt>
  <wgt id="539">5.68024e-12</wgt>
  <wgt id="540">5.7471e-12</wgt>
  <wgt id="541">5.64555e-12</wgt>
  <wgt id="542">5.70088e-12</wgt>
  <wgt id="543">5.78164e-12</wgt>
  <wgt id="544">6.05192e-12</wgt>
  <wgt id="545">5.69203e-12</wgt>
  <wgt id="546">5.6638e-12</wgt>
  <wgt id="547">5.64857e-12</wgt>
  <wgt id="548">5.55932e-12</wgt>
  <wgt id="549">5.70701e-12</wgt>
  <wgt id="550">5.71761e-12</wgt>
  <wgt id="551">5.87297e-12</wgt>
  <wgt id="552">5.66009e-12</wgt>
  <wgt id="553">5.75247e-12</wgt>
  <wgt id="554">6.20089e-12</wgt>
  <wgt id="555">5.955e-12</wgt>
  <wgt id="556">5.60834e-12</wgt>
  <wgt id="557">5.91268e-12</wgt>
  <wgt id="558">5.63892e-12</wgt>
  <wgt id="559">5.68404e-12</wgt>
  <wgt id="560">6.29599e-12</wgt>
  <wgt id="561">5.69612e-12</wgt>
  <wgt id="562">5.9193e-12</wgt>
  <wgt id="563">5.72983e-12</wgt>
  <wgt id="564">5.87794e-12</wgt>
  <wgt id="565">5.64557e-12</wgt>
  <wgt id="566">5.86032e-12</wgt>
  <wgt id="567">5.7292e-12</wgt>
  <wgt id="568">5.78606e-12</wgt>
  <wgt id="569">5.86866e-12</wgt>
  <wgt id="570">5.60671e-12</wgt>
  <wgt id="571">6.39094e-12</wgt>
  <wgt id="572">5.693e-12</wgt>
  <wgt id="573">5.57361e-12</wgt>
  <wgt id="574">5.6136e-12</wgt>
  <wgt id="575">6.34422e-12</wgt>
  <wgt id="576">6.3472e-12</wgt>
  <wgt id="577">6.55837e-12</wgt>
  <wgt id="578">6.50768e-12</wgt>
  <wgt id="579">6.46237e-12</wgt>
  <wgt id="580">6.50744e-12</wgt>
  <wgt id="581">6.77909e-12</wgt>
  <wgt id="582">6.34176e-12</wgt>
  <wgt id="583">6.39486e-12</wgt>
  <wgt id="584">6.33131e-12</wgt>
  <wgt id="585">6.2906e-12</wgt>
  <wgt id="586">6.16929e-12</wgt>
  <wgt id="587">6.42907e-12</wgt>
  <wgt id="588">6.34143e-12</wgt>
  <wgt id="589">6.48682e-12</wgt>
  <wgt id="590">6.38862e-12</wgt>
  <wgt id="591">6.58907e-12</wgt>
  <wgt id="592">6.1171e-12</wgt>
  <wgt id="593">6.2981e-12</wgt>
  <wgt id="594">6.55461e-12</wgt>
  <wgt id="595">6.34769e-12</wgt>
  <wgt id="596">6.50332e-12</wgt>
  <wgt id="597">6.18506e-12</wgt>
  <wgt id="598">6.18059e-12</wgt>
  <wgt id="599">6.58856e-12</wgt>
  <wgt id="600">6.33307e-12</wgt>
  <wgt id="601">6.16492e-12</wgt>
  <wgt id="602">6.18543e-12</wgt>
  <wgt id="603">6.2201e-12</wgt>
  <wgt id="604">6.43638e-12</wgt>
  <wgt id="605">6.58598e-12</wgt>
  <wgt id="606">6.27338e-12</wgt>
  <wgt id="607">6.31111e-12</wgt>
  <wgt id="608">6.39472e-12</wgt>
  <wgt id="609">6.04341e-12</wgt>
  <wgt id="610">6.11786e-12</wgt>
  <wgt id="611">6.38129e-12</wgt>
  <wgt id="612">6.80668e-12</wgt>
  <wgt id="613">6.32591e-12</wgt>
  <wgt id="614">6.38311e-12</wgt>
  <wgt id="615">6.2567e-12</wgt>
  <wgt id="616">6.67318e-12</wgt>
  <wgt id="617">6.49464e-12</wgt>
  <wgt id="618">6.6007e-12</wgt>
  <wgt id="619">6.29933e-12</wgt>
  <wgt id="620">6.54113e-12</wgt>
  <wgt id="621">6.3831e-12</wgt>
  <wgt id="622">6.42907e-12</wgt>
  <wgt id="623">6.50086e-12</wgt>
  <wgt id="624">6.32146e-12</wgt>
  <wgt id="625">6.24576e-12</wgt>
  <wgt id="626">6.14719e-12</wgt>
  <wgt id="627">6.09211e-12</wgt>
  <wgt id="628">6.50759e-12</wgt>
  <wgt id="629">6.25359e-12</wgt>
  <wgt id="630">6.14898e-12</wgt>
  <wgt id="631">6.36655e-12</wgt>
  <wgt id="632">6.10461e-12</wgt>
  <wgt id="633">6.2941e-12</wgt>
  <wgt id="634">6.31008e-12</wgt>
  <wgt id="635">6.18202e-12</wgt>
  <wgt id="636">6.41126e-12</wgt>
  <wgt id="637">6.36382e-12</wgt>
  <wgt id="638">6.14395e-12</wgt>
  <wgt id="639">6.26775e-12</wgt>
  <wgt id="640">6.35434e-12</wgt>
  <wgt id="641">6.42069e-12</wgt>
  <wgt id="642">6.09143e-12</wgt>
  <wgt id="643">6.31477e-12</wgt>
  <wgt id="644">6.01169e-12</wgt>
  <wgt id="645">6.37664e-12</wgt>
  <wgt id="646">6.36636e-12</wgt>
  <wgt id="647">6.26381e-12</wgt>
  <wgt id="648">6.41633e-12</wgt>
  <wgt id="649">6.4115e-12</wgt>
  <wgt id="650">6.20285e-12</wgt>
  <wgt id="651">6.47655e-12</wgt>
  <wgt id="652">6.29949e-12</wgt>
  <wgt id="653">6.16918e-12</wgt>
  <wgt id="654">6.26498e-12</wgt>
  <wgt id="655">6.24057e-12</wgt>
  <wgt id="656">6.32261e-12</wgt>
  <wgt id="657">6.62387e-12</wgt>
  <wgt id="658">6.37955e-12</wgt>
  <wgt id="659">6.09562e-12</wgt>
  <wgt id="660">6.43335e-12</wgt>
  <wgt id="661">6.26288e-12</wgt>
  <wgt id="662">6.31581e-12</wgt>
  <wgt id="663">6.35494e-12</wgt>
  <wgt id="664">6.27792e-12</wgt>
  <wgt id="665">6.33873e-12</wgt>
  <wgt id="666">6.3074e-12</wgt>
  <wgt id="667">6.56732e-12</wgt>
  <wgt id="668">6.32962e-12</wgt>
  <wgt id="669">6.49126e-12</wgt>
  <wgt id="670">6.47282e-12</wgt>
  <wgt id="671">6.28482e-12</wgt>
  <wgt id="672">6.09126e-12</wgt>
  <wgt id="673">6.38646e-12</wgt>
  <wgt id="674">6.20562e-12</wgt>
  <wgt id="675">6.24636e-12</wgt>
  <wgt id="676">7.93522e-12</wgt>
  <wgt id="677">8.04214e-12</wgt>
  <wgt id="678">8.32592e-12</wgt>
  <wgt id="679">7.57631e-12</wgt>
  <wgt id="680">7.74621e-12</wgt>
  <wgt id="681">8.08925e-12</wgt>
  <wgt id="682">8.11232e-12</wgt>
  <wgt id="683">7.81523e-12</wgt>
  <wgt id="684">8.25357e-12</wgt>
  <wgt id="685">7.62659e-12</wgt>
  <wgt id="686">7.82598e-12</wgt>
  <wgt id="687">8.23532e-12</wgt>
  <wgt id="688">7.84561e-12</wgt>
  <wgt id="689">8.37021e-12</wgt>
  <wgt id="690">8.29932e-12</wgt>
  <wgt id="691">8.31565e-12</wgt>
  <wgt id="692">7.8876e-12</wgt>
  <wgt id="693">9.24638e-12</wgt>
  <wgt id="694">8.41299e-12</wgt>
  <wgt id="695">7.68758e-12</wgt>
  <wgt id="696">7.65017e-12</wgt>
  <wgt id="697">7.64723e-12</wgt>
  <wgt id="698">7.31754e-12</wgt>
  <wgt id="699">7.23363e-12</wgt>
  <wgt id="700">7.06341e-12</wgt>
  <wgt id="701">7.93661e-12</wgt>
  <wgt id="702">7.73313e-12</wgt>
  <wgt id="703">9.02303e-12</wgt>
  <wgt id="704">8.62934e-12</wgt>
  <wgt id="705">8.37164e-12</wgt>
  <wgt id="706">7.50623e-12</wgt>
  <wgt id="707">7.62524e-12</wgt>
  <wgt id="708">7.80947e-12</wgt>
  <wgt id="709">7.78263e-12</wgt>
  <wgt id="710">7.25293e-12</wgt>
  <wgt id="711">7.91289e-12</wgt>
  <wgt id="712">7.76147e-12</wgt>
  <wgt id="713">8.48098e-12</wgt>
  <wgt id="714">7.77716e-12</wgt>
  <wgt id="715">7.8371e-12</wgt>
  <wgt id="716">7.65693e-12</wgt>
  <wgt id="717">7.53719e-12</wgt>
  <wgt id="718">7.92767e-12</wgt>
  <wgt id="719">7.26268e-12</wgt>
  <wgt id="720">7.60216e-12</wgt>
  <wgt id="721">7.35861e-12</wgt>
  <wgt id="722">7.0949e-12</wgt>
  <wgt id="723">8.42197e-12</wgt>
  <wgt id="724">8.28582e-12</wgt>
  <wgt id="725">8.33301e-12</wgt>
  <wgt id="726">7.98271e-12</wgt>
  <wgt id="727">7.78188e-12</wgt>
  <wgt id="728">7.78831e-12</wgt>
  <wgt id="729">7.50081e-12</wgt>
  <wgt id="730">8.4145e-12</wgt>
  <wgt id="731">7.82301e-12</wgt>
  <wgt id="732">8.69249e-12</wgt>
  <wgt id="733">7.82686e-12</wgt>
  <wgt id="734">8.10382e-12</wgt>
  <wgt id="735">7.98166e-12</wgt>
  <wgt id="736">7.76562e-12</wgt>
  <wgt id="737">8.02329e-12</wgt>
  <wgt id="738">7.64239e-12</wgt>
  <wgt id="739">8.04796e-12</wgt>
  <wgt id="740">8.78321e-12</wgt>
  <wgt id="741">7.17931e-12</wgt>
  <wgt id="742">7.8399e-12</wgt>
  <wgt id="743">7.61909e-12</wgt>
  <wgt id="744">7.77069e-12</wgt>
  <wgt id="745">8.24071e-12</wgt>
  <wgt id="746">8.36763e-12</wgt>
  <wgt id="747">7.21327e-12</wgt>
  <wgt id="748">7.82901e-12</wgt>
  <wgt id="749">8.30632e-12</wgt>
  <wgt id="750">8.17588e-12</wgt>
  <wgt id="751">8.13621e-12</wgt>
  <wgt id="752">7.32903e-12</wgt>
  <wgt id="753">7.51006e-12</wgt>
  <wgt id="754">8.17581e-12</wgt>
  <wgt id="755">7.94607e-12</wgt>
  <wgt id="756">7.92182e-12</wgt>
  <wgt id="757">7.33481e-12</wgt>
  <wgt id="758">7.95638e-12</wgt>
  <wgt id="759">8.21111e-12</wgt>
  <wgt id="760">7.99739e-12</wgt>
  <wgt id="761">8.36601e-12</wgt>
  <wgt id="762">8.37573e-12</wgt>
  <wgt id="763">7.93374e-12</wgt>
  <wgt id="764">8.22074e-12</wgt>
  <wgt id="765">8.00787e-12</wgt>
  <wgt id="766">7.91748e-12</wgt>
  <wgt id="767">8.08734e-12</wgt>
  <wgt id="768">7.50438e-12</wgt>
  <wgt id="769">8.37723e-12</wgt>
  <wgt id="770">7.81083e-12</wgt>
  <wgt id="771">9.25779e-12</wgt>
  <wgt id="772">7.53356e-12</wgt>
  <wgt id="773">7.88773e-12</wgt>
  <wgt id="774">7.04265e-12</wgt>
  <wgt id="775">8.27389e-12</wgt>
  <wgt id="776">8.56817e-12</wgt>
  <wgt id="777">7.5887e-12</wgt>
  <wgt id="778">5.88813e-12</wgt>
  <wgt id="779">4.854e-12</wgt>
  <wgt id="780">3.98597e-12</wgt>
  <wgt id="781">6.26678e-12</wgt>
  <wgt id="782">6.28053e-12</wgt>
  <wgt id="783">4.91288e-12</wgt>
  <wgt id="784">5.13618e-12</wgt>
  <wgt id="785">7.20473e-12</wgt>
  <wgt id="786">4.56457e-12</wgt>
  <wgt id="787">6.66695e-12</wgt>
  <wgt id="788">3.67629e-12</wgt>
  <wgt id="789">4.9235e-12</wgt>
  <wgt id="790">4.50216e-12</wgt>
  <wgt id="791">5.67492e-12</wgt>
  <wgt id="792">7.77001e-12</wgt>
  <wgt id="793">5.79298e-12</wgt>
  <wgt id="794">4.50366e-12</wgt>
  <wgt id="795">6.83837e-12</wgt>
  <wgt id="796">7.6328e-12</wgt>
  <wgt id="797">6.84242e-12</wgt>
  <wgt id="798">5.35947e-12</wgt>
  <wgt id="799">6.64457e-12</wgt>
  <wgt id="800">4.9156e-12</wgt>
  <wgt id="801">5.50253e-12</wgt>
  <wgt id="802">4.52495e-12</wgt>
  <wgt id="803">7.88791e-12</wgt>
  <wgt id="804">6.8055e-12</wgt>
  <wgt id="805">6.8676e-12</wgt>
  <wgt id="806">6.52127e-12</wgt>
  <wgt id="807">5.64669e-12</wgt>
  <wgt id="808">5.6998e-12</wgt>
  <wgt id="809">5.47955e-12</wgt>
  <wgt id="810">6.59821e-12</wgt>
  <wgt id="811">6.34093e-12</wgt>
  <wgt id="812">4.51663e-12</wgt>
  <wgt id="813">4.59064e-12</wgt>
  <wgt id="814">4.88413e-12</wgt>
  <wgt id="815">4.86292e-12</wgt>
  <wgt id="816">4.4276e-12</wgt>
  <wgt id="817">6.12087e-12</wgt>
  <wgt id="818">5.9574e-12</wgt>
  <wgt id="819">4.87841e-12</wgt>
  <wgt id="820">5.86284e-12</wgt>
  <wgt id="821">6.66657e-12</wgt>
  <wgt id="822">4.94919e-12</wgt>
  <wgt id="823">6.74482e-12</wgt>
  <wgt id="824">7.83008e-12</wgt>
  <wgt id="825">4.36004e-12</wgt>
  <wgt id="826">6.23748e-12</wgt>
  <wgt id="827">3.67559e-12</wgt>
  <wgt id="828">7.50357e-12</wgt>
  <wgt id="829">6.05724e-12</wgt>
  <wgt id="830">4.14926e-12</wgt>
  <wgt id="831">6.32584e-12</wgt>
  <wgt id="832">9.47829e-12</wgt>
  <wgt id="833">5.45989e-12</wgt>
  <wgt id="834">8.98548e-12</wgt>
  <wgt id="835">4.84315e-12</wgt>
  <wgt id="836">5.7331e-12</wgt>
  <wgt id="837">6.58822e-12</wgt>
  <wgt id="838">5.50759e-12</wgt>
  <wgt id="839">6.2937e-12</wgt>
  <wgt id="840">5.50463e-12</wgt>
  <wgt id="841">7.18111e-12</wgt>
  <wgt id="842">5.43953e-12</wgt>
  <wgt id="843">5.84153e-12</wgt>
  <wgt id="844">6.11947e-12</wgt>
  <wgt id="845">8.3607e-12</wgt>
  <wgt id="846">5.78914e-12</wgt>
  <wgt id="847">5.94545e-12</wgt>
  <wgt id="848">5.04878e-12</wgt>
  <wgt id="849">6.03883e-12</wgt>
  <wgt id="850">7.58761e-12</wgt>
  <wgt id="851">6.44738e-12</wgt>
  <wgt id="852">4.88952e-12</wgt>
  <wgt id="853">6.46759e-12</wgt>
  <wgt id="854">7.14529e-12</wgt>
  <wgt id="855">6.69737e-12</wgt>
  <wgt id="856">4.22799e-12</wgt>
  <wgt id="857">5.83722e-12</wgt>
  <wgt id="858">5.68592e-12</wgt>
  <wgt id="859">5.54415e-12</wgt>
  <wgt id="860">6.37094e-12</wgt>
  <wgt id="861">5.23582e-12</wgt>
  <wgt id="862">5.949e-12</wgt>
  <wgt id="863">6.22304e-12</wgt>
  <wgt id="864">6.18391e-12</wgt>
  <wgt id="865">8.2489e-12</wgt>
  <wgt id="866">9.07213e-12</wgt>
  <wgt id="867">5.94151e-12</wgt>
  <wgt id="868">5.77856e-12</wgt>
  <wgt id="869">4.57154e-12</wgt>
  <wgt id="870">4.82651e-12</wgt>
  <wgt id="871">4.69293e-12</wgt>
  <wgt id="872">6.99709e-12</wgt>
  <wgt id="873">4.96691e-12</wgt>
  <wgt id="874">6.18022e-12</wgt>
  <wgt id="875">5.1161e-12</wgt>
  <wgt id="876">6.95289e-12</wgt>
  <wgt id="877">6.61584e-12</wgt>
  <wgt id="878">5.06492e-12</wgt>
  <wgt id="879">7.93522e-12</wgt>
  <wgt id="880">8.04214e-12</wgt>
  <wgt id="881">8.32592e-12</wgt>
  <wgt id="882">7.57631e-12</wgt>
  <wgt id="883">7.74621e-12</wgt>
  <wgt id="884">8.08925e-12</wgt>
  <wgt id="885">8.11232e-12</wgt>
  <wgt id="886">7.81523e-12</wgt>
  <wgt id="887">8.25357e-12</wgt>
  <wgt id="888">7.62659e-12</wgt>
  <wgt id="889">7.82598e-12</wgt>
  <wgt id="890">8.23532e-12</wgt>
  <wgt id="891">7.84561e-12</wgt>
  <wgt id="892">8.37021e-12</wgt>
  <wgt id="893">8.29932e-12</wgt>
  <wgt id="894">8.31565e-12</wgt>
  <wgt id="895">7.8876e-12</wgt>
  <wgt id="896">9.24638e-12</wgt>
  <wgt id="897">8.41299e-12</wgt>
  <wgt id="898">7.68758e-12</wgt>
  <wgt id="899">7.65017e-12</wgt>
  <wgt id="900">7.64723e-12</wgt>
  <wgt id="901">7.31754e-12</wgt>
  <wgt id="902">7.23363e-12</wgt>
  <wgt id="903">7.06341e-12</wgt>
  <wgt id="904">7.93661e-12</wgt>
  <wgt id="905">7.73313e-12</wgt>
  <wgt id="906">9.02303e-12</wgt>
  <wgt id="907">8.62934e-12</wgt>
  <wgt id="908">8.37164e-12</wgt>
  <wgt id="909">7.50623e-12</wgt>
  <wgt id="910">7.62524e-12</wgt>
  <wgt id="911">7.80947e-12</wgt>
  <wgt id="912">7.78263e-12</wgt>
  <wgt id="913">7.25293e-12</wgt>
  <wgt id="914">7.91289e-12</wgt>
  <wgt id="915">7.76147e-12</wgt>
  <wgt id="916">8.48098e-12</wgt>
  <wgt id="917">7.77716e-12</wgt>
  <wgt id="918">7.8371e-12</wgt>
  <wgt id="919">7.65693e-12</wgt>
  <wgt id="920">7.53719e-12</wgt>
  <wgt id="921">7.92767e-12</wgt>
  <wgt id="922">7.26268e-12</wgt>
  <wgt id="923">7.60216e-12</wgt>
  <wgt id="924">7.35861e-12</wgt>
  <wgt id="925">7.0949e-12</wgt>
  <wgt id="926">8.42197e-12</wgt>
  <wgt id="927">8.28582e-12</wgt>
  <wgt id="928">8.33301e-12</wgt>
  <wgt id="929">7.98271e-12</wgt>
  <wgt id="930">7.78188e-12</wgt>
  <wgt id="931">7.78831e-12</wgt>
  <wgt id="932">7.50081e-12</wgt>
  <wgt id="933">8.4145e-12</wgt>
  <wgt id="934">7.82301e-12</wgt>
  <wgt id="935">8.69249e-12</wgt>
  <wgt id="936">7.82686e-12</wgt>
  <wgt id="937">8.10382e-12</wgt>
  <wgt id="938">7.98166e-12</wgt>
  <wgt id="939">7.76562e-12</wgt>
  <wgt id="940">8.02329e-12</wgt>
  <wgt id="941">7.64239e-12</wgt>
  <wgt id="942">8.04796e-12</wgt>
  <wgt id="943">8.78321e-12</wgt>
  <wgt id="944">7.17931e-12</wgt>
  <wgt id="945">7.8399e-12</wgt>
  <wgt id="946">7.61909e-12</wgt>
  <wgt id="947">7.77069e-12</wgt>
  <wgt id="948">8.24071e-12</wgt>
  <wgt id="949">8.36763e-12</wgt>
  <wgt id="950">7.21327e-12</wgt>
  <wgt id="951">7.82901e-12</wgt>
  <wgt id="952">8.30632e-12</wgt>
  <wgt id="953">8.17588e-12</wgt>
  <wgt id="954">8.13621e-12</wgt>
  <wgt id="955">7.32903e-12</wgt>
  <wgt id="956">7.51006e-12</wgt>
  <wgt id="957">8.17581e-12</wgt>
  <wgt id="958">7.94607e-12</wgt>
  <wgt id="959">7.92182e-12</wgt>
  <wgt id="960">7.33481e-12</wgt>
  <wgt id="961">7.95638e-12</wgt>
  <wgt id="962">8.21111e-12</wgt>
  <wgt id="963">7.99739e-12</wgt>
  <wgt id="964">8.36601e-12</wgt>
  <wgt id="965">8.37573e-12</wgt>
  <wgt id="966">7.93374e-12</wgt>
  <wgt id="967">8.22074e-12</wgt>
  <wgt id="968">8.00787e-12</wgt>
  <wgt id="969">7.91748e-12</wgt>
  <wgt id="970">8.08734e-12</wgt>
  <wgt id="971">7.50438e-12</wgt>
  <wgt id="972">8.37723e-12</wgt>
  <wgt id="973">7.81083e-12</wgt>
  <wgt id="974">9.25779e-12</wgt>
  <wgt id="975">7.53356e-12</wgt>
  <wgt id="976">7.88773e-12</wgt>
  <wgt id="977">7.04265e-12</wgt>
  <wgt id="978">8.27389e-12</wgt>
  <wgt id="979">8.56817e-12</wgt>
  <wgt id="980">7.93284e-12</wgt>
  <wgt id="981">7.96771e-12</wgt>
  <wgt id="982">7.70142e-12</wgt>
</rwgt>
</event>
<event>
 5   1  0.5790000E-11  0.2116562E+04  0.7818608E-02  0.7781047E-01
       21   -1    0    0  502  501  0.00000000000E+00  0.00000000000E+00  0.17360364728E+04  0.17360364728E+04  0.00000000000E+00 0. -1.
       21   -1    0    0  501  502 -0.00000000000E+00 -0.00000000000E+00 -0.64512396681E+03  0.64512396681E+03  0.00000000000E+00 0.  1.
       39    2    1    2    0    0  0.00000000000E+00  0.00000000000E+00  0.10909125060E+04  0.23811604396E+04  0.21165620576E+04 0.  0.
       25    1    3    3    0    0 -0.57681513255E+03 -0.86545627984E+03  0.37631670112E+03  0.11130900813E+04  0.12500000000E+03 0.  0.
       25    1    3    3    0    0  0.57681513255E+03  0.86545627984E+03  0.71459580489E+03  0.12680703584E+04  0.12500000000E+03 0.  0.
<mgrwt>
<rscale>  0 0.21165621E+04</rscale>
<asrwt>0</asrwt>
<pdfrwt beam="1">  1       21 0.26708253E+00 0.21165621E+04</pdfrwt>
<pdfrwt beam="2">  1       21 0.99249841E-01 0.21165621E+04</pdfrwt>
<totfact> 0.17229248E+01</totfact>
</mgrwt>
<rwgt>
  <wgt id="1">5.79e-12</wgt>
  <wgt id="2">5.04491e-12</wgt>
  <wgt id="3">6.71367e-12</wgt>
  <wgt id="4">5.79e-12</wgt>
  <wgt id="5">5.04491e-12</wgt>
  <wgt id="6">6.71367e-12</wgt>
  <wgt id="7">5.79e-12</wgt>
  <wgt id="8">5.04491e-12</wgt>
  <wgt id="9">6.71367e-12</wgt>
  <wgt id="10">6.00417e-12</wgt>
  <wgt id="11">6.00086e-12</wgt>
  <wgt id="12">5.99496e-12</wgt>
  <wgt id="13">5.98805e-12</wgt>
  <wgt id="14">6.02608e-12</wgt>
  <wgt id="15">6.01445e-12</wgt>
  <wgt id="16">5.99558e-12</wgt>
  <wgt id="17">6.02558e-12</wgt>
  <wgt id="18">5.99447e-12</wgt>
  <wgt id="19">6.01957e-12</wgt>
  <wgt id="20">5.99437e-12</wgt>
  <wgt id="21">5.95913e-12</wgt>
  <wgt id="22">5.96813e-12</wgt>
  <wgt id="23">5.93178e-12</wgt>
  <wgt id="24">5.96685e-12</wgt>
  <wgt id="25">5.98453e-12</wgt>
  <wgt id="26">6.02227e-12</wgt>
  <wgt id="27">5.99802e-12</wgt>
  <wgt id="28">5.97047e-12</wgt>
  <wgt id="29">6.00759e-12</wgt>
  <wgt id="30">5.96809e-12</wgt>
  <wgt id="31">6.02954e-12</wgt>
  <wgt id="32">5.97779e-12</wgt>
  <wgt id="33">6.01458e-12</wgt>
  <wgt id="34">5.97304e-12</wgt>
  <wgt id="35">5.98384e-12</wgt>
  <wgt id="36">6.0279e-12</wgt>
  <wgt id="37">5.98735e-12</wgt>
  <wgt id="38">5.98385e-12</wgt>
  <wgt id="39">6.08772e-12</wgt>
  <wgt id="40">6.00752e-12</wgt>
  <wgt id="41">6.00143e-12</wgt>
  <wgt id="42">6.011e-12</wgt>
  <wgt id="43">6.0026e-12</wgt>
  <wgt id="44">6.01567e-12</wgt>
  <wgt id="45">6.01448e-12</wgt>
  <wgt id="46">5.99712e-12</wgt>
  <wgt id="47">6.0231e-12</wgt>
  <wgt id="48">6.01123e-12</wgt>
  <wgt id="49">5.9779e-12</wgt>
  <wgt id="50">5.9877e-12</wgt>
  <wgt id="51">5.99424e-12</wgt>
  <wgt id="52">6.02061e-12</wgt>
  <wgt id="53">5.99691e-12</wgt>
  <wgt id="54">6.01182e-12</wgt>
  <wgt id="55">6.00368e-12</wgt>
  <wgt id="56">6.02024e-12</wgt>
  <wgt id="57">6.0058e-12</wgt>
  <wgt id="58">5.98722e-12</wgt>
  <wgt id="59">5.99635e-12</wgt>
  <wgt id="60">5.99906e-12</wgt>
  <wgt id="61">5.96783e-12</wgt>
  <wgt id="62">5.98239e-12</wgt>
  <wgt id="63">5.99508e-12</wgt>
  <wgt id="64">6.00423e-12</wgt>
  <wgt id="65">6.00684e-12</wgt>
  <wgt id="66">5.99905e-12</wgt>
  <wgt id="67">5.97551e-12</wgt>
  <wgt id="68">6.00314e-12</wgt>
  <wgt id="69">6.00328e-12</wgt>
  <wgt id="70">6.00384e-12</wgt>
  <wgt id="71">6.0004e-12</wgt>
  <wgt id="72">5.98252e-12</wgt>
  <wgt id="73">6.01685e-12</wgt>
  <wgt id="74">6.01002e-12</wgt>
  <wgt id="75">6.00026e-12</wgt>
  <wgt id="76">6.02445e-12</wgt>
  <wgt id="77">5.99979e-12</wgt>
  <wgt id="78">6.00068e-12</wgt>
  <wgt id="79">6.02015e-12</wgt>
  <wgt id="80">5.97492e-12</wgt>
  <wgt id="81">6.00273e-12</wgt>
  <wgt id="82">6.00572e-12</wgt>
  <wgt id="83">5.97976e-12</wgt>
  <wgt id="84">5.99576e-12</wgt>
  <wgt id="85">5.98829e-12</wgt>
  <wgt id="86">6.02244e-12</wgt>
  <wgt id="87">5.96728e-12</wgt>
  <wgt id="88">6.01201e-12</wgt>
  <wgt id="89">6.009e-12</wgt>
  <wgt id="90">6.02032e-12</wgt>
  <wgt id="91">6.0108e-12</wgt>
  <wgt id="92">6.0165e-12</wgt>
  <wgt id="93">6.01046e-12</wgt>
  <wgt id="94">5.99684e-12</wgt>
  <wgt id="95">6.01935e-12</wgt>
  <wgt id="96">6.01173e-12</wgt>
  <wgt id="97">5.98905e-12</wgt>
  <wgt id="98">6.00581e-12</wgt>
  <wgt id="99">5.99128e-12</wgt>
  <wgt id="100">6.01535e-12</wgt>
  <wgt id="101">6.00549e-12</wgt>
  <wgt id="102">6.00045e-12</wgt>
  <wgt id="103">6.01622e-12</wgt>
  <wgt id="104">5.99845e-12</wgt>
  <wgt id="105">6.01335e-12</wgt>
  <wgt id="106">5.99351e-12</wgt>
  <wgt id="107">6.02671e-12</wgt>
  <wgt id="108">5.99563e-12</wgt>
  <wgt id="109">6.00919e-12</wgt>
  <wgt id="110">6.00266e-12</wgt>
  <wgt id="111">6.03855e-12</wgt>
  <wgt id="112">6.03888e-12</wgt>
  <wgt id="113">8.17303e-12</wgt>
  <wgt id="114">8.10954e-12</wgt>
  <wgt id="115">7.97126e-12</wgt>
  <wgt id="116">1.07435e-11</wgt>
  <wgt id="117">6.57853e-12</wgt>
  <wgt id="118">6.59992e-12</wgt>
  <wgt id="119">6.56632e-12</wgt>
  <wgt id="120">6.57909e-12</wgt>
  <wgt id="121">6.57816e-12</wgt>
  <wgt id="122">6.56716e-12</wgt>
  <wgt id="123">6.59409e-12</wgt>
  <wgt id="124">6.56915e-12</wgt>
  <wgt id="125">6.58446e-12</wgt>
  <wgt id="126">6.58801e-12</wgt>
  <wgt id="127">6.57218e-12</wgt>
  <wgt id="128">6.59879e-12</wgt>
  <wgt id="129">6.55835e-12</wgt>
  <wgt id="130">6.61299e-12</wgt>
  <wgt id="131">6.54286e-12</wgt>
  <wgt id="132">6.40849e-12</wgt>
  <wgt id="133">6.77927e-12</wgt>
  <wgt id="134">6.51089e-12</wgt>
  <wgt id="135">6.63139e-12</wgt>
  <wgt id="136">6.66516e-12</wgt>
  <wgt id="137">6.47397e-12</wgt>
  <wgt id="138">6.83858e-12</wgt>
  <wgt id="139">6.32824e-12</wgt>
  <wgt id="140">6.53935e-12</wgt>
  <wgt id="141">6.60877e-12</wgt>
  <wgt id="142">6.5782e-12</wgt>
  <wgt id="143">6.592e-12</wgt>
  <wgt id="144">6.37614e-12</wgt>
  <wgt id="145">6.76851e-12</wgt>
  <wgt id="146">6.64185e-12</wgt>
  <wgt id="147">6.52768e-12</wgt>
  <wgt id="148">6.59939e-12</wgt>
  <wgt id="149">6.57702e-12</wgt>
  <wgt id="150">6.63301e-12</wgt>
  <wgt id="151">6.55296e-12</wgt>
  <wgt id="152">6.58061e-12</wgt>
  <wgt id="153">6.57775e-12</wgt>
  <wgt id="154">6.61823e-12</wgt>
  <wgt id="155">6.52598e-12</wgt>
  <wgt id="156">6.72894e-12</wgt>
  <wgt id="157">6.42677e-12</wgt>
  <wgt id="158">7.91015e-12</wgt>
  <wgt id="159">7.94333e-12</wgt>
  <wgt id="160">7.88339e-12</wgt>
  <wgt id="161">7.89182e-12</wgt>
  <wgt id="162">7.93043e-12</wgt>
  <wgt id="163">7.90204e-12</wgt>
  <wgt id="164">7.92187e-12</wgt>
  <wgt id="165">7.91328e-12</wgt>
  <wgt id="166">7.90778e-12</wgt>
  <wgt id="167">7.90436e-12</wgt>
  <wgt id="168">7.91815e-12</wgt>
  <wgt id="169">7.87629e-12</wgt>
  <wgt id="170">7.93118e-12</wgt>
  <wgt id="171">7.90351e-12</wgt>
  <wgt id="172">7.91928e-12</wgt>
  <wgt id="173">7.90414e-12</wgt>
  <wgt id="174">7.91214e-12</wgt>
  <wgt id="175">7.69539e-12</wgt>
  <wgt id="176">8.18969e-12</wgt>
  <wgt id="177">7.94741e-12</wgt>
  <wgt id="178">7.87586e-12</wgt>
  <wgt id="179">8.25169e-12</wgt>
  <wgt id="180">7.37419e-12</wgt>
  <wgt id="181">7.67809e-12</wgt>
  <wgt id="182">8.06378e-12</wgt>
  <wgt id="183">7.76872e-12</wgt>
  <wgt id="184">7.98014e-12</wgt>
  <wgt id="185">7.83805e-12</wgt>
  <wgt id="186">7.99565e-12</wgt>
  <wgt id="187">7.83297e-12</wgt>
  <wgt id="188">8.04703e-12</wgt>
  <wgt id="189">7.85742e-12</wgt>
  <wgt id="190">7.93152e-12</wgt>
  <wgt id="191">7.93365e-12</wgt>
  <wgt id="192">7.89608e-12</wgt>
  <wgt id="193">8.02362e-12</wgt>
  <wgt id="194">7.85339e-12</wgt>
  <wgt id="195">7.70614e-12</wgt>
  <wgt id="196">8.26634e-12</wgt>
  <wgt id="197">7.94887e-12</wgt>
  <wgt id="198">7.90073e-12</wgt>
  <wgt id="199">7.91015e-12</wgt>
  <wgt id="200">7.97906e-12</wgt>
  <wgt id="201">7.95459e-12</wgt>
  <wgt id="202">7.93108e-12</wgt>
  <wgt id="203">7.89614e-12</wgt>
  <wgt id="204">7.87925e-12</wgt>
  <wgt id="205">7.86501e-12</wgt>
  <wgt id="206">7.73187e-12</wgt>
  <wgt id="207">7.77702e-12</wgt>
  <wgt id="208">7.68725e-12</wgt>
  <wgt id="209">7.75214e-12</wgt>
  <wgt id="210">7.71715e-12</wgt>
  <wgt id="211">7.7297e-12</wgt>
  <wgt id="212">7.73346e-12</wgt>
  <wgt id="213">7.73113e-12</wgt>
  <wgt id="214">7.73288e-12</wgt>
  <wgt id="215">7.73674e-12</wgt>
  <wgt id="216">7.7284e-12</wgt>
  <wgt id="217">7.75065e-12</wgt>
  <wgt id="218">7.71742e-12</wgt>
  <wgt id="219">7.72056e-12</wgt>
  <wgt id="220">7.73865e-12</wgt>
  <wgt id="221">7.73156e-12</wgt>
  <wgt id="222">7.73166e-12</wgt>
  <wgt id="223">7.33002e-12</wgt>
  <wgt id="224">8.09829e-12</wgt>
  <wgt id="225">7.64309e-12</wgt>
  <wgt id="226">7.84401e-12</wgt>
  <wgt id="227">7.66175e-12</wgt>
  <wgt id="228">7.76266e-12</wgt>
  <wgt id="229">7.62809e-12</wgt>
  <wgt id="230">7.78331e-12</wgt>
  <wgt id="231">7.95973e-12</wgt>
  <wgt id="232">7.54447e-12</wgt>
  <wgt id="233">7.6903e-12</wgt>
  <wgt id="234">7.79889e-12</wgt>
  <wgt id="235">7.52832e-12</wgt>
  <wgt id="236">7.90976e-12</wgt>
  <wgt id="237">7.60381e-12</wgt>
  <wgt id="238">7.77498e-12</wgt>
  <wgt id="239">7.67785e-12</wgt>
  <wgt id="240">7.82915e-12</wgt>
  <wgt id="241">7.65152e-12</wgt>
  <wgt id="242">7.82748e-12</wgt>
  <wgt id="243">7.82569e-12</wgt>
  <wgt id="244">7.75907e-12</wgt>
  <wgt id="245">7.72693e-12</wgt>
  <wgt id="246">7.78257e-12</wgt>
  <wgt id="247">7.73187e-12</wgt>
  <wgt id="248">7.80311e-12</wgt>
  <wgt id="249">7.77743e-12</wgt>
  <wgt id="250">7.75206e-12</wgt>
  <wgt id="251">7.71564e-12</wgt>
  <wgt id="252">7.69801e-12</wgt>
  <wgt id="253">7.6853e-12</wgt>
  <wgt id="254">7.51575e-12</wgt>
  <wgt id="255">7.52245e-12</wgt>
  <wgt id="256">7.50829e-12</wgt>
  <wgt id="257">7.52173e-12</wgt>
  <wgt id="258">7.51132e-12</wgt>
  <wgt id="259">7.5655e-12</wgt>
  <wgt id="260">7.46758e-12</wgt>
  <wgt id="261">7.52426e-12</wgt>
  <wgt id="262">7.50564e-12</wgt>
  <wgt id="263">7.51193e-12</wgt>
  <wgt id="264">7.51998e-12</wgt>
  <wgt id="265">7.50775e-12</wgt>
  <wgt id="266">7.5315e-12</wgt>
  <wgt id="267">7.51803e-12</wgt>
  <wgt id="268">7.51239e-12</wgt>
  <wgt id="269">7.53713e-12</wgt>
  <wgt id="270">7.5012e-12</wgt>
  <wgt id="271">7.49947e-12</wgt>
  <wgt id="272">7.53373e-12</wgt>
  <wgt id="273">7.49538e-12</wgt>
  <wgt id="274">7.53106e-12</wgt>
  <wgt id="275">7.48049e-12</wgt>
  <wgt id="276">7.55214e-12</wgt>
  <wgt id="277">7.47352e-12</wgt>
  <wgt id="278">7.55459e-12</wgt>
  <wgt id="279">7.38328e-12</wgt>
  <wgt id="280">7.6819e-12</wgt>
  <wgt id="281">7.4847e-12</wgt>
  <wgt id="282">7.51936e-12</wgt>
  <wgt id="283">7.30098e-12</wgt>
  <wgt id="284">7.78085e-12</wgt>
  <wgt id="285">7.15711e-12</wgt>
  <wgt id="286">7.81381e-12</wgt>
  <wgt id="287">7.53974e-12</wgt>
  <wgt id="288">7.48494e-12</wgt>
  <wgt id="289">7.56898e-12</wgt>
  <wgt id="290">7.39434e-12</wgt>
  <wgt id="291">7.49311e-12</wgt>
  <wgt id="292">7.51905e-12</wgt>
  <wgt id="293">7.45755e-12</wgt>
  <wgt id="294">7.57334e-12</wgt>
  <wgt id="295">7.37297e-12</wgt>
  <wgt id="296">7.68991e-12</wgt>
  <wgt id="297">7.51121e-12</wgt>
  <wgt id="298">7.54394e-12</wgt>
  <wgt id="299">7.49251e-12</wgt>
  <wgt id="300">7.57701e-12</wgt>
  <wgt id="301">7.41026e-12</wgt>
  <wgt id="302">7.77909e-12</wgt>
  <wgt id="303">7.45598e-12</wgt>
  <wgt id="304">7.54974e-12</wgt>
  <wgt id="305">7.50979e-12</wgt>
  <wgt id="306">7.51681e-12</wgt>
  <wgt id="307">7.50204e-12</wgt>
  <wgt id="308">7.51635e-12</wgt>
  <wgt id="309">7.50521e-12</wgt>
  <wgt id="310">7.56109e-12</wgt>
  <wgt id="311">7.4621e-12</wgt>
  <wgt id="312">7.51626e-12</wgt>
  <wgt id="313">7.50276e-12</wgt>
  <wgt id="314">7.50584e-12</wgt>
  <wgt id="315">7.5133e-12</wgt>
  <wgt id="316">7.50207e-12</wgt>
  <wgt id="317">7.52652e-12</wgt>
  <wgt id="318">7.51467e-12</wgt>
  <wgt id="319">7.50084e-12</wgt>
  <wgt id="320">7.53231e-12</wgt>
  <wgt id="321">7.49709e-12</wgt>
  <wgt id="322">7.49039e-12</wgt>
  <wgt id="323">7.53218e-12</wgt>
  <wgt id="324">7.49377e-12</wgt>
  <wgt id="325">7.52344e-12</wgt>
  <wgt id="326">7.48093e-12</wgt>
  <wgt id="327">7.54648e-12</wgt>
  <wgt id="328">7.47062e-12</wgt>
  <wgt id="329">7.53201e-12</wgt>
  <wgt id="330">7.71573e-12</wgt>
  <wgt id="331">7.31319e-12</wgt>
  <wgt id="332">7.48402e-12</wgt>
  <wgt id="333">7.51152e-12</wgt>
  <wgt id="334">7.34306e-12</wgt>
  <wgt id="335">7.71715e-12</wgt>
  <wgt id="336">7.2515e-12</wgt>
  <wgt id="337">7.8252e-12</wgt>
  <wgt id="338">7.5934e-12</wgt>
  <wgt id="339">7.43213e-12</wgt>
  <wgt id="340">7.55921e-12</wgt>
  <wgt id="341">7.38442e-12</wgt>
  <wgt id="342">7.49375e-12</wgt>
  <wgt id="343">7.50078e-12</wgt>
  <wgt id="344">7.45754e-12</wgt>
  <wgt id="345">7.57017e-12</wgt>
  <wgt id="346">7.36233e-12</wgt>
  <wgt id="347">7.67884e-12</wgt>
  <wgt id="348">7.50832e-12</wgt>
  <wgt id="349">7.53308e-12</wgt>
  <wgt id="350">7.48052e-12</wgt>
  <wgt id="351">7.58352e-12</wgt>
  <wgt id="352">7.39868e-12</wgt>
  <wgt id="353">7.77701e-12</wgt>
  <wgt id="354">7.4219e-12</wgt>
  <wgt id="355">7.56305e-12</wgt>
  <wgt id="356">7.51575e-12</wgt>
  <wgt id="357">7.53216e-12</wgt>
  <wgt id="358">7.50979e-12</wgt>
  <wgt id="359">7.53316e-12</wgt>
  <wgt id="360">7.58928e-12</wgt>
  <wgt id="361">7.54353e-12</wgt>
  <wgt id="362">7.67367e-12</wgt>
  <wgt id="363">7.65627e-12</wgt>
  <wgt id="364">7.62764e-12</wgt>
  <wgt id="365">7.60224e-12</wgt>
  <wgt id="366">7.57487e-12</wgt>
  <wgt id="367">7.51971e-12</wgt>
  <wgt id="368">7.48745e-12</wgt>
  <wgt id="369">7.4527e-12</wgt>
  <wgt id="370">7.54353e-12</wgt>
  <wgt id="371">7.57541e-12</wgt>
  <wgt id="372">7.5577e-12</wgt>
  <wgt id="373">7.5319e-12</wgt>
  <wgt id="374">7.5338e-12</wgt>
  <wgt id="375">8.225e-12</wgt>
  <wgt id="376">8.22547e-12</wgt>
  <wgt id="377">8.22423e-12</wgt>
  <wgt id="378">8.25497e-12</wgt>
  <wgt id="379">8.19525e-12</wgt>
  <wgt id="380">8.24814e-12</wgt>
  <wgt id="381">8.21578e-12</wgt>
  <wgt id="382">8.26254e-12</wgt>
  <wgt id="383">8.18782e-12</wgt>
  <wgt id="384">8.23015e-12</wgt>
  <wgt id="385">8.2199e-12</wgt>
  <wgt id="386">8.25254e-12</wgt>
  <wgt id="387">8.21321e-12</wgt>
  <wgt id="388">8.218e-12</wgt>
  <wgt id="389">8.23358e-12</wgt>
  <wgt id="390">8.24441e-12</wgt>
  <wgt id="391">8.20431e-12</wgt>
  <wgt id="392">8.16365e-12</wgt>
  <wgt id="393">8.25981e-12</wgt>
  <wgt id="394">8.23357e-12</wgt>
  <wgt id="395">8.2131e-12</wgt>
  <wgt id="396">8.23252e-12</wgt>
  <wgt id="397">8.21958e-12</wgt>
  <wgt id="398">8.20444e-12</wgt>
  <wgt id="399">8.24483e-12</wgt>
  <wgt id="400">8.21402e-12</wgt>
  <wgt id="401">8.24934e-12</wgt>
  <wgt id="402">8.16011e-12</wgt>
  <wgt id="403">8.25784e-12</wgt>
  <wgt id="404">8.42116e-12</wgt>
  <wgt id="405">7.75351e-12</wgt>
  <wgt id="406">8.08247e-12</wgt>
  <wgt id="407">8.53672e-12</wgt>
  <wgt id="408">8.29842e-12</wgt>
  <wgt id="409">8.08656e-12</wgt>
  <wgt id="410">7.99246e-12</wgt>
  <wgt id="411">8.33414e-12</wgt>
  <wgt id="412">8.20924e-12</wgt>
  <wgt id="413">8.24775e-12</wgt>
  <wgt id="414">8.13191e-12</wgt>
  <wgt id="415">8.29718e-12</wgt>
  <wgt id="416">8.45007e-12</wgt>
  <wgt id="417">7.91366e-12</wgt>
  <wgt id="418">8.2379e-12</wgt>
  <wgt id="419">8.15493e-12</wgt>
  <wgt id="420">8.3564e-12</wgt>
  <wgt id="421">8.14432e-12</wgt>
  <wgt id="422">8.20433e-12</wgt>
  <wgt id="423">8.23581e-12</wgt>
  <wgt id="424">8.40141e-12</wgt>
  <wgt id="425">8.10951e-12</wgt>
  <wgt id="426">8.225e-12</wgt>
  <wgt id="427">8.1262e-12</wgt>
  <wgt id="428">8.47707e-12</wgt>
  <wgt id="429">8.3061e-12</wgt>
  <wgt id="430">8.53974e-12</wgt>
  <wgt id="431">8.49329e-12</wgt>
  <wgt id="432">8.44958e-12</wgt>
  <wgt id="433">8.40696e-12</wgt>
  <wgt id="434">8.35416e-12</wgt>
  <wgt id="435">8.24606e-12</wgt>
  <wgt id="436">8.19067e-12</wgt>
  <wgt id="437">8.13767e-12</wgt>
  <wgt id="438">8.3061e-12</wgt>
  <wgt id="439">8.33223e-12</wgt>
  <wgt id="440">8.31644e-12</wgt>
  <wgt id="441">8.29826e-12</wgt>
  <wgt id="442">8.29208e-12</wgt>
  <wgt id="443">7.86238e-12</wgt>
  <wgt id="444">7.9209e-12</wgt>
  <wgt id="445">7.89012e-12</wgt>
  <wgt id="446">7.8066e-12</wgt>
  <wgt id="447">7.85749e-12</wgt>
  <wgt id="448">7.67272e-12</wgt>
  <wgt id="449">7.99286e-12</wgt>
  <wgt id="450">7.90193e-12</wgt>
  <wgt id="451">7.84551e-12</wgt>
  <wgt id="452">8.02611e-12</wgt>
  <wgt id="453">7.9341e-12</wgt>
  <wgt id="454">7.52182e-12</wgt>
  <wgt id="455">7.89825e-12</wgt>
  <wgt id="456">7.89806e-12</wgt>
  <wgt id="457">7.88628e-12</wgt>
  <wgt id="458">7.97755e-12</wgt>
  <wgt id="459">7.92594e-12</wgt>
  <wgt id="460">7.96066e-12</wgt>
  <wgt id="461">7.70662e-12</wgt>
  <wgt id="462">7.81329e-12</wgt>
  <wgt id="463">7.75987e-12</wgt>
  <wgt id="464">7.82669e-12</wgt>
  <wgt id="465">7.94029e-12</wgt>
  <wgt id="466">7.7413e-12</wgt>
  <wgt id="467">7.79738e-12</wgt>
  <wgt id="468">7.8477e-12</wgt>
  <wgt id="469">7.84905e-12</wgt>
  <wgt id="470">7.77179e-12</wgt>
  <wgt id="471">7.78777e-12</wgt>
  <wgt id="472">7.90047e-12</wgt>
  <wgt id="473">7.64019e-12</wgt>
  <wgt id="474">5.79e-12</wgt>
  <wgt id="475">5.89124e-12</wgt>
  <wgt id="476">5.70406e-12</wgt>
  <wgt id="477">5.68158e-12</wgt>
  <wgt id="478">5.84318e-12</wgt>
  <wgt id="479">5.63827e-12</wgt>
  <wgt id="480">6.04582e-12</wgt>
  <wgt id="481">5.78561e-12</wgt>
  <wgt id="482">5.72897e-12</wgt>
  <wgt id="483">5.67495e-12</wgt>
  <wgt id="484">5.97672e-12</wgt>
  <wgt id="485">5.56882e-12</wgt>
  <wgt id="486">6.06607e-12</wgt>
  <wgt id="487">5.76149e-12</wgt>
  <wgt id="488">5.90115e-12</wgt>
  <wgt id="489">5.44372e-12</wgt>
  <wgt id="490">5.58165e-12</wgt>
  <wgt id="491">5.76619e-12</wgt>
  <wgt id="492">5.70216e-12</wgt>
  <wgt id="493">5.51018e-12</wgt>
  <wgt id="494">5.55982e-12</wgt>
  <wgt id="495">5.79912e-12</wgt>
  <wgt id="496">5.58722e-12</wgt>
  <wgt id="497">5.52071e-12</wgt>
  <wgt id="498">5.95382e-12</wgt>
  <wgt id="499">5.75355e-12</wgt>
  <wgt id="500">5.66012e-12</wgt>
  <wgt id="501">5.98806e-12</wgt>
  <wgt id="502">5.81773e-12</wgt>
  <wgt id="503">5.78285e-12</wgt>
  <wgt id="504">5.92908e-12</wgt>
  <wgt id="505">5.78092e-12</wgt>
  <wgt id="506">5.68296e-12</wgt>
  <wgt id="507">5.79589e-12</wgt>
  <wgt id="508">6.02094e-12</wgt>
  <wgt id="509">5.40227e-12</wgt>
  <wgt id="510">5.88471e-12</wgt>
  <wgt id="511">5.57435e-12</wgt>
  <wgt id="512">6.00703e-12</wgt>
  <wgt id="513">5.9747e-12</wgt>
  <wgt id="514">5.91669e-12</wgt>
  <wgt id="515">5.80645e-12</wgt>
  <wgt id="516">6.16913e-12</wgt>
  <wgt id="517">5.92392e-12</wgt>
  <wgt id="518">5.95741e-12</wgt>
  <wgt id="519">5.61504e-12</wgt>
  <wgt id="520">5.9186e-12</wgt>
  <wgt id="521">5.86107e-12</wgt>
  <wgt id="522">6.03905e-12</wgt>
  <wgt id="523">5.66054e-12</wgt>
  <wgt id="524">5.74399e-12</wgt>
  <wgt id="525">5.88915e-12</wgt>
  <wgt id="526">5.91217e-12</wgt>
  <wgt id="527">5.7918e-12</wgt>
  <wgt id="528">5.81943e-12</wgt>
  <wgt id="529">5.69261e-12</wgt>
  <wgt id="530">5.9743e-12</wgt>
  <wgt id="531">5.65889e-12</wgt>
  <wgt id="532">6.17128e-12</wgt>
  <wgt id="533">5.60988e-12</wgt>
  <wgt id="534">5.72346e-12</wgt>
  <wgt id="535">5.78626e-12</wgt>
  <wgt id="536">5.80756e-12</wgt>
  <wgt id="537">5.70778e-12</wgt>
  <wgt id="538">5.82164e-12</wgt>
  <wgt id="539">5.69073e-12</wgt>
  <wgt id="540">5.87811e-12</wgt>
  <wgt id="541">5.66362e-12</wgt>
  <wgt id="542">5.73348e-12</wgt>
  <wgt id="543">5.74158e-12</wgt>
  <wgt id="544">5.97615e-12</wgt>
  <wgt id="545">5.62218e-12</wgt>
  <wgt id="546">5.5165e-12</wgt>
  <wgt id="547">5.65981e-12</wgt>
  <wgt id="548">5.56113e-12</wgt>
  <wgt id="549">5.70253e-12</wgt>
  <wgt id="550">5.66866e-12</wgt>
  <wgt id="551">5.86629e-12</wgt>
  <wgt id="552">5.50361e-12</wgt>
  <wgt id="553">5.65771e-12</wgt>
  <wgt id="554">6.15334e-12</wgt>
  <wgt id="555">5.94345e-12</wgt>
  <wgt id="556">5.58165e-12</wgt>
  <wgt id="557">5.94761e-12</wgt>
  <wgt id="558">5.68712e-12</wgt>
  <wgt id="559">5.66122e-12</wgt>
  <wgt id="560">6.35742e-12</wgt>
  <wgt id="561">5.7803e-12</wgt>
  <wgt id="562">5.98849e-12</wgt>
  <wgt id="563">5.99803e-12</wgt>
  <wgt id="564">6.01082e-12</wgt>
  <wgt id="565">5.73907e-12</wgt>
  <wgt id="566">5.82097e-12</wgt>
  <wgt id="567">5.75969e-12</wgt>
  <wgt id="568">5.72826e-12</wgt>
  <wgt id="569">5.89528e-12</wgt>
  <wgt id="570">5.5502e-12</wgt>
  <wgt id="571">6.37412e-12</wgt>
  <wgt id="572">5.69405e-12</wgt>
  <wgt id="573">5.61665e-12</wgt>
  <wgt id="574">5.63693e-12</wgt>
  <wgt id="575">6.35963e-12</wgt>
  <wgt id="576">6.58826e-12</wgt>
  <wgt id="577">6.58738e-12</wgt>
  <wgt id="578">6.56121e-12</wgt>
  <wgt id="579">6.56824e-12</wgt>
  <wgt id="580">6.65278e-12</wgt>
  <wgt id="581">6.9077e-12</wgt>
  <wgt id="582">6.56814e-12</wgt>
  <wgt id="583">6.42225e-12</wgt>
  <wgt id="584">6.31437e-12</wgt>
  <wgt id="585">6.1293e-12</wgt>
  <wgt id="586">6.10963e-12</wgt>
  <wgt id="587">6.47302e-12</wgt>
  <wgt id="588">6.52162e-12</wgt>
  <wgt id="589">6.66522e-12</wgt>
  <wgt id="590">6.3312e-12</wgt>
  <wgt id="591">6.57574e-12</wgt>
  <wgt id="592">5.92557e-12</wgt>
  <wgt id="593">6.26087e-12</wgt>
  <wgt id="594">6.43694e-12</wgt>
  <wgt id="595">6.47127e-12</wgt>
  <wgt id="596">6.84224e-12</wgt>
  <wgt id="597">6.3277e-12</wgt>
  <wgt id="598">6.15291e-12</wgt>
  <wgt id="599">6.65789e-12</wgt>
  <wgt id="600">6.47486e-12</wgt>
  <wgt id="601">6.15885e-12</wgt>
  <wgt id="602">6.16551e-12</wgt>
  <wgt id="603">6.12358e-12</wgt>
  <wgt id="604">6.47352e-12</wgt>
  <wgt id="605">6.54376e-12</wgt>
  <wgt id="606">6.42023e-12</wgt>
  <wgt id="607">6.44307e-12</wgt>
  <wgt id="608">6.52682e-12</wgt>
  <wgt id="609">6.18333e-12</wgt>
  <wgt id="610">6.13158e-12</wgt>
  <wgt id="611">6.23998e-12</wgt>
  <wgt id="612">6.6911e-12</wgt>
  <wgt id="613">6.24366e-12</wgt>
  <wgt id="614">6.34405e-12</wgt>
  <wgt id="615">6.34409e-12</wgt>
  <wgt id="616">6.46499e-12</wgt>
  <wgt id="617">6.53701e-12</wgt>
  <wgt id="618">6.87985e-12</wgt>
  <wgt id="619">6.2724e-12</wgt>
  <wgt id="620">6.58695e-12</wgt>
  <wgt id="621">6.33071e-12</wgt>
  <wgt id="622">6.47302e-12</wgt>
  <wgt id="623">6.48806e-12</wgt>
  <wgt id="624">6.38902e-12</wgt>
  <wgt id="625">6.18971e-12</wgt>
  <wgt id="626">5.99265e-12</wgt>
  <wgt id="627">5.98839e-12</wgt>
  <wgt id="628">6.40426e-12</wgt>
  <wgt id="629">6.32816e-12</wgt>
  <wgt id="630">6.11331e-12</wgt>
  <wgt id="631">6.43328e-12</wgt>
  <wgt id="632">5.9802e-12</wgt>
  <wgt id="633">6.33805e-12</wgt>
  <wgt id="634">6.19767e-12</wgt>
  <wgt id="635">5.99884e-12</wgt>
  <wgt id="636">6.45695e-12</wgt>
  <wgt id="637">6.33526e-12</wgt>
  <wgt id="638">6.1437e-12</wgt>
  <wgt id="639">6.22294e-12</wgt>
  <wgt id="640">6.32414e-12</wgt>
  <wgt id="641">6.55009e-12</wgt>
  <wgt id="642">5.99745e-12</wgt>
  <wgt id="643">6.28216e-12</wgt>
  <wgt id="644">5.81149e-12</wgt>
  <wgt id="645">6.37606e-12</wgt>
  <wgt id="646">6.14411e-12</wgt>
  <wgt id="647">6.33655e-12</wgt>
  <wgt id="648">6.52248e-12</wgt>
  <wgt id="649">6.39461e-12</wgt>
  <wgt id="650">6.14436e-12</wgt>
  <wgt id="651">6.64733e-12</wgt>
  <wgt id="652">6.21527e-12</wgt>
  <wgt id="653">6.14431e-12</wgt>
  <wgt id="654">6.25589e-12</wgt>
  <wgt id="655">6.25896e-12</wgt>
  <wgt id="656">6.37084e-12</wgt>
  <wgt id="657">6.851e-12</wgt>
  <wgt id="658">6.34582e-12</wgt>
  <wgt id="659">6.0983e-12</wgt>
  <wgt id="660">6.35882e-12</wgt>
  <wgt id="661">6.26323e-12</wgt>
  <wgt id="662">6.31255e-12</wgt>
  <wgt id="663">6.42465e-12</wgt>
  <wgt id="664">6.3554e-12</wgt>
  <wgt id="665">6.35389e-12</wgt>
  <wgt id="666">6.26926e-12</wgt>
  <wgt id="667">6.63146e-12</wgt>
  <wgt id="668">6.33828e-12</wgt>
  <wgt id="669">6.45773e-12</wgt>
  <wgt id="670">6.58366e-12</wgt>
  <wgt id="671">6.37421e-12</wgt>
  <wgt id="672">6.12233e-12</wgt>
  <wgt id="673">6.54529e-12</wgt>
  <wgt id="674">6.19815e-12</wgt>
  <wgt id="675">6.27068e-12</wgt>
  <wgt id="676">8.07166e-12</wgt>
  <wgt id="677">8.18088e-12</wgt>
  <wgt id="678">8.58669e-12</wgt>
  <wgt id="679">7.83228e-12</wgt>
  <wgt id="680">8.02998e-12</wgt>
  <wgt id="681">8.0797e-12</wgt>
  <wgt id="682">8.38652e-12</wgt>
  <wgt id="683">7.78381e-12</wgt>
  <wgt id="684">8.3991e-12</wgt>
  <wgt id="685">7.91541e-12</wgt>
  <wgt id="686">7.85856e-12</wgt>
  <wgt id="687">8.32552e-12</wgt>
  <wgt id="688">7.92351e-12</wgt>
  <wgt id="689">8.42306e-12</wgt>
  <wgt id="690">8.3134e-12</wgt>
  <wgt id="691">8.40435e-12</wgt>
  <wgt id="692">7.96631e-12</wgt>
  <wgt id="693">9.82549e-12</wgt>
  <wgt id="694">8.66953e-12</wgt>
  <wgt id="695">7.77874e-12</wgt>
  <wgt id="696">7.84389e-12</wgt>
  <wgt id="697">7.65471e-12</wgt>
  <wgt id="698">7.11648e-12</wgt>
  <wgt id="699">7.12483e-12</wgt>
  <wgt id="700">7.15348e-12</wgt>
  <wgt id="701">8.06048e-12</wgt>
  <wgt id="702">7.95906e-12</wgt>
  <wgt id="703">9.42156e-12</wgt>
  <wgt id="704">8.92037e-12</wgt>
  <wgt id="705">8.78805e-12</wgt>
  <wgt id="706">7.69441e-12</wgt>
  <wgt id="707">7.6947e-12</wgt>
  <wgt id="708">7.86558e-12</wgt>
  <wgt id="709">7.87013e-12</wgt>
  <wgt id="710">7.3303e-12</wgt>
  <wgt id="711">8.13138e-12</wgt>
  <wgt id="712">7.74431e-12</wgt>
  <wgt id="713">8.68332e-12</wgt>
  <wgt id="714">7.6378e-12</wgt>
  <wgt id="715">7.89824e-12</wgt>
  <wgt id="716">7.79003e-12</wgt>
  <wgt id="717">7.4422e-12</wgt>
  <wgt id="718">8.20922e-12</wgt>
  <wgt id="719">7.35872e-12</wgt>
  <wgt id="720">7.91331e-12</wgt>
  <wgt id="721">7.15409e-12</wgt>
  <wgt id="722">6.92172e-12</wgt>
  <wgt id="723">8.73266e-12</wgt>
  <wgt id="724">8.55249e-12</wgt>
  <wgt id="725">8.41632e-12</wgt>
  <wgt id="726">8.06027e-12</wgt>
  <wgt id="727">7.98055e-12</wgt>
  <wgt id="728">7.82325e-12</wgt>
  <wgt id="729">7.80837e-12</wgt>
  <wgt id="730">8.68408e-12</wgt>
  <wgt id="731">7.91147e-12</wgt>
  <wgt id="732">9.03195e-12</wgt>
  <wgt id="733">7.77775e-12</wgt>
  <wgt id="734">8.25398e-12</wgt>
  <wgt id="735">8.19161e-12</wgt>
  <wgt id="736">7.73218e-12</wgt>
  <wgt id="737">8.00425e-12</wgt>
  <wgt id="738">7.7433e-12</wgt>
  <wgt id="739">8.46032e-12</wgt>
  <wgt id="740">9.09579e-12</wgt>
  <wgt id="741">7.64704e-12</wgt>
  <wgt id="742">7.96423e-12</wgt>
  <wgt id="743">7.58656e-12</wgt>
  <wgt id="744">7.90584e-12</wgt>
  <wgt id="745">8.50034e-12</wgt>
  <wgt id="746">8.69197e-12</wgt>
  <wgt id="747">7.0577e-12</wgt>
  <wgt id="748">7.94901e-12</wgt>
  <wgt id="749">8.35822e-12</wgt>
  <wgt id="750">8.58877e-12</wgt>
  <wgt id="751">8.16395e-12</wgt>
  <wgt id="752">7.38678e-12</wgt>
  <wgt id="753">7.49078e-12</wgt>
  <wgt id="754">8.41135e-12</wgt>
  <wgt id="755">8.00351e-12</wgt>
  <wgt id="756">7.96614e-12</wgt>
  <wgt id="757">7.29209e-12</wgt>
  <wgt id="758">7.9547e-12</wgt>
  <wgt id="759">8.74809e-12</wgt>
  <wgt id="760">7.96096e-12</wgt>
  <wgt id="761">8.61999e-12</wgt>
  <wgt id="762">8.64921e-12</wgt>
  <wgt id="763">8.07383e-12</wgt>
  <wgt id="764">8.43468e-12</wgt>
  <wgt id="765">8.20333e-12</wgt>
  <wgt id="766">8.0887e-12</wgt>
  <wgt id="767">8.21399e-12</wgt>
  <wgt id="768">7.51486e-12</wgt>
  <wgt id="769">8.52616e-12</wgt>
  <wgt id="770">7.88694e-12</wgt>
  <wgt id="771">9.53532e-12</wgt>
  <wgt id="772">7.77357e-12</wgt>
  <wgt id="773">8.01907e-12</wgt>
  <wgt id="774">6.81313e-12</wgt>
  <wgt id="775">8.43841e-12</wgt>
  <wgt id="776">8.79146e-12</wgt>
  <wgt id="777">7.48944e-12</wgt>
  <wgt id="778">5.74983e-12</wgt>
  <wgt id="779">4.29268e-12</wgt>
  <wgt id="780">3.18152e-12</wgt>
  <wgt id="781">6.58584e-12</wgt>
  <wgt id="782">6.4607e-12</wgt>
  <wgt id="783">4.2183e-12</wgt>
  <wgt id="784">4.6824e-12</wgt>
  <wgt id="785">7.64165e-12</wgt>
  <wgt id="786">4.12768e-12</wgt>
  <wgt id="787">6.82185e-12</wgt>
  <wgt id="788">2.75025e-12</wgt>
  <wgt id="789">4.6847e-12</wgt>
  <wgt id="790">4.02861e-12</wgt>
  <wgt id="791">5.99706e-12</wgt>
  <wgt id="792">7.69338e-12</wgt>
  <wgt id="793">5.65977e-12</wgt>
  <wgt id="794">3.86646e-12</wgt>
  <wgt id="795">7.11377e-12</wgt>
  <wgt id="796">7.68146e-12</wgt>
  <wgt id="797">7.09116e-12</wgt>
  <wgt id="798">4.88598e-12</wgt>
  <wgt id="799">6.70257e-12</wgt>
  <wgt id="800">4.75574e-12</wgt>
  <wgt id="801">5.30593e-12</wgt>
  <wgt id="802">3.82782e-12</wgt>
  <wgt id="803">8.47779e-12</wgt>
  <wgt id="804">7.13741e-12</wgt>
  <wgt id="805">7.03226e-12</wgt>
  <wgt id="806">6.26782e-12</wgt>
  <wgt id="807">5.51769e-12</wgt>
  <wgt id="808">5.47482e-12</wgt>
  <wgt id="809">5.33922e-12</wgt>
  <wgt id="810">6.32029e-12</wgt>
  <wgt id="811">6.11073e-12</wgt>
  <wgt id="812">4.02271e-12</wgt>
  <wgt id="813">4.20387e-12</wgt>
  <wgt id="814">4.51652e-12</wgt>
  <wgt id="815">4.22994e-12</wgt>
  <wgt id="816">4.10129e-12</wgt>
  <wgt id="817">5.84452e-12</wgt>
  <wgt id="818">6.47137e-12</wgt>
  <wgt id="819">4.29062e-12</wgt>
  <wgt id="820">5.60748e-12</wgt>
  <wgt id="821">6.64881e-12</wgt>
  <wgt id="822">4.64814e-12</wgt>
  <wgt id="823">6.86352e-12</wgt>
  <wgt id="824">8.16155e-12</wgt>
  <wgt id="825">3.734e-12</wgt>
  <wgt id="826">6.49033e-12</wgt>
  <wgt id="827">3.18238e-12</wgt>
  <wgt id="828">7.33222e-12</wgt>
  <wgt id="829">5.9127e-12</wgt>
  <wgt id="830">3.5482e-12</wgt>
  <wgt id="831">6.38604e-12</wgt>
  <wgt id="832">9.65395e-12</wgt>
  <wgt id="833">5.01195e-12</wgt>
  <wgt id="834">9.28341e-12</wgt>
  <wgt id="835">4.53601e-12</wgt>
  <wgt id="836">5.24307e-12</wgt>
  <wgt id="837">6.55026e-12</wgt>
  <wgt id="838">5.07686e-12</wgt>
  <wgt id="839">6.3407e-12</wgt>
  <wgt id="840">5.15241e-12</wgt>
  <wgt id="841">7.46187e-12</wgt>
  <wgt id="842">5.41077e-12</wgt>
  <wgt id="843">5.9667e-12</wgt>
  <wgt id="844">6.11745e-12</wgt>
  <wgt id="845">9.08921e-12</wgt>
  <wgt id="846">6.02003e-12</wgt>
  <wgt id="847">5.98652e-12</wgt>
  <wgt id="848">4.39209e-12</wgt>
  <wgt id="849">6.00671e-12</wgt>
  <wgt id="850">7.91607e-12</wgt>
  <wgt id="851">6.47467e-12</wgt>
  <wgt id="852">4.09318e-12</wgt>
  <wgt id="853">6.62114e-12</wgt>
  <wgt id="854">7.35748e-12</wgt>
  <wgt id="855">6.71677e-12</wgt>
  <wgt id="856">3.56979e-12</wgt>
  <wgt id="857">5.42476e-12</wgt>
  <wgt id="858">5.37271e-12</wgt>
  <wgt id="859">5.47561e-12</wgt>
  <wgt id="860">6.7153e-12</wgt>
  <wgt id="861">4.98052e-12</wgt>
  <wgt id="862">5.79761e-12</wgt>
  <wgt id="863">6.30489e-12</wgt>
  <wgt id="864">6.03545e-12</wgt>
  <wgt id="865">8.47286e-12</wgt>
  <wgt id="866">9.43017e-12</wgt>
  <wgt id="867">5.83692e-12</wgt>
  <wgt id="868">5.70374e-12</wgt>
  <wgt id="869">4.03194e-12</wgt>
  <wgt id="870">4.3793e-12</wgt>
  <wgt id="871">4.2703e-12</wgt>
  <wgt id="872">7.35287e-12</wgt>
  <wgt id="873">4.78762e-12</wgt>
  <wgt id="874">6.16919e-12</wgt>
  <wgt id="875">4.81572e-12</wgt>
  <wgt id="876">7.1871e-12</wgt>
  <wgt id="877">6.48316e-12</wgt>
  <wgt id="878">4.70315e-12</wgt>
  <wgt id="879">8.07166e-12</wgt>
  <wgt id="880">8.18088e-12</wgt>
  <wgt id="881">8.58669e-12</wgt>
  <wgt id="882">7.83228e-12</wgt>
  <wgt id="883">8.02998e-12</wgt>
  <wgt id="884">8.0797e-12</wgt>
  <wgt id="885">8.38652e-12</wgt>
  <wgt id="886">7.78381e-12</wgt>
  <wgt id="887">8.3991e-12</wgt>
  <wgt id="888">7.91541e-12</wgt>
  <wgt id="889">7.85856e-12</wgt>
  <wgt id="890">8.32552e-12</wgt>
  <wgt id="891">7.92351e-12</wgt>
  <wgt id="892">8.42306e-12</wgt>
  <wgt id="893">8.3134e-12</wgt>
  <wgt id="894">8.40435e-12</wgt>
  <wgt id="895">7.96631e-12</wgt>
  <wgt id="896">9.82549e-12</wgt>
  <wgt id="897">8.66953e-12</wgt>
  <wgt id="898">7.77874e-12</wgt>
  <wgt id="899">7.84389e-12</wgt>
  <wgt id="900">7.65471e-12</wgt>
  <wgt id="901">7.11648e-12</wgt>
  <wgt id="902">7.12483e-12</wgt>
  <wgt id="903">7.15348e-12</wgt>
  <wgt id="904">8.06048e-12</wgt>
  <wgt id="905">7.95906e-12</wgt>
  <wgt id="906">9.42156e-12</wgt>
  <wgt id="907">8.92037e-12</wgt>
  <wgt id="908">8.78805e-12</wgt>
  <wgt id="909">7.69441e-12</wgt>
  <wgt id="910">7.6947e-12</wgt>
  <wgt id="911">7.86558e-12</wgt>
  <wgt id="912">7.87013e-12</wgt>
  <wgt id="913">7.3303e-12</wgt>
  <wgt id="914">8.13138e-12</wgt>
  <wgt id="915">7.74431e-12</wgt>
  <wgt id="916">8.68332e-12</wgt>
  <wgt id="917">7.6378e-12</wgt>
  <wgt id="918">7.89824e-12</wgt>
  <wgt id="919">7.79003e-12</wgt>
  <wgt id="920">7.4422e-12</wgt>
  <wgt id="921">8.20922e-12</wgt>
  <wgt id="922">7.35872e-12</wgt>
  <wgt id="923">7.91331e-12</wgt>
  <wgt id="924">7.15409e-12</wgt>
  <wgt id="925">6.92172e-12</wgt>
  <wgt id="926">8.73266e-12</wgt>
  <wgt id="927">8.55249e-12</wgt>
  <wgt id="928">8.41632e-12</wgt>
  <wgt id="929">8.06027e-12</wgt>
  <wgt id="930">7.98055e-12</wgt>
  <wgt id="931">7.82325e-12</wgt>
  <wgt id="932">7.80837e-12</wgt>
  <wgt id="933">8.68408e-12</wgt>
  <wgt id="934">7.91147e-12</wgt>
  <wgt id="935">9.03195e-12</wgt>
  <wgt id="936">7.77775e-12</wgt>
  <wgt id="937">8.25398e-12</wgt>
  <wgt id="938">8.19161e-12</wgt>
  <wgt id="939">7.73218e-12</wgt>
  <wgt id="940">8.00425e-12</wgt>
  <wgt id="941">7.7433e-12</wgt>
  <wgt id="942">8.46032e-12</wgt>
  <wgt id="943">9.09579e-12</wgt>
  <wgt id="944">7.64704e-12</wgt>
  <wgt id="945">7.96423e-12</wgt>
  <wgt id="946">7.58656e-12</wgt>
  <wgt id="947">7.90584e-12</wgt>
  <wgt id="948">8.50034e-12</wgt>
  <wgt id="949">8.69197e-12</wgt>
  <wgt id="950">7.0577e-12</wgt>
  <wgt id="951">7.94901e-12</wgt>
  <wgt id="952">8.35822e-12</wgt>
  <wgt id="953">8.58877e-12</wgt>
  <wgt id="954">8.16395e-12</wgt>
  <wgt id="955">7.38678e-12</wgt>
  <wgt id="956">7.49078e-12</wgt>
  <wgt id="957">8.41135e-12</wgt>
  <wgt id="958">8.00351e-12</wgt>
  <wgt id="959">7.96614e-12</wgt>
  <wgt id="960">7.29209e-12</wgt>
  <wgt id="961">7.9547e-12</wgt>
  <wgt id="962">8.74809e-12</wgt>
  <wgt id="963">7.96096e-12</wgt>
  <wgt id="964">8.61999e-12</wgt>
  <wgt id="965">8.64921e-12</wgt>
  <wgt id="966">8.07383e-12</wgt>
  <wgt id="967">8.43468e-12</wgt>
  <wgt id="968">8.20333e-12</wgt>
  <wgt id="969">8.0887e-12</wgt>
  <wgt id="970">8.21399e-12</wgt>
  <wgt id="971">7.51486e-12</wgt>
  <wgt id="972">8.52616e-12</wgt>
  <wgt id="973">7.88694e-12</wgt>
  <wgt id="974">9.53532e-12</wgt>
  <wgt id="975">7.77357e-12</wgt>
  <wgt id="976">8.01907e-12</wgt>
  <wgt id="977">6.81313e-12</wgt>
  <wgt id="978">8.43841e-12</wgt>
  <wgt id="979">8.79146e-12</wgt>
  <wgt id="980">8.03911e-12</wgt>
  <wgt id="981">8.14929e-12</wgt>
  <wgt id="982">7.81622e-12</wgt>
</rwgt>
</event>
<event>
 5   1  0.5790000E-11  0.2140246E+04  0.7818608E-02  0.7771759E-01
       21   -1    0    0  502  501  0.00000000000E+00  0.00000000000E+00  0.11701138601E+04  0.11701138601E+04  0.00000000000E+00 0.  1.
       21   -1    0    0  501  502 -0.00000000000E+00 -0.00000000000E+00 -0.97867645816E+03  0.97867645816E+03  0.00000000000E+00 0. -1.
       39    2    1    2    0    0  0.00000000000E+00  0.00000000000E+00  0.19143740199E+03  0.21487903183E+04  0.21402456759E+04 0.  0.
       25    1    3    3    0    0  0.84889741405E+03  0.58275013001E+03  0.36004408365E+03  0.10979441132E+04  0.12500000000E+03 0.  0.
       25    1    3    3    0    0 -0.84889741405E+03 -0.58275013001E+03 -0.16860668167E+03  0.10508462051E+04  0.12500000000E+03 0.  0.
<mgrwt>
<rscale>  0 0.21402457E+04</rscale>
<asrwt>0</asrwt>
<pdfrwt beam="1">  1       21 0.18001752E+00 0.21402457E+04</pdfrwt>
<pdfrwt beam="2">  1       21 0.15056561E+00 0.21402457E+04</pdfrwt>
<totfact> 0.22670020E+01</totfact>
</mgrwt>
<rwgt>
  <wgt id="1">5.79e-12</wgt>
  <wgt id="2">5.06301e-12</wgt>
  <wgt id="3">6.68802e-12</wgt>
  <wgt id="4">5.79e-12</wgt>
  <wgt id="5">5.06301e-12</wgt>
  <wgt id="6">6.68802e-12</wgt>
  <wgt id="7">5.79e-12</wgt>
  <wgt id="8">5.06301e-12</wgt>
  <wgt id="9">6.68802e-12</wgt>
  <wgt id="10">5.94071e-12</wgt>
  <wgt id="11">5.93479e-12</wgt>
  <wgt id="12">5.92918e-12</wgt>
  <wgt id="13">5.92037e-12</wgt>
  <wgt id="14">5.96152e-12</wgt>
  <wgt id="15">5.94886e-12</wgt>
  <wgt id="16">5.92696e-12</wgt>
  <wgt id="17">5.95002e-12</wgt>
  <wgt id="18">5.93367e-12</wgt>
  <wgt id="19">5.95252e-12</wgt>
  <wgt id="20">5.92302e-12</wgt>
  <wgt id="21">5.911e-12</wgt>
  <wgt id="22">5.92434e-12</wgt>
  <wgt id="23">5.89224e-12</wgt>
  <wgt id="24">5.91565e-12</wgt>
  <wgt id="25">5.92613e-12</wgt>
  <wgt id="26">5.9654e-12</wgt>
  <wgt id="27">5.94012e-12</wgt>
  <wgt id="28">5.91273e-12</wgt>
  <wgt id="29">5.9474e-12</wgt>
  <wgt id="30">5.92641e-12</wgt>
  <wgt id="31">5.95569e-12</wgt>
  <wgt id="32">5.92767e-12</wgt>
  <wgt id="33">5.95285e-12</wgt>
  <wgt id="34">5.92438e-12</wgt>
  <wgt id="35">5.93276e-12</wgt>
  <wgt id="36">5.95279e-12</wgt>
  <wgt id="37">5.92565e-12</wgt>
  <wgt id="38">5.92753e-12</wgt>
  <wgt id="39">5.99995e-12</wgt>
  <wgt id="40">5.95674e-12</wgt>
  <wgt id="41">5.93928e-12</wgt>
  <wgt id="42">5.96211e-12</wgt>
  <wgt id="43">5.94783e-12</wgt>
  <wgt id="44">5.91335e-12</wgt>
  <wgt id="45">5.94845e-12</wgt>
  <wgt id="46">5.94696e-12</wgt>
  <wgt id="47">5.91281e-12</wgt>
  <wgt id="48">5.94204e-12</wgt>
  <wgt id="49">5.96879e-12</wgt>
  <wgt id="50">5.98146e-12</wgt>
  <wgt id="51">5.96567e-12</wgt>
  <wgt id="52">5.91387e-12</wgt>
  <wgt id="53">5.90808e-12</wgt>
  <wgt id="54">5.92915e-12</wgt>
  <wgt id="55">5.93877e-12</wgt>
  <wgt id="56">5.95678e-12</wgt>
  <wgt id="57">5.96128e-12</wgt>
  <wgt id="58">5.90016e-12</wgt>
  <wgt id="59">5.92168e-12</wgt>
  <wgt id="60">5.94134e-12</wgt>
  <wgt id="61">5.93926e-12</wgt>
  <wgt id="62">5.94318e-12</wgt>
  <wgt id="63">5.95043e-12</wgt>
  <wgt id="64">5.9477e-12</wgt>
  <wgt id="65">5.94487e-12</wgt>
  <wgt id="66">5.93424e-12</wgt>
  <wgt id="67">5.93741e-12</wgt>
  <wgt id="68">5.93475e-12</wgt>
  <wgt id="69">5.93788e-12</wgt>
  <wgt id="70">5.93639e-12</wgt>
  <wgt id="71">5.93631e-12</wgt>
  <wgt id="72">5.93507e-12</wgt>
  <wgt id="73">5.9456e-12</wgt>
  <wgt id="74">5.94315e-12</wgt>
  <wgt id="75">5.94234e-12</wgt>
  <wgt id="76">5.95453e-12</wgt>
  <wgt id="77">5.93978e-12</wgt>
  <wgt id="78">5.94254e-12</wgt>
  <wgt id="79">5.94927e-12</wgt>
  <wgt id="80">5.91883e-12</wgt>
  <wgt id="81">5.93377e-12</wgt>
  <wgt id="82">5.94092e-12</wgt>
  <wgt id="83">5.92239e-12</wgt>
  <wgt id="84">5.92964e-12</wgt>
  <wgt id="85">5.93335e-12</wgt>
  <wgt id="86">5.95e-12</wgt>
  <wgt id="87">5.918e-12</wgt>
  <wgt id="88">5.94605e-12</wgt>
  <wgt id="89">5.94527e-12</wgt>
  <wgt id="90">5.94648e-12</wgt>
  <wgt id="91">5.94406e-12</wgt>
  <wgt id="92">5.94971e-12</wgt>
  <wgt id="93">5.94001e-12</wgt>
  <wgt id="94">5.93695e-12</wgt>
  <wgt id="95">5.9435e-12</wgt>
  <wgt id="96">5.94389e-12</wgt>
  <wgt id="97">5.93466e-12</wgt>
  <wgt id="98">5.94361e-12</wgt>
  <wgt id="99">5.93863e-12</wgt>
  <wgt id="100">5.9462e-12</wgt>
  <wgt id="101">5.93948e-12</wgt>
  <wgt id="102">5.93615e-12</wgt>
  <wgt id="103">5.94706e-12</wgt>
  <wgt id="104">5.93673e-12</wgt>
  <wgt id="105">5.94491e-12</wgt>
  <wgt id="106">5.93485e-12</wgt>
  <wgt id="107">5.95362e-12</wgt>
  <wgt id="108">5.93569e-12</wgt>
  <wgt id="109">5.94354e-12</wgt>
  <wgt id="110">5.93935e-12</wgt>
  <wgt id="111">6.01566e-12</wgt>
  <wgt id="112">5.92272e-12</wgt>
  <wgt id="113">7.76555e-12</wgt>
  <wgt id="114">8.11159e-12</wgt>
  <wgt id="115">8.00303e-12</wgt>
  <wgt id="116">1.08708e-11</wgt>
  <wgt id="117">6.51586e-12</wgt>
  <wgt id="118">6.53634e-12</wgt>
  <wgt id="119">6.50439e-12</wgt>
  <wgt id="120">6.51671e-12</wgt>
  <wgt id="121">6.51542e-12</wgt>
  <wgt id="122">6.50405e-12</wgt>
  <wgt id="123">6.53225e-12</wgt>
  <wgt id="124">6.50638e-12</wgt>
  <wgt id="125">6.52219e-12</wgt>
  <wgt id="126">6.52665e-12</wgt>
  <wgt id="127">6.50885e-12</wgt>
  <wgt id="128">6.53642e-12</wgt>
  <wgt id="129">6.49556e-12</wgt>
  <wgt id="130">6.55346e-12</wgt>
  <wgt id="131">6.47748e-12</wgt>
  <wgt id="132">6.35394e-12</wgt>
  <wgt id="133">6.70637e-12</wgt>
  <wgt id="134">6.4499e-12</wgt>
  <wgt id="135">6.56731e-12</wgt>
  <wgt id="136">6.5924e-12</wgt>
  <wgt id="137">6.42324e-12</wgt>
  <wgt id="138">6.74826e-12</wgt>
  <wgt id="139">6.2897e-12</wgt>
  <wgt id="140">6.47063e-12</wgt>
  <wgt id="141">6.55151e-12</wgt>
  <wgt id="142">6.51712e-12</wgt>
  <wgt id="143">6.52279e-12</wgt>
  <wgt id="144">6.36738e-12</wgt>
  <wgt id="145">6.65103e-12</wgt>
  <wgt id="146">6.56292e-12</wgt>
  <wgt id="147">6.47952e-12</wgt>
  <wgt id="148">6.53398e-12</wgt>
  <wgt id="149">6.51466e-12</wgt>
  <wgt id="150">6.57036e-12</wgt>
  <wgt id="151">6.4905e-12</wgt>
  <wgt id="152">6.5184e-12</wgt>
  <wgt id="153">6.51499e-12</wgt>
  <wgt id="154">6.57628e-12</wgt>
  <wgt id="155">6.44579e-12</wgt>
  <wgt id="156">6.6133e-12</wgt>
  <wgt id="157">6.40368e-12</wgt>
  <wgt id="158">7.84291e-12</wgt>
  <wgt id="159">7.87526e-12</wgt>
  <wgt id="160">7.81672e-12</wgt>
  <wgt id="161">7.82477e-12</wgt>
  <wgt id="162">7.863e-12</wgt>
  <wgt id="163">7.83524e-12</wgt>
  <wgt id="164">7.85451e-12</wgt>
  <wgt id="165">7.84608e-12</wgt>
  <wgt id="166">7.84069e-12</wgt>
  <wgt id="167">7.83717e-12</wgt>
  <wgt id="168">7.8511e-12</wgt>
  <wgt id="169">7.80905e-12</wgt>
  <wgt id="170">7.86417e-12</wgt>
  <wgt id="171">7.83489e-12</wgt>
  <wgt id="172">7.85434e-12</wgt>
  <wgt id="173">7.84512e-12</wgt>
  <wgt id="174">7.84184e-12</wgt>
  <wgt id="175">7.6344e-12</wgt>
  <wgt id="176">8.11348e-12</wgt>
  <wgt id="177">7.88161e-12</wgt>
  <wgt id="178">7.80691e-12</wgt>
  <wgt id="179">8.1412e-12</wgt>
  <wgt id="180">7.36864e-12</wgt>
  <wgt id="181">7.63287e-12</wgt>
  <wgt id="182">7.98114e-12</wgt>
  <wgt id="183">7.71417e-12</wgt>
  <wgt id="184">7.90686e-12</wgt>
  <wgt id="185">7.78485e-12</wgt>
  <wgt id="186">7.91085e-12</wgt>
  <wgt id="187">7.77689e-12</wgt>
  <wgt id="188">7.96205e-12</wgt>
  <wgt id="189">7.79753e-12</wgt>
  <wgt id="190">7.86156e-12</wgt>
  <wgt id="191">7.86214e-12</wgt>
  <wgt id="192">7.83163e-12</wgt>
  <wgt id="193">7.9439e-12</wgt>
  <wgt id="194">7.79297e-12</wgt>
  <wgt id="195">7.69517e-12</wgt>
  <wgt id="196">8.12922e-12</wgt>
  <wgt id="197">7.87917e-12</wgt>
  <wgt id="198">7.83428e-12</wgt>
  <wgt id="199">7.84291e-12</wgt>
  <wgt id="200">7.90571e-12</wgt>
  <wgt id="201">7.88212e-12</wgt>
  <wgt id="202">7.85973e-12</wgt>
  <wgt id="203">7.82523e-12</wgt>
  <wgt id="204">7.80911e-12</wgt>
  <wgt id="205">7.79563e-12</wgt>
  <wgt id="206">7.64289e-12</wgt>
  <wgt id="207">7.68683e-12</wgt>
  <wgt id="208">7.59947e-12</wgt>
  <wgt id="209">7.66307e-12</wgt>
  <wgt id="210">7.62811e-12</wgt>
  <wgt id="211">7.64076e-12</wgt>
  <wgt id="212">7.64458e-12</wgt>
  <wgt id="213">7.64216e-12</wgt>
  <wgt id="214">7.64398e-12</wgt>
  <wgt id="215">7.64775e-12</wgt>
  <wgt id="216">7.6395e-12</wgt>
  <wgt id="217">7.66384e-12</wgt>
  <wgt id="218">7.62691e-12</wgt>
  <wgt id="219">7.63291e-12</wgt>
  <wgt id="220">7.64889e-12</wgt>
  <wgt id="221">7.63893e-12</wgt>
  <wgt id="222">7.65247e-12</wgt>
  <wgt id="223">7.26287e-12</wgt>
  <wgt id="224">7.98763e-12</wgt>
  <wgt id="225">7.55855e-12</wgt>
  <wgt id="226">7.74847e-12</wgt>
  <wgt id="227">7.57492e-12</wgt>
  <wgt id="228">7.67272e-12</wgt>
  <wgt id="229">7.54233e-12</wgt>
  <wgt id="230">7.69287e-12</wgt>
  <wgt id="231">7.84493e-12</wgt>
  <wgt id="232">7.47633e-12</wgt>
  <wgt id="233">7.60659e-12</wgt>
  <wgt id="234">7.69744e-12</wgt>
  <wgt id="235">7.53396e-12</wgt>
  <wgt id="236">7.75635e-12</wgt>
  <wgt id="237">7.5608e-12</wgt>
  <wgt id="238">7.67136e-12</wgt>
  <wgt id="239">7.60587e-12</wgt>
  <wgt id="240">7.71062e-12</wgt>
  <wgt id="241">7.57255e-12</wgt>
  <wgt id="242">7.72753e-12</wgt>
  <wgt id="243">7.70994e-12</wgt>
  <wgt id="244">7.6977e-12</wgt>
  <wgt id="245">7.63612e-12</wgt>
  <wgt id="246">7.70391e-12</wgt>
  <wgt id="247">7.64289e-12</wgt>
  <wgt id="248">7.70431e-12</wgt>
  <wgt id="249">7.68037e-12</wgt>
  <wgt id="250">7.65849e-12</wgt>
  <wgt id="251">7.62497e-12</wgt>
  <wgt id="252">7.60942e-12</wgt>
  <wgt id="253">7.59786e-12</wgt>
  <wgt id="254">7.49224e-12</wgt>
  <wgt id="255">7.49967e-12</wgt>
  <wgt id="256">7.4845e-12</wgt>
  <wgt id="257">7.49824e-12</wgt>
  <wgt id="258">7.48791e-12</wgt>
  <wgt id="259">7.5421e-12</wgt>
  <wgt id="260">7.44439e-12</wgt>
  <wgt id="261">7.50002e-12</wgt>
  <wgt id="262">7.48328e-12</wgt>
  <wgt id="263">7.48989e-12</wgt>
  <wgt id="264">7.49509e-12</wgt>
  <wgt id="265">7.48473e-12</wgt>
  <wgt id="266">7.50719e-12</wgt>
  <wgt id="267">7.49457e-12</wgt>
  <wgt id="268">7.48938e-12</wgt>
  <wgt id="269">7.51377e-12</wgt>
  <wgt id="270">7.47773e-12</wgt>
  <wgt id="271">7.48054e-12</wgt>
  <wgt id="272">7.50556e-12</wgt>
  <wgt id="273">7.47022e-12</wgt>
  <wgt id="274">7.50933e-12</wgt>
  <wgt id="275">7.46582e-12</wgt>
  <wgt id="276">7.51954e-12</wgt>
  <wgt id="277">7.45217e-12</wgt>
  <wgt id="278">7.52931e-12</wgt>
  <wgt id="279">7.35753e-12</wgt>
  <wgt id="280">7.66077e-12</wgt>
  <wgt id="281">7.46254e-12</wgt>
  <wgt id="282">7.49237e-12</wgt>
  <wgt id="283">7.29715e-12</wgt>
  <wgt id="284">7.73142e-12</wgt>
  <wgt id="285">7.16602e-12</wgt>
  <wgt id="286">7.75952e-12</wgt>
  <wgt id="287">7.51372e-12</wgt>
  <wgt id="288">7.46482e-12</wgt>
  <wgt id="289">7.5397e-12</wgt>
  <wgt id="290">7.3793e-12</wgt>
  <wgt id="291">7.47602e-12</wgt>
  <wgt id="292">7.49642e-12</wgt>
  <wgt id="293">7.4402e-12</wgt>
  <wgt id="294">7.54403e-12</wgt>
  <wgt id="295">7.36246e-12</wgt>
  <wgt id="296">7.65034e-12</wgt>
  <wgt id="297">7.49786e-12</wgt>
  <wgt id="298">7.51371e-12</wgt>
  <wgt id="299">7.47057e-12</wgt>
  <wgt id="300">7.54955e-12</wgt>
  <wgt id="301">7.41931e-12</wgt>
  <wgt id="302">7.69957e-12</wgt>
  <wgt id="303">7.44937e-12</wgt>
  <wgt id="304">7.51773e-12</wgt>
  <wgt id="305">7.53907e-12</wgt>
  <wgt id="306">7.54684e-12</wgt>
  <wgt id="307">7.53101e-12</wgt>
  <wgt id="308">7.54583e-12</wgt>
  <wgt id="309">7.53459e-12</wgt>
  <wgt id="310">7.59093e-12</wgt>
  <wgt id="311">7.49114e-12</wgt>
  <wgt id="312">7.54436e-12</wgt>
  <wgt id="313">7.53423e-12</wgt>
  <wgt id="314">7.53685e-12</wgt>
  <wgt id="315">7.54142e-12</wgt>
  <wgt id="316">7.53207e-12</wgt>
  <wgt id="317">7.55469e-12</wgt>
  <wgt id="318">7.54394e-12</wgt>
  <wgt id="319">7.53106e-12</wgt>
  <wgt id="320">7.56144e-12</wgt>
  <wgt id="321">7.5267e-12</wgt>
  <wgt id="322">7.52305e-12</wgt>
  <wgt id="323">7.55804e-12</wgt>
  <wgt id="324">7.52063e-12</wgt>
  <wgt id="325">7.55536e-12</wgt>
  <wgt id="326">7.51784e-12</wgt>
  <wgt id="327">7.56636e-12</wgt>
  <wgt id="328">7.50229e-12</wgt>
  <wgt id="329">7.56033e-12</wgt>
  <wgt id="330">7.74955e-12</wgt>
  <wgt id="331">7.33784e-12</wgt>
  <wgt id="332">7.51454e-12</wgt>
  <wgt id="333">7.53828e-12</wgt>
  <wgt id="334">7.38445e-12</wgt>
  <wgt id="335">7.73021e-12</wgt>
  <wgt id="336">7.30071e-12</wgt>
  <wgt id="337">7.82669e-12</wgt>
  <wgt id="338">7.61547e-12</wgt>
  <wgt id="339">7.4682e-12</wgt>
  <wgt id="340">7.58474e-12</wgt>
  <wgt id="341">7.41987e-12</wgt>
  <wgt id="342">7.52832e-12</wgt>
  <wgt id="343">7.53297e-12</wgt>
  <wgt id="344">7.49123e-12</wgt>
  <wgt id="345">7.59469e-12</wgt>
  <wgt id="346">7.40363e-12</wgt>
  <wgt id="347">7.69516e-12</wgt>
  <wgt id="348">7.54882e-12</wgt>
  <wgt id="349">7.55511e-12</wgt>
  <wgt id="350">7.51151e-12</wgt>
  <wgt id="351">7.60938e-12</wgt>
  <wgt id="352">7.45632e-12</wgt>
  <wgt id="353">7.76105e-12</wgt>
  <wgt id="354">7.47201e-12</wgt>
  <wgt id="355">7.58148e-12</wgt>
  <wgt id="356">7.49224e-12</wgt>
  <wgt id="357">7.57679e-12</wgt>
  <wgt id="358">7.53907e-12</wgt>
  <wgt id="359">7.52533e-12</wgt>
  <wgt id="360">7.51932e-12</wgt>
  <wgt id="361">7.51074e-12</wgt>
  <wgt id="362">7.62841e-12</wgt>
  <wgt id="363">7.61169e-12</wgt>
  <wgt id="364">7.5899e-12</wgt>
  <wgt id="365">7.56675e-12</wgt>
  <wgt id="366">7.54015e-12</wgt>
  <wgt id="367">7.4839e-12</wgt>
  <wgt id="368">7.45378e-12</wgt>
  <wgt id="369">7.42135e-12</wgt>
  <wgt id="370">7.51074e-12</wgt>
  <wgt id="371">7.5439e-12</wgt>
  <wgt id="372">7.52571e-12</wgt>
  <wgt id="373">7.49845e-12</wgt>
  <wgt id="374">7.49332e-12</wgt>
  <wgt id="375">7.89156e-12</wgt>
  <wgt id="376">7.89253e-12</wgt>
  <wgt id="377">7.89037e-12</wgt>
  <wgt id="378">7.91962e-12</wgt>
  <wgt id="379">7.86371e-12</wgt>
  <wgt id="380">7.91304e-12</wgt>
  <wgt id="381">7.88292e-12</wgt>
  <wgt id="382">7.92932e-12</wgt>
  <wgt id="383">7.85412e-12</wgt>
  <wgt id="384">7.89671e-12</wgt>
  <wgt id="385">7.88663e-12</wgt>
  <wgt id="386">7.92065e-12</wgt>
  <wgt id="387">7.87891e-12</wgt>
  <wgt id="388">7.88458e-12</wgt>
  <wgt id="389">7.90002e-12</wgt>
  <wgt id="390">7.91164e-12</wgt>
  <wgt id="391">7.87035e-12</wgt>
  <wgt id="392">7.83996e-12</wgt>
  <wgt id="393">7.92069e-12</wgt>
  <wgt id="394">7.90292e-12</wgt>
  <wgt id="395">7.87571e-12</wgt>
  <wgt id="396">7.89263e-12</wgt>
  <wgt id="397">7.89065e-12</wgt>
  <wgt id="398">7.85952e-12</wgt>
  <wgt id="399">7.92245e-12</wgt>
  <wgt id="400">7.87952e-12</wgt>
  <wgt id="401">7.91829e-12</wgt>
  <wgt id="402">7.83392e-12</wgt>
  <wgt id="403">7.91377e-12</wgt>
  <wgt id="404">8.05308e-12</wgt>
  <wgt id="405">7.49989e-12</wgt>
  <wgt id="406">7.7751e-12</wgt>
  <wgt id="407">8.14179e-12</wgt>
  <wgt id="408">7.95127e-12</wgt>
  <wgt id="409">7.77609e-12</wgt>
  <wgt id="410">7.69906e-12</wgt>
  <wgt id="411">7.97886e-12</wgt>
  <wgt id="412">7.87945e-12</wgt>
  <wgt id="413">7.90786e-12</wgt>
  <wgt id="414">7.81486e-12</wgt>
  <wgt id="415">7.95104e-12</wgt>
  <wgt id="416">8.06897e-12</wgt>
  <wgt id="417">7.64571e-12</wgt>
  <wgt id="418">7.90061e-12</wgt>
  <wgt id="419">7.84244e-12</wgt>
  <wgt id="420">7.97176e-12</wgt>
  <wgt id="421">7.85269e-12</wgt>
  <wgt id="422">7.89296e-12</wgt>
  <wgt id="423">7.89315e-12</wgt>
  <wgt id="424">8.01453e-12</wgt>
  <wgt id="425">7.81809e-12</wgt>
  <wgt id="426">7.89156e-12</wgt>
  <wgt id="427">7.84418e-12</wgt>
  <wgt id="428">8.04608e-12</wgt>
  <wgt id="429">7.94735e-12</wgt>
  <wgt id="430">8.14871e-12</wgt>
  <wgt id="431">8.10887e-12</wgt>
  <wgt id="432">8.0705e-12</wgt>
  <wgt id="433">8.0333e-12</wgt>
  <wgt id="434">7.98933e-12</wgt>
  <wgt id="435">7.89475e-12</wgt>
  <wgt id="436">7.84559e-12</wgt>
  <wgt id="437">7.79943e-12</wgt>
  <wgt id="438">7.94735e-12</wgt>
  <wgt id="439">7.97348e-12</wgt>
  <wgt id="440">7.95841e-12</wgt>
  <wgt id="441">7.93893e-12</wgt>
  <wgt id="442">7.93169e-12</wgt>
  <wgt id="443">7.80843e-12</wgt>
  <wgt id="444">7.83959e-12</wgt>
  <wgt id="445">7.77815e-12</wgt>
  <wgt id="446">7.76296e-12</wgt>
  <wgt id="447">7.7817e-12</wgt>
  <wgt id="448">7.62161e-12</wgt>
  <wgt id="449">7.91438e-12</wgt>
  <wgt id="450">7.77199e-12</wgt>
  <wgt id="451">7.79856e-12</wgt>
  <wgt id="452">7.96111e-12</wgt>
  <wgt id="453">7.86521e-12</wgt>
  <wgt id="454">7.52253e-12</wgt>
  <wgt id="455">7.81611e-12</wgt>
  <wgt id="456">7.68174e-12</wgt>
  <wgt id="457">7.83493e-12</wgt>
  <wgt id="458">7.88612e-12</wgt>
  <wgt id="459">7.85352e-12</wgt>
  <wgt id="460">7.8462e-12</wgt>
  <wgt id="461">7.69246e-12</wgt>
  <wgt id="462">7.75687e-12</wgt>
  <wgt id="463">7.73855e-12</wgt>
  <wgt id="464">7.774e-12</wgt>
  <wgt id="465">7.87422e-12</wgt>
  <wgt id="466">7.73667e-12</wgt>
  <wgt id="467">7.74623e-12</wgt>
  <wgt id="468">7.79057e-12</wgt>
  <wgt id="469">7.79174e-12</wgt>
  <wgt id="470">7.74881e-12</wgt>
  <wgt id="471">7.75336e-12</wgt>
  <wgt id="472">7.83721e-12</wgt>
  <wgt id="473">7.60246e-12</wgt>
  <wgt id="474">5.79e-12</wgt>
  <wgt id="475">6.16276e-12</wgt>
  <wgt id="476">5.68071e-12</wgt>
  <wgt id="477">5.70632e-12</wgt>
  <wgt id="478">5.82258e-12</wgt>
  <wgt id="479">5.73062e-12</wgt>
  <wgt id="480">5.95239e-12</wgt>
  <wgt id="481">5.63316e-12</wgt>
  <wgt id="482">5.5488e-12</wgt>
  <wgt id="483">5.64469e-12</wgt>
  <wgt id="484">6.22329e-12</wgt>
  <wgt id="485">5.8191e-12</wgt>
  <wgt id="486">5.86087e-12</wgt>
  <wgt id="487">5.86877e-12</wgt>
  <wgt id="488">5.85175e-12</wgt>
  <wgt id="489">5.58792e-12</wgt>
  <wgt id="490">5.62906e-12</wgt>
  <wgt id="491">5.7264e-12</wgt>
  <wgt id="492">5.60773e-12</wgt>
  <wgt id="493">5.60186e-12</wgt>
  <wgt id="494">5.62044e-12</wgt>
  <wgt id="495">5.88896e-12</wgt>
  <wgt id="496">5.59231e-12</wgt>
  <wgt id="497">5.594e-12</wgt>
  <wgt id="498">5.84775e-12</wgt>
  <wgt id="499">5.63911e-12</wgt>
  <wgt id="500">5.6877e-12</wgt>
  <wgt id="501">6.02822e-12</wgt>
  <wgt id="502">5.62405e-12</wgt>
  <wgt id="503">5.76491e-12</wgt>
  <wgt id="504">5.77815e-12</wgt>
  <wgt id="505">5.90778e-12</wgt>
  <wgt id="506">5.85587e-12</wgt>
  <wgt id="507">5.71802e-12</wgt>
  <wgt id="508">5.8785e-12</wgt>
  <wgt id="509">5.79452e-12</wgt>
  <wgt id="510">5.91498e-12</wgt>
  <wgt id="511">5.66787e-12</wgt>
  <wgt id="512">5.84475e-12</wgt>
  <wgt id="513">5.98117e-12</wgt>
  <wgt id="514">5.73592e-12</wgt>
  <wgt id="515">5.71855e-12</wgt>
  <wgt id="516">5.92859e-12</wgt>
  <wgt id="517">5.91887e-12</wgt>
  <wgt id="518">5.94265e-12</wgt>
  <wgt id="519">5.66723e-12</wgt>
  <wgt id="520">5.80317e-12</wgt>
  <wgt id="521">6.00353e-12</wgt>
  <wgt id="522">5.99987e-12</wgt>
  <wgt id="523">5.90735e-12</wgt>
  <wgt id="524">5.91551e-12</wgt>
  <wgt id="525">5.91827e-12</wgt>
  <wgt id="526">5.77115e-12</wgt>
  <wgt id="527">5.90268e-12</wgt>
  <wgt id="528">5.77458e-12</wgt>
  <wgt id="529">5.72634e-12</wgt>
  <wgt id="530">5.80885e-12</wgt>
  <wgt id="531">5.71387e-12</wgt>
  <wgt id="532">6.07722e-12</wgt>
  <wgt id="533">5.44128e-12</wgt>
  <wgt id="534">5.79302e-12</wgt>
  <wgt id="535">5.88481e-12</wgt>
  <wgt id="536">5.81173e-12</wgt>
  <wgt id="537">5.81091e-12</wgt>
  <wgt id="538">5.89663e-12</wgt>
  <wgt id="539">5.65274e-12</wgt>
  <wgt id="540">5.746e-12</wgt>
  <wgt id="541">5.71909e-12</wgt>
  <wgt id="542">5.65206e-12</wgt>
  <wgt id="543">5.77899e-12</wgt>
  <wgt id="544">6.06738e-12</wgt>
  <wgt id="545">5.71487e-12</wgt>
  <wgt id="546">5.74133e-12</wgt>
  <wgt id="547">5.61872e-12</wgt>
  <wgt id="548">5.55622e-12</wgt>
  <wgt id="549">5.70637e-12</wgt>
  <wgt id="550">5.843e-12</wgt>
  <wgt id="551">5.86085e-12</wgt>
  <wgt id="552">5.7424e-12</wgt>
  <wgt id="553">5.77837e-12</wgt>
  <wgt id="554">6.22206e-12</wgt>
  <wgt id="555">5.95299e-12</wgt>
  <wgt id="556">5.62906e-12</wgt>
  <wgt id="557">5.86922e-12</wgt>
  <wgt id="558">5.60019e-12</wgt>
  <wgt id="559">5.72707e-12</wgt>
  <wgt id="560">6.22991e-12</wgt>
  <wgt id="561">5.64698e-12</wgt>
  <wgt id="562">5.85308e-12</wgt>
  <wgt id="563">5.64948e-12</wgt>
  <wgt id="564">5.77613e-12</wgt>
  <wgt id="565">5.61468e-12</wgt>
  <wgt id="566">5.83717e-12</wgt>
  <wgt id="567">5.69702e-12</wgt>
  <wgt id="568">5.80065e-12</wgt>
  <wgt id="569">5.81957e-12</wgt>
  <wgt id="570">5.67304e-12</wgt>
  <wgt id="571">6.39263e-12</wgt>
  <wgt id="572">5.66461e-12</wgt>
  <wgt id="573">5.53069e-12</wgt>
  <wgt id="574">5.58806e-12</wgt>
  <wgt id="575">6.32907e-12</wgt>
  <wgt id="576">6.20925e-12</wgt>
  <wgt id="577">6.56731e-12</wgt>
  <wgt id="578">6.42569e-12</wgt>
  <wgt id="579">6.37061e-12</wgt>
  <wgt id="580">6.40932e-12</wgt>
  <wgt id="581">6.68219e-12</wgt>
  <wgt id="582">6.18884e-12</wgt>
  <wgt id="583">6.38643e-12</wgt>
  <wgt id="584">6.33375e-12</wgt>
  <wgt id="585">6.38432e-12</wgt>
  <wgt id="586">6.18713e-12</wgt>
  <wgt id="587">6.39123e-12</wgt>
  <wgt id="588">6.28442e-12</wgt>
  <wgt id="589">6.37951e-12</wgt>
  <wgt id="590">6.42755e-12</wgt>
  <wgt id="591">6.58226e-12</wgt>
  <wgt id="592">6.23226e-12</wgt>
  <wgt id="593">6.29807e-12</wgt>
  <wgt id="594">6.60534e-12</wgt>
  <wgt id="595">6.27586e-12</wgt>
  <wgt id="596">6.42556e-12</wgt>
  <wgt id="597">6.08303e-12</wgt>
  <wgt id="598">6.31086e-12</wgt>
  <wgt id="599">6.6426e-12</wgt>
  <wgt id="600">6.26657e-12</wgt>
  <wgt id="601">6.14881e-12</wgt>
  <wgt id="602">6.22532e-12</wgt>
  <wgt id="603">6.26059e-12</wgt>
  <wgt id="604">6.40454e-12</wgt>
  <wgt id="605">6.58366e-12</wgt>
  <wgt id="606">6.16209e-12</wgt>
  <wgt id="607">6.2345e-12</wgt>
  <wgt id="608">6.28368e-12</wgt>
  <wgt id="609">5.94898e-12</wgt>
  <wgt id="610">6.08165e-12</wgt>
  <wgt id="611">6.44649e-12</wgt>
  <wgt id="612">6.81018e-12</wgt>
  <wgt id="613">6.34482e-12</wgt>
  <wgt id="614">6.40614e-12</wgt>
  <wgt id="615">6.20149e-12</wgt>
  <wgt id="616">6.76449e-12</wgt>
  <wgt id="617">6.54559e-12</wgt>
  <wgt id="618">6.27213e-12</wgt>
  <wgt id="619">6.30712e-12</wgt>
  <wgt id="620">6.52222e-12</wgt>
  <wgt id="621">6.42677e-12</wgt>
  <wgt id="622">6.39123e-12</wgt>
  <wgt id="623">6.48135e-12</wgt>
  <wgt id="624">6.28178e-12</wgt>
  <wgt id="625">6.2596e-12</wgt>
  <wgt id="626">6.20606e-12</wgt>
  <wgt id="627">6.11824e-12</wgt>
  <wgt id="628">6.66623e-12</wgt>
  <wgt id="629">6.19665e-12</wgt>
  <wgt id="630">6.18541e-12</wgt>
  <wgt id="631">6.32005e-12</wgt>
  <wgt id="632">6.17003e-12</wgt>
  <wgt id="633">6.24418e-12</wgt>
  <wgt id="634">6.38007e-12</wgt>
  <wgt id="635">6.30525e-12</wgt>
  <wgt id="636">6.36496e-12</wgt>
  <wgt id="637">6.36129e-12</wgt>
  <wgt id="638">6.11839e-12</wgt>
  <wgt id="639">6.2692e-12</wgt>
  <wgt id="640">6.34718e-12</wgt>
  <wgt id="641">6.32769e-12</wgt>
  <wgt id="642">6.28609e-12</wgt>
  <wgt id="643">6.31276e-12</wgt>
  <wgt id="644">6.14401e-12</wgt>
  <wgt id="645">6.35936e-12</wgt>
  <wgt id="646">6.47289e-12</wgt>
  <wgt id="647">6.21761e-12</wgt>
  <wgt id="648">6.34763e-12</wgt>
  <wgt id="649">6.42496e-12</wgt>
  <wgt id="650">6.21934e-12</wgt>
  <wgt id="651">6.40177e-12</wgt>
  <wgt id="652">6.33179e-12</wgt>
  <wgt id="653">6.1722e-12</wgt>
  <wgt id="654">6.31152e-12</wgt>
  <wgt id="655">6.18273e-12</wgt>
  <wgt id="656">6.30767e-12</wgt>
  <wgt id="657">6.43256e-12</wgt>
  <wgt id="658">6.46332e-12</wgt>
  <wgt id="659">6.11273e-12</wgt>
  <wgt id="660">6.44642e-12</wgt>
  <wgt id="661">6.24121e-12</wgt>
  <wgt id="662">6.29464e-12</wgt>
  <wgt id="663">6.30264e-12</wgt>
  <wgt id="664">6.22236e-12</wgt>
  <wgt id="665">6.30275e-12</wgt>
  <wgt id="666">6.3256e-12</wgt>
  <wgt id="667">6.52189e-12</wgt>
  <wgt id="668">6.28821e-12</wgt>
  <wgt id="669">6.48543e-12</wgt>
  <wgt id="670">6.3842e-12</wgt>
  <wgt id="671">6.21349e-12</wgt>
  <wgt id="672">6.06571e-12</wgt>
  <wgt id="673">6.29077e-12</wgt>
  <wgt id="674">6.19953e-12</wgt>
  <wgt id="675">6.18032e-12</wgt>
  <wgt id="676">7.82567e-12</wgt>
  <wgt id="677">7.94048e-12</wgt>
  <wgt id="678">8.16675e-12</wgt>
  <wgt id="679">7.48753e-12</wgt>
  <wgt id="680">7.53115e-12</wgt>
  <wgt id="681">8.06963e-12</wgt>
  <wgt id="682">7.90992e-12</wgt>
  <wgt id="683">7.77868e-12</wgt>
  <wgt id="684">8.15528e-12</wgt>
  <wgt id="685">7.41695e-12</wgt>
  <wgt id="686">7.91161e-12</wgt>
  <wgt id="687">8.15483e-12</wgt>
  <wgt id="688">7.78496e-12</wgt>
  <wgt id="689">8.35503e-12</wgt>
  <wgt id="690">8.276e-12</wgt>
  <wgt id="691">8.22817e-12</wgt>
  <wgt id="692">7.815e-12</wgt>
  <wgt id="693">8.92764e-12</wgt>
  <wgt id="694">8.24824e-12</wgt>
  <wgt id="695">7.57122e-12</wgt>
  <wgt id="696">7.47199e-12</wgt>
  <wgt id="697">7.58594e-12</wgt>
  <wgt id="698">7.40646e-12</wgt>
  <wgt id="699">7.30729e-12</wgt>
  <wgt id="700">7.01885e-12</wgt>
  <wgt id="701">7.83966e-12</wgt>
  <wgt id="702">7.47123e-12</wgt>
  <wgt id="703">8.80039e-12</wgt>
  <wgt id="704">8.35304e-12</wgt>
  <wgt id="705">8.08453e-12</wgt>
  <wgt id="706">7.31684e-12</wgt>
  <wgt id="707">7.54245e-12</wgt>
  <wgt id="708">7.74048e-12</wgt>
  <wgt id="709">7.704e-12</wgt>
  <wgt id="710">7.03467e-12</wgt>
  <wgt id="711">7.83161e-12</wgt>
  <wgt id="712">7.74263e-12</wgt>
  <wgt id="713">8.31848e-12</wgt>
  <wgt id="714">7.82529e-12</wgt>
  <wgt id="715">7.74862e-12</wgt>
  <wgt id="716">7.55439e-12</wgt>
  <wgt id="717">7.55301e-12</wgt>
  <wgt id="718">7.65876e-12</wgt>
  <wgt id="719">7.19828e-12</wgt>
  <wgt id="720">7.44166e-12</wgt>
  <wgt id="721">7.50583e-12</wgt>
  <wgt id="722">7.14874e-12</wgt>
  <wgt id="723">8.23292e-12</wgt>
  <wgt id="724">8.10794e-12</wgt>
  <wgt id="725">8.26835e-12</wgt>
  <wgt id="726">7.91778e-12</wgt>
  <wgt id="727">7.6514e-12</wgt>
  <wgt id="728">7.78231e-12</wgt>
  <wgt id="729">7.10991e-12</wgt>
  <wgt id="730">8.26476e-12</wgt>
  <wgt id="731">7.76092e-12</wgt>
  <wgt id="732">8.48722e-12</wgt>
  <wgt id="733">7.828e-12</wgt>
  <wgt id="734">8.00209e-12</wgt>
  <wgt id="735">7.77808e-12</wgt>
  <wgt id="736">7.74682e-12</wgt>
  <wgt id="737">7.95459e-12</wgt>
  <wgt id="738">7.56231e-12</wgt>
  <wgt id="739">7.76319e-12</wgt>
  <wgt id="740">8.61173e-12</wgt>
  <wgt id="741">6.98136e-12</wgt>
  <wgt id="742">7.7159e-12</wgt>
  <wgt id="743">7.63676e-12</wgt>
  <wgt id="744">7.67689e-12</wgt>
  <wgt id="745">8.08771e-12</wgt>
  <wgt id="746">8.16891e-12</wgt>
  <wgt id="747">7.2848e-12</wgt>
  <wgt id="748">7.69343e-12</wgt>
  <wgt id="749">8.26841e-12</wgt>
  <wgt id="750">7.71191e-12</wgt>
  <wgt id="751">8.11797e-12</wgt>
  <wgt id="752">7.26661e-12</wgt>
  <wgt id="753">7.47932e-12</wgt>
  <wgt id="754">8.00934e-12</wgt>
  <wgt id="755">7.88348e-12</wgt>
  <wgt id="756">7.86609e-12</wgt>
  <wgt id="757">7.32206e-12</wgt>
  <wgt id="758">7.93867e-12</wgt>
  <wgt id="759">7.73972e-12</wgt>
  <wgt id="760">7.98755e-12</wgt>
  <wgt id="761">8.22931e-12</wgt>
  <wgt id="762">8.21701e-12</wgt>
  <wgt id="763">7.85989e-12</wgt>
  <wgt id="764">8.08195e-12</wgt>
  <wgt id="765">7.87412e-12</wgt>
  <wgt id="766">7.79246e-12</wgt>
  <wgt id="767">7.99173e-12</wgt>
  <wgt id="768">7.47586e-12</wgt>
  <wgt id="769">8.24852e-12</wgt>
  <wgt id="770">7.61301e-12</wgt>
  <wgt id="771">9.08421e-12</wgt>
  <wgt id="772">7.37018e-12</wgt>
  <wgt id="773">7.80669e-12</wgt>
  <wgt id="774">7.14319e-12</wgt>
  <wgt id="775">8.15348e-12</wgt>
  <wgt id="776">8.52947e-12</wgt>
  <wgt id="777">7.64712e-12</wgt>
  <wgt id="778">5.93368e-12</wgt>
  <wgt id="779">5.13907e-12</wgt>
  <wgt id="780">4.43441e-12</wgt>
  <wgt id="781">5.87475e-12</wgt>
  <wgt id="782">6.27465e-12</wgt>
  <wgt id="783">5.25243e-12</wgt>
  <wgt id="784">5.34229e-12</wgt>
  <wgt id="785">7.03379e-12</wgt>
  <wgt id="786">4.69763e-12</wgt>
  <wgt id="787">6.56105e-12</wgt>
  <wgt id="788">4.12254e-12</wgt>
  <wgt id="789">4.83224e-12</wgt>
  <wgt id="790">4.7027e-12</wgt>
  <wgt id="791">5.4907e-12</wgt>
  <wgt id="792">7.47786e-12</wgt>
  <wgt id="793">5.71068e-12</wgt>
  <wgt id="794">4.82819e-12</wgt>
  <wgt id="795">6.66452e-12</wgt>
  <wgt id="796">7.61427e-12</wgt>
  <wgt id="797">6.65233e-12</wgt>
  <wgt id="798">5.59417e-12</wgt>
  <wgt id="799">6.60729e-12</wgt>
  <wgt id="800">4.89408e-12</wgt>
  <wgt id="801">5.64779e-12</wgt>
  <wgt id="802">4.87851e-12</wgt>
  <wgt id="803">7.66256e-12</wgt>
  <wgt id="804">6.62568e-12</wgt>
  <wgt id="805">6.75606e-12</wgt>
  <wgt id="806">6.71528e-12</wgt>
  <wgt id="807">5.72666e-12</wgt>
  <wgt id="808">5.81663e-12</wgt>
  <wgt id="809">5.49689e-12</wgt>
  <wgt id="810">6.77678e-12</wgt>
  <wgt id="811">6.40964e-12</wgt>
  <wgt id="812">4.78904e-12</wgt>
  <wgt id="813">4.8286e-12</wgt>
  <wgt id="814">5.02837e-12</wgt>
  <wgt id="815">5.16036e-12</wgt>
  <wgt id="816">4.61558e-12</wgt>
  <wgt id="817">6.26042e-12</wgt>
  <wgt id="818">5.72275e-12</wgt>
  <wgt id="819">5.16656e-12</wgt>
  <wgt id="820">5.96486e-12</wgt>
  <wgt id="821">6.64726e-12</wgt>
  <wgt id="822">5.23027e-12</wgt>
  <wgt id="823">6.64281e-12</wgt>
  <wgt id="824">7.79837e-12</wgt>
  <wgt id="825">4.64522e-12</wgt>
  <wgt id="826">6.09186e-12</wgt>
  <wgt id="827">3.95569e-12</wgt>
  <wgt id="828">7.56691e-12</wgt>
  <wgt id="829">6.08952e-12</wgt>
  <wgt id="830">4.42518e-12</wgt>
  <wgt id="831">6.27657e-12</wgt>
  <wgt id="832">9.31993e-12</wgt>
  <wgt id="833">5.68671e-12</wgt>
  <wgt id="834">8.73785e-12</wgt>
  <wgt id="835">4.91516e-12</wgt>
  <wgt id="836">6.01079e-12</wgt>
  <wgt id="837">6.56739e-12</wgt>
  <wgt id="838">5.72079e-12</wgt>
  <wgt id="839">6.25602e-12</wgt>
  <wgt id="840">5.68414e-12</wgt>
  <wgt id="841">6.98512e-12</wgt>
  <wgt id="842">5.50377e-12</wgt>
  <wgt id="843">5.73449e-12</wgt>
  <wgt id="844">6.09858e-12</wgt>
  <wgt id="845">7.83785e-12</wgt>
  <wgt id="846">5.4742e-12</wgt>
  <wgt id="847">5.81865e-12</wgt>
  <wgt id="848">5.36315e-12</wgt>
  <wgt id="849">6.04777e-12</wgt>
  <wgt id="850">7.3928e-12</wgt>
  <wgt id="851">6.41617e-12</wgt>
  <wgt id="852">5.29759e-12</wgt>
  <wgt id="853">6.3644e-12</wgt>
  <wgt id="854">7.02054e-12</wgt>
  <wgt id="855">6.63986e-12</wgt>
  <wgt id="856">4.53577e-12</wgt>
  <wgt id="857">6.02674e-12</wgt>
  <wgt id="858">5.90022e-12</wgt>
  <wgt id="859">5.55502e-12</wgt>
  <wgt id="860">6.16381e-12</wgt>
  <wgt id="861">5.42127e-12</wgt>
  <wgt id="862">6.01571e-12</wgt>
  <wgt id="863">6.15247e-12</wgt>
  <wgt id="864">6.19057e-12</wgt>
  <wgt id="865">8.09957e-12</wgt>
  <wgt id="866">8.85194e-12</wgt>
  <wgt id="867">5.94593e-12</wgt>
  <wgt id="868">5.81549e-12</wgt>
  <wgt id="869">4.81762e-12</wgt>
  <wgt id="870">5.06267e-12</wgt>
  <wgt id="871">4.93128e-12</wgt>
  <wgt id="872">6.79507e-12</wgt>
  <wgt id="873">5.0186e-12</wgt>
  <wgt id="874">6.14134e-12</wgt>
  <wgt id="875">5.23019e-12</wgt>
  <wgt id="876">6.80758e-12</wgt>
  <wgt id="877">6.61002e-12</wgt>
  <wgt id="878">5.30749e-12</wgt>
  <wgt id="879">7.82567e-12</wgt>
  <wgt id="880">7.94048e-12</wgt>
  <wgt id="881">8.16675e-12</wgt>
  <wgt id="882">7.48753e-12</wgt>
  <wgt id="883">7.53115e-12</wgt>
  <wgt id="884">8.06963e-12</wgt>
  <wgt id="885">7.90992e-12</wgt>
  <wgt id="886">7.77868e-12</wgt>
  <wgt id="887">8.15528e-12</wgt>
  <wgt id="888">7.41695e-12</wgt>
  <wgt id="889">7.91161e-12</wgt>
  <wgt id="890">8.15483e-12</wgt>
  <wgt id="891">7.78496e-12</wgt>
  <wgt id="892">8.35503e-12</wgt>
  <wgt id="893">8.276e-12</wgt>
  <wgt id="894">8.22817e-12</wgt>
  <wgt id="895">7.815e-12</wgt>
  <wgt id="896">8.92764e-12</wgt>
  <wgt id="897">8.24824e-12</wgt>
  <wgt id="898">7.57122e-12</wgt>
  <wgt id="899">7.47199e-12</wgt>
  <wgt id="900">7.58594e-12</wgt>
  <wgt id="901">7.40646e-12</wgt>
  <wgt id="902">7.30729e-12</wgt>
  <wgt id="903">7.01885e-12</wgt>
  <wgt id="904">7.83966e-12</wgt>
  <wgt id="905">7.47123e-12</wgt>
  <wgt id="906">8.80039e-12</wgt>
  <wgt id="907">8.35304e-12</wgt>
  <wgt id="908">8.08453e-12</wgt>
  <wgt id="909">7.31684e-12</wgt>
  <wgt id="910">7.54245e-12</wgt>
  <wgt id="911">7.74048e-12</wgt>
  <wgt id="912">7.704e-12</wgt>
  <wgt id="913">7.03467e-12</wgt>
  <wgt id="914">7.83161e-12</wgt>
  <wgt id="915">7.74263e-12</wgt>
  <wgt id="916">8.31848e-12</wgt>
  <wgt id="917">7.82529e-12</wgt>
  <wgt id="918">7.74862e-12</wgt>
  <wgt id="919">7.55439e-12</wgt>
  <wgt id="920">7.55301e-12</wgt>
  <wgt id="921">7.65876e-12</wgt>
  <wgt id="922">7.19828e-12</wgt>
  <wgt id="923">7.44166e-12</wgt>
  <wgt id="924">7.50583e-12</wgt>
  <wgt id="925">7.14874e-12</wgt>
  <wgt id="926">8.23292e-12</wgt>
  <wgt id="927">8.10794e-12</wgt>
  <wgt id="928">8.26835e-12</wgt>
  <wgt id="929">7.91778e-12</wgt>
  <wgt id="930">7.6514e-12</wgt>
  <wgt id="931">7.78231e-12</wgt>
  <wgt id="932">7.10991e-12</wgt>
  <wgt id="933">8.26476e-12</wgt>
  <wgt id="934">7.76092e-12</wgt>
  <wgt id="935">8.48722e-12</wgt>
  <wgt id="936">7.828e-12</wgt>
  <wgt id="937">8.00209e-12</wgt>
  <wgt id="938">7.77808e-12</wgt>
  <wgt id="939">7.74682e-12</wgt>
  <wgt id="940">7.95459e-12</wgt>
  <wgt id="941">7.56231e-12</wgt>
  <wgt id="942">7.76319e-12</wgt>
  <wgt id="943">8.61173e-12</wgt>
  <wgt id="944">6.98136e-12</wgt>
  <wgt id="945">7.7159e-12</wgt>
  <wgt id="946">7.63676e-12</wgt>
  <wgt id="947">7.67689e-12</wgt>
  <wgt id="948">8.08771e-12</wgt>
  <wgt id="949">8.16891e-12</wgt>
  <wgt id="950">7.2848e-12</wgt>
  <wgt id="951">7.69343e-12</wgt>
  <wgt id="952">8.26841e-12</wgt>
  <wgt id="953">7.71191e-12</wgt>
  <wgt id="954">8.11797e-12</wgt>
  <wgt id="955">7.26661e-12</wgt>
  <wgt id="956">7.47932e-12</wgt>
  <wgt id="957">8.00934e-12</wgt>
  <wgt id="958">7.88348e-12</wgt>
  <wgt id="959">7.86609e-12</wgt>
  <wgt id="960">7.32206e-12</wgt>
  <wgt id="961">7.93867e-12</wgt>
  <wgt id="962">7.73972e-12</wgt>
  <wgt id="963">7.98755e-12</wgt>
  <wgt id="964">8.22931e-12</wgt>
  <wgt id="965">8.21701e-12</wgt>
  <wgt id="966">7.85989e-12</wgt>
  <wgt id="967">8.08195e-12</wgt>
  <wgt id="968">7.87412e-12</wgt>
  <wgt id="969">7.79246e-12</wgt>
  <wgt id="970">7.99173e-12</wgt>
  <wgt id="971">7.47586e-12</wgt>
  <wgt id="972">8.24852e-12</wgt>
  <wgt id="973">7.61301e-12</wgt>
  <wgt id="974">9.08421e-12</wgt>
  <wgt id="975">7.37018e-12</wgt>
  <wgt id="976">7.80669e-12</wgt>
  <wgt id="977">7.14319e-12</wgt>
  <wgt id="978">8.15348e-12</wgt>
  <wgt id="979">8.52947e-12</wgt>
  <wgt id="980">7.84709e-12</wgt>
  <wgt id="981">7.8456e-12</wgt>
  <wgt id="982">7.61539e-12</wgt>
</rwgt>
</event>
<event>
 5   1  0.5790000E-11  0.2037634E+04  0.7818608E-02  0.7812931E-01
       21   -1    0    0  502  501  0.00000000000E+00  0.00000000000E+00  0.14434247157E+04  0.14434247157E+04  0.00000000000E+00 0. -1.
       21   -1    0    0  501  502 -0.00000000000E+00 -0.00000000000E+00 -0.71911466757E+03  0.71911466757E+03  0.00000000000E+00 0.  1.
       39    2    1    2    0    0  0.00000000000E+00  0.00000000000E+00  0.72431004815E+03  0.21625393833E+04  0.20376338087E+04 0.  0.
       25    1    3    3    0    0  0.50855084542E+03 -0.62799388491E+03 -0.28285185793E+03  0.86523433554E+03  0.12500000000E+03 0.  0.
       25    1    3    3    0    0 -0.50855084542E+03  0.62799388491E+03  0.10071619061E+04  0.12973050477E+04  0.12500000000E+03 0.  0.
<mgrwt>
<rscale>  0 0.20376338E+04</rscale>
<asrwt>0</asrwt>
<pdfrwt beam="1">  1       21 0.22206534E+00 0.20376338E+04</pdfrwt>
<pdfrwt beam="2">  1       21 0.11063303E+00 0.20376338E+04</pdfrwt>
<totfact> 0.26827476E+01</totfact>
</mgrwt>
<rwgt>
  <wgt id="1">5.79e-12</wgt>
  <wgt id="2">5.06727e-12</wgt>
  <wgt id="3">6.68181e-12</wgt>
  <wgt id="4">5.79e-12</wgt>
  <wgt id="5">5.06727e-12</wgt>
  <wgt id="6">6.68181e-12</wgt>
  <wgt id="7">5.79e-12</wgt>
  <wgt id="8">5.06727e-12</wgt>
  <wgt id="9">6.68181e-12</wgt>
  <wgt id="10">5.95039e-12</wgt>
  <wgt id="11">5.9463e-12</wgt>
  <wgt id="12">5.94143e-12</wgt>
  <wgt id="13">5.93196e-12</wgt>
  <wgt id="14">5.97165e-12</wgt>
  <wgt id="15">5.96007e-12</wgt>
  <wgt id="16">5.94092e-12</wgt>
  <wgt id="17">5.96588e-12</wgt>
  <wgt id="18">5.94259e-12</wgt>
  <wgt id="19">5.9618e-12</wgt>
  <wgt id="20">5.93596e-12</wgt>
  <wgt id="21">5.91261e-12</wgt>
  <wgt id="22">5.92462e-12</wgt>
  <wgt id="23">5.89406e-12</wgt>
  <wgt id="24">5.9198e-12</wgt>
  <wgt id="25">5.9348e-12</wgt>
  <wgt id="26">5.97003e-12</wgt>
  <wgt id="27">5.94776e-12</wgt>
  <wgt id="28">5.92056e-12</wgt>
  <wgt id="29">5.9548e-12</wgt>
  <wgt id="30">5.92554e-12</wgt>
  <wgt id="31">5.97061e-12</wgt>
  <wgt id="32">5.93196e-12</wgt>
  <wgt id="33">5.96121e-12</wgt>
  <wgt id="34">5.92828e-12</wgt>
  <wgt id="35">5.93708e-12</wgt>
  <wgt id="36">5.966e-12</wgt>
  <wgt id="37">5.93498e-12</wgt>
  <wgt id="38">5.93519e-12</wgt>
  <wgt id="39">6.01824e-12</wgt>
  <wgt id="40">5.95915e-12</wgt>
  <wgt id="41">5.94852e-12</wgt>
  <wgt id="42">5.96271e-12</wgt>
  <wgt id="43">5.95159e-12</wgt>
  <wgt id="44">5.94178e-12</wgt>
  <wgt id="45">5.95871e-12</wgt>
  <wgt id="46">5.95192e-12</wgt>
  <wgt id="47">5.94232e-12</wgt>
  <wgt id="48">5.94939e-12</wgt>
  <wgt id="49">5.9494e-12</wgt>
  <wgt id="50">5.96433e-12</wgt>
  <wgt id="51">5.96042e-12</wgt>
  <wgt id="52">5.94724e-12</wgt>
  <wgt id="53">5.92227e-12</wgt>
  <wgt id="54">5.94531e-12</wgt>
  <wgt id="55">5.94888e-12</wgt>
  <wgt id="56">5.97479e-12</wgt>
  <wgt id="57">5.96765e-12</wgt>
  <wgt id="58">5.9213e-12</wgt>
  <wgt id="59">5.9351e-12</wgt>
  <wgt id="60">5.95751e-12</wgt>
  <wgt id="61">5.93032e-12</wgt>
  <wgt id="62">5.9379e-12</wgt>
  <wgt id="63">5.94766e-12</wgt>
  <wgt id="64">5.95516e-12</wgt>
  <wgt id="65">5.95961e-12</wgt>
  <wgt id="66">5.94366e-12</wgt>
  <wgt id="67">5.92949e-12</wgt>
  <wgt id="68">5.94692e-12</wgt>
  <wgt id="69">5.952e-12</wgt>
  <wgt id="70">5.95107e-12</wgt>
  <wgt id="71">5.95036e-12</wgt>
  <wgt id="72">5.94102e-12</wgt>
  <wgt id="73">5.95289e-12</wgt>
  <wgt id="74">5.95173e-12</wgt>
  <wgt id="75">5.94261e-12</wgt>
  <wgt id="76">5.9614e-12</wgt>
  <wgt id="77">5.94951e-12</wgt>
  <wgt id="78">5.95152e-12</wgt>
  <wgt id="79">5.96231e-12</wgt>
  <wgt id="80">5.93121e-12</wgt>
  <wgt id="81">5.94457e-12</wgt>
  <wgt id="82">5.95039e-12</wgt>
  <wgt id="83">5.93111e-12</wgt>
  <wgt id="84">5.94289e-12</wgt>
  <wgt id="85">5.93821e-12</wgt>
  <wgt id="86">5.96622e-12</wgt>
  <wgt id="87">5.92232e-12</wgt>
  <wgt id="88">5.95603e-12</wgt>
  <wgt id="89">5.95537e-12</wgt>
  <wgt id="90">5.96041e-12</wgt>
  <wgt id="91">5.95595e-12</wgt>
  <wgt id="92">5.96094e-12</wgt>
  <wgt id="93">5.9515e-12</wgt>
  <wgt id="94">5.94545e-12</wgt>
  <wgt id="95">5.95608e-12</wgt>
  <wgt id="96">5.95376e-12</wgt>
  <wgt id="97">5.94146e-12</wgt>
  <wgt id="98">5.95246e-12</wgt>
  <wgt id="99">5.9442e-12</wgt>
  <wgt id="100">5.95426e-12</wgt>
  <wgt id="101">5.95019e-12</wgt>
  <wgt id="102">5.94555e-12</wgt>
  <wgt id="103">5.95735e-12</wgt>
  <wgt id="104">5.94845e-12</wgt>
  <wgt id="105">5.95736e-12</wgt>
  <wgt id="106">5.94266e-12</wgt>
  <wgt id="107">5.9647e-12</wgt>
  <wgt id="108">5.94549e-12</wgt>
  <wgt id="109">5.9498e-12</wgt>
  <wgt id="110">5.9511e-12</wgt>
  <wgt id="111">6.00625e-12</wgt>
  <wgt id="112">5.95481e-12</wgt>
  <wgt id="113">7.83067e-12</wgt>
  <wgt id="114">8.05065e-12</wgt>
  <wgt id="115">7.92855e-12</wgt>
  <wgt id="116">1.05627e-11</wgt>
  <wgt id="117">6.48913e-12</wgt>
  <wgt id="118">6.50884e-12</wgt>
  <wgt id="119">6.47782e-12</wgt>
  <wgt id="120">6.49002e-12</wgt>
  <wgt id="121">6.48882e-12</wgt>
  <wgt id="122">6.47745e-12</wgt>
  <wgt id="123">6.50509e-12</wgt>
  <wgt id="124">6.47963e-12</wgt>
  <wgt id="125">6.49509e-12</wgt>
  <wgt id="126">6.49856e-12</wgt>
  <wgt id="127">6.48275e-12</wgt>
  <wgt id="128">6.50933e-12</wgt>
  <wgt id="129">6.46926e-12</wgt>
  <wgt id="130">6.52476e-12</wgt>
  <wgt id="131">6.45273e-12</wgt>
  <wgt id="132">6.32826e-12</wgt>
  <wgt id="133">6.67802e-12</wgt>
  <wgt id="134">6.42468e-12</wgt>
  <wgt id="135">6.53951e-12</wgt>
  <wgt id="136">6.56617e-12</wgt>
  <wgt id="137">6.39566e-12</wgt>
  <wgt id="138">6.72302e-12</wgt>
  <wgt id="139">6.26202e-12</wgt>
  <wgt id="140">6.44606e-12</wgt>
  <wgt id="141">6.52259e-12</wgt>
  <wgt id="142">6.48978e-12</wgt>
  <wgt id="143">6.4981e-12</wgt>
  <wgt id="144">6.33244e-12</wgt>
  <wgt id="145">6.63233e-12</wgt>
  <wgt id="146">6.53769e-12</wgt>
  <wgt id="147">6.45096e-12</wgt>
  <wgt id="148">6.50748e-12</wgt>
  <wgt id="149">6.48771e-12</wgt>
  <wgt id="150">6.54231e-12</wgt>
  <wgt id="151">6.46438e-12</wgt>
  <wgt id="152">6.49134e-12</wgt>
  <wgt id="153">6.48835e-12</wgt>
  <wgt id="154">6.54295e-12</wgt>
  <wgt id="155">6.42467e-12</wgt>
  <wgt id="156">6.59546e-12</wgt>
  <wgt id="157">6.37038e-12</wgt>
  <wgt id="158">7.81227e-12</wgt>
  <wgt id="159">7.84486e-12</wgt>
  <wgt id="160">7.78606e-12</wgt>
  <wgt id="161">7.79524e-12</wgt>
  <wgt id="162">7.83145e-12</wgt>
  <wgt id="163">7.80477e-12</wgt>
  <wgt id="164">7.82331e-12</wgt>
  <wgt id="165">7.8156e-12</wgt>
  <wgt id="166">7.80988e-12</wgt>
  <wgt id="167">7.80637e-12</wgt>
  <wgt id="168">7.82053e-12</wgt>
  <wgt id="169">7.77837e-12</wgt>
  <wgt id="170">7.83331e-12</wgt>
  <wgt id="171">7.80517e-12</wgt>
  <wgt id="172">7.82218e-12</wgt>
  <wgt id="173">7.81198e-12</wgt>
  <wgt id="174">7.81238e-12</wgt>
  <wgt id="175">7.60879e-12</wgt>
  <wgt id="176">8.0765e-12</wgt>
  <wgt id="177">7.84874e-12</wgt>
  <wgt id="178">7.77854e-12</wgt>
  <wgt id="179">8.11417e-12</wgt>
  <wgt id="180">7.33344e-12</wgt>
  <wgt id="181">7.60198e-12</wgt>
  <wgt id="182">7.95082e-12</wgt>
  <wgt id="183">7.68344e-12</wgt>
  <wgt id="184">7.87593e-12</wgt>
  <wgt id="185">7.75082e-12</wgt>
  <wgt id="186">7.88385e-12</wgt>
  <wgt id="187">7.74335e-12</wgt>
  <wgt id="188">7.93473e-12</wgt>
  <wgt id="189">7.76592e-12</wgt>
  <wgt id="190">7.83111e-12</wgt>
  <wgt id="191">7.83217e-12</wgt>
  <wgt id="192">7.8004e-12</wgt>
  <wgt id="193">7.9131e-12</wgt>
  <wgt id="194">7.76209e-12</wgt>
  <wgt id="195">7.66062e-12</wgt>
  <wgt id="196">8.10111e-12</wgt>
  <wgt id="197">7.84798e-12</wgt>
  <wgt id="198">7.80373e-12</wgt>
  <wgt id="199">7.81227e-12</wgt>
  <wgt id="200">7.87534e-12</wgt>
  <wgt id="201">7.85221e-12</wgt>
  <wgt id="202">7.82976e-12</wgt>
  <wgt id="203">7.79601e-12</wgt>
  <wgt id="204">7.78039e-12</wgt>
  <wgt id="205">7.76687e-12</wgt>
  <wgt id="206">7.63912e-12</wgt>
  <wgt id="207">7.68284e-12</wgt>
  <wgt id="208">7.59599e-12</wgt>
  <wgt id="209">7.65782e-12</wgt>
  <wgt id="210">7.6259e-12</wgt>
  <wgt id="211">7.6375e-12</wgt>
  <wgt id="212">7.64041e-12</wgt>
  <wgt id="213">7.63851e-12</wgt>
  <wgt id="214">7.64011e-12</wgt>
  <wgt id="215">7.64361e-12</wgt>
  <wgt id="216">7.63627e-12</wgt>
  <wgt id="217">7.65829e-12</wgt>
  <wgt id="218">7.62444e-12</wgt>
  <wgt id="219">7.62751e-12</wgt>
  <wgt id="220">7.64636e-12</wgt>
  <wgt id="221">7.6367e-12</wgt>
  <wgt id="222">7.64475e-12</wgt>
  <wgt id="223">7.2627e-12</wgt>
  <wgt id="224">7.98081e-12</wgt>
  <wgt id="225">7.55647e-12</wgt>
  <wgt id="226">7.74306e-12</wgt>
  <wgt id="227">7.57254e-12</wgt>
  <wgt id="228">7.66857e-12</wgt>
  <wgt id="229">7.54062e-12</wgt>
  <wgt id="230">7.68828e-12</wgt>
  <wgt id="231">7.84444e-12</wgt>
  <wgt id="232">7.46967e-12</wgt>
  <wgt id="233">7.60234e-12</wgt>
  <wgt id="234">7.69609e-12</wgt>
  <wgt id="235">7.50709e-12</wgt>
  <wgt id="236">7.76794e-12</wgt>
  <wgt id="237">7.54675e-12</wgt>
  <wgt id="238">7.67096e-12</wgt>
  <wgt id="239">7.59845e-12</wgt>
  <wgt id="240">7.71372e-12</wgt>
  <wgt id="241">7.56777e-12</wgt>
  <wgt id="242">7.72436e-12</wgt>
  <wgt id="243">7.70613e-12</wgt>
  <wgt id="244">7.68587e-12</wgt>
  <wgt id="245">7.63284e-12</wgt>
  <wgt id="246">7.69616e-12</wgt>
  <wgt id="247">7.63912e-12</wgt>
  <wgt id="248">7.70278e-12</wgt>
  <wgt id="249">7.67867e-12</wgt>
  <wgt id="250">7.65593e-12</wgt>
  <wgt id="251">7.62219e-12</wgt>
  <wgt id="252">7.60628e-12</wgt>
  <wgt id="253">7.59463e-12</wgt>
  <wgt id="254">7.46098e-12</wgt>
  <wgt id="255">7.46739e-12</wgt>
  <wgt id="256">7.4534e-12</wgt>
  <wgt id="257">7.46672e-12</wgt>
  <wgt id="258">7.4563e-12</wgt>
  <wgt id="259">7.50984e-12</wgt>
  <wgt id="260">7.41316e-12</wgt>
  <wgt id="261">7.46716e-12</wgt>
  <wgt id="262">7.4531e-12</wgt>
  <wgt id="263">7.45807e-12</wgt>
  <wgt id="264">7.46378e-12</wgt>
  <wgt id="265">7.45365e-12</wgt>
  <wgt id="266">7.47525e-12</wgt>
  <wgt id="267">7.46272e-12</wgt>
  <wgt id="268">7.45773e-12</wgt>
  <wgt id="269">7.48073e-12</wgt>
  <wgt id="270">7.44705e-12</wgt>
  <wgt id="271">7.4475e-12</wgt>
  <wgt id="272">7.47573e-12</wgt>
  <wgt id="273">7.44001e-12</wgt>
  <wgt id="274">7.47641e-12</wgt>
  <wgt id="275">7.43225e-12</wgt>
  <wgt id="276">7.49018e-12</wgt>
  <wgt id="277">7.42075e-12</wgt>
  <wgt id="278">7.49771e-12</wgt>
  <wgt id="279">7.33235e-12</wgt>
  <wgt id="280">7.62135e-12</wgt>
  <wgt id="281">7.43213e-12</wgt>
  <wgt id="282">7.46151e-12</wgt>
  <wgt id="283">7.26567e-12</wgt>
  <wgt id="284">7.70024e-12</wgt>
  <wgt id="285">7.13332e-12</wgt>
  <wgt id="286">7.7299e-12</wgt>
  <wgt id="287">7.48259e-12</wgt>
  <wgt id="288">7.43266e-12</wgt>
  <wgt id="289">7.50871e-12</wgt>
  <wgt id="290">7.34812e-12</wgt>
  <wgt id="291">7.44289e-12</wgt>
  <wgt id="292">7.46485e-12</wgt>
  <wgt id="293">7.40826e-12</wgt>
  <wgt id="294">7.51296e-12</wgt>
  <wgt id="295">7.32992e-12</wgt>
  <wgt id="296">7.61982e-12</wgt>
  <wgt id="297">7.4642e-12</wgt>
  <wgt id="298">7.48243e-12</wgt>
  <wgt id="299">7.43937e-12</wgt>
  <wgt id="300">7.5173e-12</wgt>
  <wgt id="301">7.38551e-12</wgt>
  <wgt id="302">7.66975e-12</wgt>
  <wgt id="303">7.41577e-12</wgt>
  <wgt id="304">7.48685e-12</wgt>
  <wgt id="305">7.49205e-12</wgt>
  <wgt id="306">7.49931e-12</wgt>
  <wgt id="307">7.48378e-12</wgt>
  <wgt id="308">7.49882e-12</wgt>
  <wgt id="309">7.48738e-12</wgt>
  <wgt id="310">7.54329e-12</wgt>
  <wgt id="311">7.44431e-12</wgt>
  <wgt id="312">7.49612e-12</wgt>
  <wgt id="313">7.48796e-12</wgt>
  <wgt id="314">7.48908e-12</wgt>
  <wgt id="315">7.49427e-12</wgt>
  <wgt id="316">7.48494e-12</wgt>
  <wgt id="317">7.50666e-12</wgt>
  <wgt id="318">7.4963e-12</wgt>
  <wgt id="319">7.48392e-12</wgt>
  <wgt id="320">7.5128e-12</wgt>
  <wgt id="321">7.47999e-12</wgt>
  <wgt id="322">7.47458e-12</wgt>
  <wgt id="323">7.51167e-12</wgt>
  <wgt id="324">7.47517e-12</wgt>
  <wgt id="325">7.50632e-12</wgt>
  <wgt id="326">7.46868e-12</wgt>
  <wgt id="327">7.5216e-12</wgt>
  <wgt id="328">7.45413e-12</wgt>
  <wgt id="329">7.51353e-12</wgt>
  <wgt id="330">7.69335e-12</wgt>
  <wgt id="331">7.29905e-12</wgt>
  <wgt id="332">7.46817e-12</wgt>
  <wgt id="333">7.49175e-12</wgt>
  <wgt id="334">7.33852e-12</wgt>
  <wgt id="335">7.68187e-12</wgt>
  <wgt id="336">7.25353e-12</wgt>
  <wgt id="337">7.78011e-12</wgt>
  <wgt id="338">7.56897e-12</wgt>
  <wgt id="339">7.42016e-12</wgt>
  <wgt id="340">7.53722e-12</wgt>
  <wgt id="341">7.37376e-12</wgt>
  <wgt id="342">7.48004e-12</wgt>
  <wgt id="343">7.48501e-12</wgt>
  <wgt id="344">7.44402e-12</wgt>
  <wgt id="345">7.5474e-12</wgt>
  <wgt id="346">7.35576e-12</wgt>
  <wgt id="347">7.64807e-12</wgt>
  <wgt id="348">7.49931e-12</wgt>
  <wgt id="349">7.50864e-12</wgt>
  <wgt id="350">7.46465e-12</wgt>
  <wgt id="351">7.5608e-12</wgt>
  <wgt id="352">7.40971e-12</wgt>
  <wgt id="353">7.71146e-12</wgt>
  <wgt id="354">7.42372e-12</wgt>
  <wgt id="355">7.5346e-12</wgt>
  <wgt id="356">7.46098e-12</wgt>
  <wgt id="357">7.52452e-12</wgt>
  <wgt id="358">7.49205e-12</wgt>
  <wgt id="359">7.48894e-12</wgt>
  <wgt id="360">7.49994e-12</wgt>
  <wgt id="361">7.48124e-12</wgt>
  <wgt id="362">7.59895e-12</wgt>
  <wgt id="363">7.58268e-12</wgt>
  <wgt id="364">7.55956e-12</wgt>
  <wgt id="365">7.5367e-12</wgt>
  <wgt id="366">7.51033e-12</wgt>
  <wgt id="367">7.45674e-12</wgt>
  <wgt id="368">7.42665e-12</wgt>
  <wgt id="369">7.39409e-12</wgt>
  <wgt id="370">7.48124e-12</wgt>
  <wgt id="371">7.51367e-12</wgt>
  <wgt id="372">7.49597e-12</wgt>
  <wgt id="373">7.46938e-12</wgt>
  <wgt id="374">7.46661e-12</wgt>
  <wgt id="375">7.94437e-12</wgt>
  <wgt id="376">7.94537e-12</wgt>
  <wgt id="377">7.9436e-12</wgt>
  <wgt id="378">7.97294e-12</wgt>
  <wgt id="379">7.91634e-12</wgt>
  <wgt id="380">7.96644e-12</wgt>
  <wgt id="381">7.93587e-12</wgt>
  <wgt id="382">7.98039e-12</wgt>
  <wgt id="383">7.90896e-12</wgt>
  <wgt id="384">7.94951e-12</wgt>
  <wgt id="385">7.93976e-12</wgt>
  <wgt id="386">7.97135e-12</wgt>
  <wgt id="387">7.9329e-12</wgt>
  <wgt id="388">7.93762e-12</wgt>
  <wgt id="389">7.95262e-12</wgt>
  <wgt id="390">7.96335e-12</wgt>
  <wgt id="391">7.92448e-12</wgt>
  <wgt id="392">7.89297e-12</wgt>
  <wgt id="393">7.97376e-12</wgt>
  <wgt id="394">7.95468e-12</wgt>
  <wgt id="395">7.9305e-12</wgt>
  <wgt id="396">7.94706e-12</wgt>
  <wgt id="397">7.94256e-12</wgt>
  <wgt id="398">7.9199e-12</wgt>
  <wgt id="399">7.96829e-12</wgt>
  <wgt id="400">7.93411e-12</wgt>
  <wgt id="401">7.96753e-12</wgt>
  <wgt id="402">7.88727e-12</wgt>
  <wgt id="403">7.96848e-12</wgt>
  <wgt id="404">8.11056e-12</wgt>
  <wgt id="405">7.54245e-12</wgt>
  <wgt id="406">7.82357e-12</wgt>
  <wgt id="407">8.20577e-12</wgt>
  <wgt id="408">8.00616e-12</wgt>
  <wgt id="409">7.82608e-12</wgt>
  <wgt id="410">7.74595e-12</wgt>
  <wgt id="411">8.03588e-12</wgt>
  <wgt id="412">7.93132e-12</wgt>
  <wgt id="413">7.96219e-12</wgt>
  <wgt id="414">7.86497e-12</wgt>
  <wgt id="415">8.00637e-12</wgt>
  <wgt id="416">8.12879e-12</wgt>
  <wgt id="417">7.68905e-12</wgt>
  <wgt id="418">7.95454e-12</wgt>
  <wgt id="419">7.88951e-12</wgt>
  <wgt id="420">8.03134e-12</wgt>
  <wgt id="421">7.89906e-12</wgt>
  <wgt id="422">7.94173e-12</wgt>
  <wgt id="423">7.94765e-12</wgt>
  <wgt id="424">8.07459e-12</wgt>
  <wgt id="425">7.86403e-12</wgt>
  <wgt id="426">7.94437e-12</wgt>
  <wgt id="427">7.88483e-12</wgt>
  <wgt id="428">8.11904e-12</wgt>
  <wgt id="429">8.00457e-12</wgt>
  <wgt id="430">8.20861e-12</wgt>
  <wgt id="431">8.16826e-12</wgt>
  <wgt id="432">8.12979e-12</wgt>
  <wgt id="433">8.09243e-12</wgt>
  <wgt id="434">8.04719e-12</wgt>
  <wgt id="435">7.95147e-12</wgt>
  <wgt id="436">7.90178e-12</wgt>
  <wgt id="437">7.85504e-12</wgt>
  <wgt id="438">8.00457e-12</wgt>
  <wgt id="439">8.03042e-12</wgt>
  <wgt id="440">8.01546e-12</wgt>
  <wgt id="441">7.99641e-12</wgt>
  <wgt id="442">7.9897e-12</wgt>
  <wgt id="443">7.77848e-12</wgt>
  <wgt id="444">7.81861e-12</wgt>
  <wgt id="445">7.77386e-12</wgt>
  <wgt id="446">7.72919e-12</wgt>
  <wgt id="447">7.76378e-12</wgt>
  <wgt id="448">7.59745e-12</wgt>
  <wgt id="449">7.88907e-12</wgt>
  <wgt id="450">7.77372e-12</wgt>
  <wgt id="451">7.76668e-12</wgt>
  <wgt id="452">7.92834e-12</wgt>
  <wgt id="453">7.83541e-12</wgt>
  <wgt id="454">7.48173e-12</wgt>
  <wgt id="455">7.79695e-12</wgt>
  <wgt id="456">7.71764e-12</wgt>
  <wgt id="457">7.80099e-12</wgt>
  <wgt id="458">7.86992e-12</wgt>
  <wgt id="459">7.83074e-12</wgt>
  <wgt id="460">7.83942e-12</wgt>
  <wgt id="461">7.65325e-12</wgt>
  <wgt id="462">7.73369e-12</wgt>
  <wgt id="463">7.69802e-12</wgt>
  <wgt id="464">7.7464e-12</wgt>
  <wgt id="465">7.84524e-12</wgt>
  <wgt id="466">7.69512e-12</wgt>
  <wgt id="467">7.71822e-12</wgt>
  <wgt id="468">7.76229e-12</wgt>
  <wgt id="469">7.76674e-12</wgt>
  <wgt id="470">7.70972e-12</wgt>
  <wgt id="471">7.72041e-12</wgt>
  <wgt id="472">7.80751e-12</wgt>
  <wgt id="473">7.58578e-12</wgt>
  <wgt id="474">5.79e-12</wgt>
  <wgt id="475">6.03192e-12</wgt>
  <wgt id="476">5.68865e-12</wgt>
  <wgt id="477">5.62371e-12</wgt>
  <wgt id="478">5.83825e-12</wgt>
  <wgt id="479">5.71391e-12</wgt>
  <wgt id="480">5.99114e-12</wgt>
  <wgt id="481">5.70527e-12</wgt>
  <wgt id="482">5.64342e-12</wgt>
  <wgt id="483">5.65082e-12</wgt>
  <wgt id="484">6.05639e-12</wgt>
  <wgt id="485">5.73233e-12</wgt>
  <wgt id="486">5.96986e-12</wgt>
  <wgt id="487">5.8142e-12</wgt>
  <wgt id="488">5.8893e-12</wgt>
  <wgt id="489">5.53759e-12</wgt>
  <wgt id="490">5.61768e-12</wgt>
  <wgt id="491">5.76556e-12</wgt>
  <wgt id="492">5.66774e-12</wgt>
  <wgt id="493">5.58476e-12</wgt>
  <wgt id="494">5.62077e-12</wgt>
  <wgt id="495">5.81478e-12</wgt>
  <wgt id="496">5.60599e-12</wgt>
  <wgt id="497">5.58381e-12</wgt>
  <wgt id="498">5.9067e-12</wgt>
  <wgt id="499">5.69414e-12</wgt>
  <wgt id="500">5.67352e-12</wgt>
  <wgt id="501">5.99653e-12</wgt>
  <wgt id="502">5.70261e-12</wgt>
  <wgt id="503">5.79774e-12</wgt>
  <wgt id="504">5.84571e-12</wgt>
  <wgt id="505">5.6754e-12</wgt>
  <wgt id="506">5.81167e-12</wgt>
  <wgt id="507">5.77035e-12</wgt>
  <wgt id="508">5.94812e-12</wgt>
  <wgt id="509">5.52149e-12</wgt>
  <wgt id="510">5.88898e-12</wgt>
  <wgt id="511">5.62568e-12</wgt>
  <wgt id="512">5.90278e-12</wgt>
  <wgt id="513">5.93711e-12</wgt>
  <wgt id="514">5.80913e-12</wgt>
  <wgt id="515">5.75404e-12</wgt>
  <wgt id="516">6.02281e-12</wgt>
  <wgt id="517">5.926e-12</wgt>
  <wgt id="518">5.95362e-12</wgt>
  <wgt id="519">5.66412e-12</wgt>
  <wgt id="520">5.86764e-12</wgt>
  <wgt id="521">5.96338e-12</wgt>
  <wgt id="522">6.02504e-12</wgt>
  <wgt id="523">5.79154e-12</wgt>
  <wgt id="524">5.79066e-12</wgt>
  <wgt id="525">5.92746e-12</wgt>
  <wgt id="526">5.81697e-12</wgt>
  <wgt id="527">5.86194e-12</wgt>
  <wgt id="528">5.7984e-12</wgt>
  <wgt id="529">5.74313e-12</wgt>
  <wgt id="530">5.88156e-12</wgt>
  <wgt id="531">5.70248e-12</wgt>
  <wgt id="532">6.10572e-12</wgt>
  <wgt id="533">5.51753e-12</wgt>
  <wgt id="534">5.77589e-12</wgt>
  <wgt id="535">5.82871e-12</wgt>
  <wgt id="536">5.7538e-12</wgt>
  <wgt id="537">5.79676e-12</wgt>
  <wgt id="538">5.87986e-12</wgt>
  <wgt id="539">5.68456e-12</wgt>
  <wgt id="540">5.75483e-12</wgt>
  <wgt id="541">5.64917e-12</wgt>
  <wgt id="542">5.7036e-12</wgt>
  <wgt id="543">5.78979e-12</wgt>
  <wgt id="544">6.04715e-12</wgt>
  <wgt id="545">5.68944e-12</wgt>
  <wgt id="546">5.65078e-12</wgt>
  <wgt id="547">5.65912e-12</wgt>
  <wgt id="548">5.56088e-12</wgt>
  <wgt id="549">5.71399e-12</wgt>
  <wgt id="550">5.71733e-12</wgt>
  <wgt id="551">5.87662e-12</wgt>
  <wgt id="552">5.64975e-12</wgt>
  <wgt id="553">5.75245e-12</wgt>
  <wgt id="554">6.19342e-12</wgt>
  <wgt id="555">5.95615e-12</wgt>
  <wgt id="556">5.61768e-12</wgt>
  <wgt id="557">5.91531e-12</wgt>
  <wgt id="558">5.64658e-12</wgt>
  <wgt id="559">5.67357e-12</wgt>
  <wgt id="560">6.28792e-12</wgt>
  <wgt id="561">5.69768e-12</wgt>
  <wgt id="562">5.92734e-12</wgt>
  <wgt id="563">5.74286e-12</wgt>
  <wgt id="564">5.89359e-12</wgt>
  <wgt id="565">5.65867e-12</wgt>
  <wgt id="566">5.86036e-12</wgt>
  <wgt id="567">5.73315e-12</wgt>
  <wgt id="568">5.79328e-12</wgt>
  <wgt id="569">5.87866e-12</wgt>
  <wgt id="570">5.61109e-12</wgt>
  <wgt id="571">6.37486e-12</wgt>
  <wgt id="572">5.70597e-12</wgt>
  <wgt id="573">5.58307e-12</wgt>
  <wgt id="574">5.62183e-12</wgt>
  <wgt id="575">6.32636e-12</wgt>
  <wgt id="576">6.3336e-12</wgt>
  <wgt id="577">6.55149e-12</wgt>
  <wgt id="578">6.49367e-12</wgt>
  <wgt id="579">6.44596e-12</wgt>
  <wgt id="580">6.49407e-12</wgt>
  <wgt id="581">6.76083e-12</wgt>
  <wgt id="582">6.33538e-12</wgt>
  <wgt id="583">6.37154e-12</wgt>
  <wgt id="584">6.3081e-12</wgt>
  <wgt id="585">6.26234e-12</wgt>
  <wgt id="586">6.15078e-12</wgt>
  <wgt id="587">6.41254e-12</wgt>
  <wgt id="588">6.32258e-12</wgt>
  <wgt id="589">6.46363e-12</wgt>
  <wgt id="590">6.35571e-12</wgt>
  <wgt id="591">6.57282e-12</wgt>
  <wgt id="592">6.08488e-12</wgt>
  <wgt id="593">6.27781e-12</wgt>
  <wgt id="594">6.54821e-12</wgt>
  <wgt id="595">6.33255e-12</wgt>
  <wgt id="596">6.49574e-12</wgt>
  <wgt id="597">6.17337e-12</wgt>
  <wgt id="598">6.16581e-12</wgt>
  <wgt id="599">6.56612e-12</wgt>
  <wgt id="600">6.32339e-12</wgt>
  <wgt id="601">6.15136e-12</wgt>
  <wgt id="602">6.16567e-12</wgt>
  <wgt id="603">6.20477e-12</wgt>
  <wgt id="604">6.41764e-12</wgt>
  <wgt id="605">6.56594e-12</wgt>
  <wgt id="606">6.27164e-12</wgt>
  <wgt id="607">6.29913e-12</wgt>
  <wgt id="608">6.37593e-12</wgt>
  <wgt id="609">6.03903e-12</wgt>
  <wgt id="610">6.10168e-12</wgt>
  <wgt id="611">6.35513e-12</wgt>
  <wgt id="612">6.77077e-12</wgt>
  <wgt id="613">6.31917e-12</wgt>
  <wgt id="614">6.35373e-12</wgt>
  <wgt id="615">6.2481e-12</wgt>
  <wgt id="616">6.656e-12</wgt>
  <wgt id="617">6.45513e-12</wgt>
  <wgt id="618">6.60058e-12</wgt>
  <wgt id="619">6.2912e-12</wgt>
  <wgt id="620">6.51062e-12</wgt>
  <wgt id="621">6.3572e-12</wgt>
  <wgt id="622">6.41254e-12</wgt>
  <wgt id="623">6.48189e-12</wgt>
  <wgt id="624">6.30256e-12</wgt>
  <wgt id="625">6.23e-12</wgt>
  <wgt id="626">6.12551e-12</wgt>
  <wgt id="627">6.08356e-12</wgt>
  <wgt id="628">6.44513e-12</wgt>
  <wgt id="629">6.24944e-12</wgt>
  <wgt id="630">6.11384e-12</wgt>
  <wgt id="631">6.34513e-12</wgt>
  <wgt id="632">6.09505e-12</wgt>
  <wgt id="633">6.28282e-12</wgt>
  <wgt id="634">6.28801e-12</wgt>
  <wgt id="635">6.16715e-12</wgt>
  <wgt id="636">6.40067e-12</wgt>
  <wgt id="637">6.33849e-12</wgt>
  <wgt id="638">6.14001e-12</wgt>
  <wgt id="639">6.25753e-12</wgt>
  <wgt id="640">6.34202e-12</wgt>
  <wgt id="641">6.40805e-12</wgt>
  <wgt id="642">6.00915e-12</wgt>
  <wgt id="643">6.30086e-12</wgt>
  <wgt id="644">5.98787e-12</wgt>
  <wgt id="645">6.35379e-12</wgt>
  <wgt id="646">6.33235e-12</wgt>
  <wgt id="647">6.24834e-12</wgt>
  <wgt id="648">6.40373e-12</wgt>
  <wgt id="649">6.38731e-12</wgt>
  <wgt id="650">6.18738e-12</wgt>
  <wgt id="651">6.47436e-12</wgt>
  <wgt id="652">6.28394e-12</wgt>
  <wgt id="653">6.15019e-12</wgt>
  <wgt id="654">6.2322e-12</wgt>
  <wgt id="655">6.2344e-12</wgt>
  <wgt id="656">6.30136e-12</wgt>
  <wgt id="657">6.62095e-12</wgt>
  <wgt id="658">6.34442e-12</wgt>
  <wgt id="659">6.07723e-12</wgt>
  <wgt id="660">6.41492e-12</wgt>
  <wgt id="661">6.2543e-12</wgt>
  <wgt id="662">6.30349e-12</wgt>
  <wgt id="663">6.34054e-12</wgt>
  <wgt id="664">6.26831e-12</wgt>
  <wgt id="665">6.32681e-12</wgt>
  <wgt id="666">6.29392e-12</wgt>
  <wgt id="667">6.55113e-12</wgt>
  <wgt id="668">6.31128e-12</wgt>
  <wgt id="669">6.47395e-12</wgt>
  <wgt id="670">6.4527e-12</wgt>
  <wgt id="671">6.27071e-12</wgt>
  <wgt id="672">6.08121e-12</wgt>
  <wgt id="673">6.36967e-12</wgt>
  <wgt id="674">6.18537e-12</wgt>
  <wgt id="675">6.239e-12</wgt>
  <wgt id="676">7.88318e-12</wgt>
  <wgt id="677">7.99636e-12</wgt>
  <wgt id="678">8.26016e-12</wgt>
  <wgt id="679">7.55543e-12</wgt>
  <wgt id="680">7.69507e-12</wgt>
  <wgt id="681">8.03904e-12</wgt>
  <wgt id="682">8.05439e-12</wgt>
  <wgt id="683">7.76732e-12</wgt>
  <wgt id="684">8.18199e-12</wgt>
  <wgt id="685">7.60354e-12</wgt>
  <wgt id="686">7.77717e-12</wgt>
  <wgt id="687">8.1421e-12</wgt>
  <wgt id="688">7.80404e-12</wgt>
  <wgt id="689">8.25614e-12</wgt>
  <wgt id="690">8.22632e-12</wgt>
  <wgt id="691">8.26012e-12</wgt>
  <wgt id="692">7.84721e-12</wgt>
  <wgt id="693">9.12981e-12</wgt>
  <wgt id="694">8.34733e-12</wgt>
  <wgt id="695">7.65006e-12</wgt>
  <wgt id="696">7.64513e-12</wgt>
  <wgt id="697">7.61698e-12</wgt>
  <wgt id="698">7.29336e-12</wgt>
  <wgt id="699">7.20657e-12</wgt>
  <wgt id="700">7.05846e-12</wgt>
  <wgt id="701">7.87574e-12</wgt>
  <wgt id="702">7.70579e-12</wgt>
  <wgt id="703">8.91225e-12</wgt>
  <wgt id="704">8.54426e-12</wgt>
  <wgt id="705">8.3211e-12</wgt>
  <wgt id="706">7.49901e-12</wgt>
  <wgt id="707">7.5839e-12</wgt>
  <wgt id="708">7.75051e-12</wgt>
  <wgt id="709">7.72572e-12</wgt>
  <wgt id="710">7.24839e-12</wgt>
  <wgt id="711">7.85647e-12</wgt>
  <wgt id="712">7.70681e-12</wgt>
  <wgt id="713">8.41139e-12</wgt>
  <wgt id="714">7.7273e-12</wgt>
  <wgt id="715">7.79446e-12</wgt>
  <wgt id="716">7.60724e-12</wgt>
  <wgt id="717">7.5057e-12</wgt>
  <wgt id="718">7.88428e-12</wgt>
  <wgt id="719">7.23585e-12</wgt>
  <wgt id="720">7.5757e-12</wgt>
  <wgt id="721">7.33354e-12</wgt>
  <wgt id="722">7.08941e-12</wgt>
  <wgt id="723">8.3409e-12</wgt>
  <wgt id="724">8.21674e-12</wgt>
  <wgt id="725">8.25895e-12</wgt>
  <wgt id="726">7.9197e-12</wgt>
  <wgt id="727">7.73389e-12</wgt>
  <wgt id="728">7.74041e-12</wgt>
  <wgt id="729">7.49408e-12</wgt>
  <wgt id="730">8.30594e-12</wgt>
  <wgt id="731">7.76377e-12</wgt>
  <wgt id="732">8.60695e-12</wgt>
  <wgt id="733">7.76661e-12</wgt>
  <wgt id="734">8.0351e-12</wgt>
  <wgt id="735">7.95654e-12</wgt>
  <wgt id="736">7.71889e-12</wgt>
  <wgt id="737">7.96354e-12</wgt>
  <wgt id="738">7.62088e-12</wgt>
  <wgt id="739">7.97379e-12</wgt>
  <wgt id="740">8.6908e-12</wgt>
  <wgt id="741">7.14534e-12</wgt>
  <wgt id="742">7.79123e-12</wgt>
  <wgt id="743">7.59844e-12</wgt>
  <wgt id="744">7.71711e-12</wgt>
  <wgt id="745">8.15346e-12</wgt>
  <wgt id="746">8.274e-12</wgt>
  <wgt id="747">7.18656e-12</wgt>
  <wgt id="748">7.7907e-12</wgt>
  <wgt id="749">8.23045e-12</wgt>
  <wgt id="750">8.14141e-12</wgt>
  <wgt id="751">8.0669e-12</wgt>
  <wgt id="752">7.30182e-12</wgt>
  <wgt id="753">7.47112e-12</wgt>
  <wgt id="754">8.11304e-12</wgt>
  <wgt id="755">7.89048e-12</wgt>
  <wgt id="756">7.85952e-12</wgt>
  <wgt id="757">7.30665e-12</wgt>
  <wgt id="758">7.88944e-12</wgt>
  <wgt id="759">8.18409e-12</wgt>
  <wgt id="760">7.93783e-12</wgt>
  <wgt id="761">8.29629e-12</wgt>
  <wgt id="762">8.2954e-12</wgt>
  <wgt id="763">7.88314e-12</wgt>
  <wgt id="764">8.14897e-12</wgt>
  <wgt id="765">7.97035e-12</wgt>
  <wgt id="766">7.86011e-12</wgt>
  <wgt id="767">8.01958e-12</wgt>
  <wgt id="768">7.46558e-12</wgt>
  <wgt id="769">8.3071e-12</wgt>
  <wgt id="770">7.79059e-12</wgt>
  <wgt id="771">9.13312e-12</wgt>
  <wgt id="772">7.49544e-12</wgt>
  <wgt id="773">7.83831e-12</wgt>
  <wgt id="774">7.02327e-12</wgt>
  <wgt id="775">8.20549e-12</wgt>
  <wgt id="776">8.45857e-12</wgt>
  <wgt id="777">7.56038e-12</wgt>
  <wgt id="778">5.88125e-12</wgt>
  <wgt id="779">4.87773e-12</wgt>
  <wgt id="780">4.04741e-12</wgt>
  <wgt id="781">6.27297e-12</wgt>
  <wgt id="782">6.25585e-12</wgt>
  <wgt id="783">4.93952e-12</wgt>
  <wgt id="784">5.1555e-12</wgt>
  <wgt id="785">7.14655e-12</wgt>
  <wgt id="786">4.61136e-12</wgt>
  <wgt id="787">6.61795e-12</wgt>
  <wgt id="788">3.73976e-12</wgt>
  <wgt id="789">5.00646e-12</wgt>
  <wgt id="790">4.54299e-12</wgt>
  <wgt id="791">5.68606e-12</wgt>
  <wgt id="792">7.76814e-12</wgt>
  <wgt id="793">5.79677e-12</wgt>
  <wgt id="794">4.5408e-12</wgt>
  <wgt id="795">6.76729e-12</wgt>
  <wgt id="796">7.57876e-12</wgt>
  <wgt id="797">6.80394e-12</wgt>
  <wgt id="798">5.3549e-12</wgt>
  <wgt id="799">6.59145e-12</wgt>
  <wgt id="800">4.96304e-12</wgt>
  <wgt id="801">5.50344e-12</wgt>
  <wgt id="802">4.57263e-12</wgt>
  <wgt id="803">7.82615e-12</wgt>
  <wgt id="804">6.7561e-12</wgt>
  <wgt id="805">6.78645e-12</wgt>
  <wgt id="806">6.51498e-12</wgt>
  <wgt id="807">5.65327e-12</wgt>
  <wgt id="808">5.68583e-12</wgt>
  <wgt id="809">5.50482e-12</wgt>
  <wgt id="810">6.56043e-12</wgt>
  <wgt id="811">6.30424e-12</wgt>
  <wgt id="812">4.56312e-12</wgt>
  <wgt id="813">4.6088e-12</wgt>
  <wgt id="814">4.88304e-12</wgt>
  <wgt id="815">4.88818e-12</wgt>
  <wgt id="816">4.48432e-12</wgt>
  <wgt id="817">6.09841e-12</wgt>
  <wgt id="818">5.93868e-12</wgt>
  <wgt id="819">4.90966e-12</wgt>
  <wgt id="820">5.85395e-12</wgt>
  <wgt id="821">6.59888e-12</wgt>
  <wgt id="822">4.98219e-12</wgt>
  <wgt id="823">6.68918e-12</wgt>
  <wgt id="824">7.73831e-12</wgt>
  <wgt id="825">4.40616e-12</wgt>
  <wgt id="826">6.2018e-12</wgt>
  <wgt id="827">3.74871e-12</wgt>
  <wgt id="828">7.47989e-12</wgt>
  <wgt id="829">6.02657e-12</wgt>
  <wgt id="830">4.20627e-12</wgt>
  <wgt id="831">6.29292e-12</wgt>
  <wgt id="832">9.37415e-12</wgt>
  <wgt id="833">5.47235e-12</wgt>
  <wgt id="834">8.90553e-12</wgt>
  <wgt id="835">4.88641e-12</wgt>
  <wgt id="836">5.71941e-12</wgt>
  <wgt id="837">6.53055e-12</wgt>
  <wgt id="838">5.49113e-12</wgt>
  <wgt id="839">6.26482e-12</wgt>
  <wgt id="840">5.51933e-12</wgt>
  <wgt id="841">7.10467e-12</wgt>
  <wgt id="842">5.46079e-12</wgt>
  <wgt id="843">5.8339e-12</wgt>
  <wgt id="844">6.08906e-12</wgt>
  <wgt id="845">8.33058e-12</wgt>
  <wgt id="846">5.81484e-12</wgt>
  <wgt id="847">5.94302e-12</wgt>
  <wgt id="848">5.07775e-12</wgt>
  <wgt id="849">6.02031e-12</wgt>
  <wgt id="850">7.49016e-12</wgt>
  <wgt id="851">6.41708e-12</wgt>
  <wgt id="852">4.89732e-12</wgt>
  <wgt id="853">6.43189e-12</wgt>
  <wgt id="854">7.08941e-12</wgt>
  <wgt id="855">6.60966e-12</wgt>
  <wgt id="856">4.27915e-12</wgt>
  <wgt id="857">5.82898e-12</wgt>
  <wgt id="858">5.66617e-12</wgt>
  <wgt id="859">5.55674e-12</wgt>
  <wgt id="860">6.3286e-12</wgt>
  <wgt id="861">5.26375e-12</wgt>
  <wgt id="862">5.92146e-12</wgt>
  <wgt id="863">6.19029e-12</wgt>
  <wgt id="864">6.16416e-12</wgt>
  <wgt id="865">8.10786e-12</wgt>
  <wgt id="866">8.9471e-12</wgt>
  <wgt id="867">5.90816e-12</wgt>
  <wgt id="868">5.73543e-12</wgt>
  <wgt id="869">4.61142e-12</wgt>
  <wgt id="870">4.85955e-12</wgt>
  <wgt id="871">4.73268e-12</wgt>
  <wgt id="872">6.92446e-12</wgt>
  <wgt id="873">5.00236e-12</wgt>
  <wgt id="874">6.15022e-12</wgt>
  <wgt id="875">5.13085e-12</wgt>
  <wgt id="876">6.87049e-12</wgt>
  <wgt id="877">6.54761e-12</wgt>
  <wgt id="878">5.09071e-12</wgt>
  <wgt id="879">7.88318e-12</wgt>
  <wgt id="880">7.99636e-12</wgt>
  <wgt id="881">8.26016e-12</wgt>
  <wgt id="882">7.55543e-12</wgt>
  <wgt id="883">7.69507e-12</wgt>
  <wgt id="884">8.03904e-12</wgt>
  <wgt id="885">8.05439e-12</wgt>
  <wgt id="886">7.76732e-12</wgt>
  <wgt id="887">8.18199e-12</wgt>
  <wgt id="888">7.60354e-12</wgt>
  <wgt id="889">7.77717e-12</wgt>
  <wgt id="890">8.1421e-12</wgt>
  <wgt id="891">7.80404e-12</wgt>
  <wgt id="892">8.25614e-12</wgt>
  <wgt id="893">8.22632e-12</wgt>
  <wgt id="894">8.26012e-12</wgt>
  <wgt id="895">7.84721e-12</wgt>
  <wgt id="896">9.12981e-12</wgt>
  <wgt id="897">8.34733e-12</wgt>
  <wgt id="898">7.65006e-12</wgt>
  <wgt id="899">7.64513e-12</wgt>
  <wgt id="900">7.61698e-12</wgt>
  <wgt id="901">7.29336e-12</wgt>
  <wgt id="902">7.20657e-12</wgt>
  <wgt id="903">7.05846e-12</wgt>
  <wgt id="904">7.87574e-12</wgt>
  <wgt id="905">7.70579e-12</wgt>
  <wgt id="906">8.91225e-12</wgt>
  <wgt id="907">8.54426e-12</wgt>
  <wgt id="908">8.3211e-12</wgt>
  <wgt id="909">7.49901e-12</wgt>
  <wgt id="910">7.5839e-12</wgt>
  <wgt id="911">7.75051e-12</wgt>
  <wgt id="912">7.72572e-12</wgt>
  <wgt id="913">7.24839e-12</wgt>
  <wgt id="914">7.85647e-12</wgt>
  <wgt id="915">7.70681e-12</wgt>
  <wgt id="916">8.41139e-12</wgt>
  <wgt id="917">7.7273e-12</wgt>
  <wgt id="918">7.79446e-12</wgt>
  <wgt id="919">7.60724e-12</wgt>
  <wgt id="920">7.5057e-12</wgt>
  <wgt id="921">7.88428e-12</wgt>
  <wgt id="922">7.23585e-12</wgt>
  <wgt id="923">7.5757e-12</wgt>
  <wgt id="924">7.33354e-12</wgt>
  <wgt id="925">7.08941e-12</wgt>
  <wgt id="926">8.3409e-12</wgt>
  <wgt id="927">8.21674e-12</wgt>
  <wgt id="928">8.25895e-12</wgt>
  <wgt id="929">7.9197e-12</wgt>
  <wgt id="930">7.73389e-12</wgt>
  <wgt id="931">7.74041e-12</wgt>
  <wgt id="932">7.49408e-12</wgt>
  <wgt id="933">8.30594e-12</wgt>
  <wgt id="934">7.76377e-12</wgt>
  <wgt id="935">8.60695e-12</wgt>
  <wgt id="936">7.76661e-12</wgt>
  <wgt id="937">8.0351e-12</wgt>
  <wgt id="938">7.95654e-12</wgt>
  <wgt id="939">7.71889e-12</wgt>
  <wgt id="940">7.96354e-12</wgt>
  <wgt id="941">7.62088e-12</wgt>
  <wgt id="942">7.97379e-12</wgt>
  <wgt id="943">8.6908e-12</wgt>
  <wgt id="944">7.14534e-12</wgt>
  <wgt id="945">7.79123e-12</wgt>
  <wgt id="946">7.59844e-12</wgt>
  <wgt id="947">7.71711e-12</wgt>
  <wgt id="948">8.15346e-12</wgt>
  <wgt id="949">8.274e-12</wgt>
  <wgt id="950">7.18656e-12</wgt>
  <wgt id="951">7.7907e-12</wgt>
  <wgt id="952">8.23045e-12</wgt>
  <wgt id="953">8.14141e-12</wgt>
  <wgt id="954">8.0669e-12</wgt>
  <wgt id="955">7.30182e-12</wgt>
  <wgt id="956">7.47112e-12</wgt>
  <wgt id="957">8.11304e-12</wgt>
  <wgt id="958">7.89048e-12</wgt>
  <wgt id="959">7.85952e-12</wgt>
  <wgt id="960">7.30665e-12</wgt>
  <wgt id="961">7.88944e-12</wgt>
  <wgt id="962">8.18409e-12</wgt>
  <wgt id="963">7.93783e-12</wgt>
  <wgt id="964">8.29629e-12</wgt>
  <wgt id="965">8.2954e-12</wgt>
  <wgt id="966">7.88314e-12</wgt>
  <wgt id="967">8.14897e-12</wgt>
  <wgt id="968">7.97035e-12</wgt>
  <wgt id="969">7.86011e-12</wgt>
  <wgt id="970">8.01958e-12</wgt>
  <wgt id="971">7.46558e-12</wgt>
  <wgt id="972">8.3071e-12</wgt>
  <wgt id="973">7.79059e-12</wgt>
  <wgt id="974">9.13312e-12</wgt>
  <wgt id="975">7.49544e-12</wgt>
  <wgt id="976">7.83831e-12</wgt>
  <wgt id="977">7.02327e-12</wgt>
  <wgt id="978">8.20549e-12</wgt>
  <wgt id="979">8.45857e-12</wgt>
  <wgt id="980">7.88123e-12</wgt>
  <wgt id="981">7.9089e-12</wgt>
  <wgt id="982">7.64955e-12</wgt>
</rwgt>
</event>
<event>
 5   1  0.5790000E-11  0.1988186E+04  0.7818608E-02  0.7833678E-01
       21   -1    0    0  502  501  0.00000000000E+00  0.00000000000E+00  0.63856772416E+03  0.63856772416E+03  0.00000000000E+00 0.  1.
       21   -1    0    0  501  502 -0.00000000000E+00 -0.00000000000E+00 -0.15475589463E+04  0.15475589463E+04  0.00000000000E+00 0. -1.
       39    2    1    2    0    0  0.00000000000E+00  0.00000000000E+00 -0.90899122218E+03  0.21861266705E+04  0.19881863035E+04 0.  0.
       25    1    3    3    0    0 -0.38566318889E+03 -0.90266073202E+03 -0.55917738011E+03  0.11365900030E+04  0.12500000000E+03 0.  0.
       25    1    3    3    0    0  0.38566318889E+03  0.90266073202E+03 -0.34981384207E+03  0.10495366675E+04  0.12500000000E+03 0.  0.
<mgrwt>
<rscale>  0 0.19881863E+04</rscale>
<asrwt>0</asrwt>
<pdfrwt beam="1">  1       21 0.98241190E-01 0.19881863E+04</pdfrwt>
<pdfrwt beam="2">  1       21 0.23808599E+00 0.19881863E+04</pdfrwt>
<totfact> 0.28554447E+01</totfact>
</mgrwt>
<rwgt>
  <wgt id="1">5.79e-12</wgt>
  <wgt id="2">5.06764e-12</wgt>
  <wgt id="3">6.68124e-12</wgt>
  <wgt id="4">5.79e-12</wgt>
  <wgt id="5">5.06764e-12</wgt>
  <wgt id="6">6.68124e-12</wgt>
  <wgt id="7">5.79e-12</wgt>
  <wgt id="8">5.06764e-12</wgt>
  <wgt id="9">6.68124e-12</wgt>
  <wgt id="10">5.95575e-12</wgt>
  <wgt id="11">5.95221e-12</wgt>
  <wgt id="12">5.94735e-12</wgt>
  <wgt id="13">5.9385e-12</wgt>
  <wgt id="14">5.9774e-12</wgt>
  <wgt id="15">5.96565e-12</wgt>
  <wgt id="16">5.9475e-12</wgt>
  <wgt id="17">5.97304e-12</wgt>
  <wgt id="18">5.94669e-12</wgt>
  <wgt id="19">5.96793e-12</wgt>
  <wgt id="20">5.94314e-12</wgt>
  <wgt id="21">5.91488e-12</wgt>
  <wgt id="22">5.92572e-12</wgt>
  <wgt id="23">5.89453e-12</wgt>
  <wgt id="24">5.923e-12</wgt>
  <wgt id="25">5.93923e-12</wgt>
  <wgt id="26">5.97413e-12</wgt>
  <wgt id="27">5.95212e-12</wgt>
  <wgt id="28">5.92503e-12</wgt>
  <wgt id="29">5.95961e-12</wgt>
  <wgt id="30">5.92704e-12</wgt>
  <wgt id="31">5.97784e-12</wgt>
  <wgt id="32">5.93569e-12</wgt>
  <wgt id="33">5.96646e-12</wgt>
  <wgt id="34">5.93027e-12</wgt>
  <wgt id="35">5.94129e-12</wgt>
  <wgt id="36">5.97472e-12</wgt>
  <wgt id="37">5.94023e-12</wgt>
  <wgt id="38">5.93855e-12</wgt>
  <wgt id="39">6.02768e-12</wgt>
  <wgt id="40">5.96094e-12</wgt>
  <wgt id="41">5.95408e-12</wgt>
  <wgt id="42">5.96306e-12</wgt>
  <wgt id="43">5.95446e-12</wgt>
  <wgt id="44">5.95739e-12</wgt>
  <wgt id="45">5.96546e-12</wgt>
  <wgt id="46">5.95555e-12</wgt>
  <wgt id="47">5.95848e-12</wgt>
  <wgt id="48">5.95522e-12</wgt>
  <wgt id="49">5.94058e-12</wgt>
  <wgt id="50">5.95723e-12</wgt>
  <wgt id="51">5.95909e-12</wgt>
  <wgt id="52">5.96445e-12</wgt>
  <wgt id="53">5.93043e-12</wgt>
  <wgt id="54">5.9545e-12</wgt>
  <wgt id="55">5.9545e-12</wgt>
  <wgt id="56">5.98074e-12</wgt>
  <wgt id="57">5.96928e-12</wgt>
  <wgt id="58">5.93137e-12</wgt>
  <wgt id="59">5.94226e-12</wgt>
  <wgt id="60">5.96181e-12</wgt>
  <wgt id="61">5.9282e-12</wgt>
  <wgt id="62">5.93852e-12</wgt>
  <wgt id="63">5.94941e-12</wgt>
  <wgt id="64">5.95908e-12</wgt>
  <wgt id="65">5.96452e-12</wgt>
  <wgt id="66">5.94907e-12</wgt>
  <wgt id="67">5.93e-12</wgt>
  <wgt id="68">5.95332e-12</wgt>
  <wgt id="69">5.95754e-12</wgt>
  <wgt id="70">5.9572e-12</wgt>
  <wgt id="71">5.95573e-12</wgt>
  <wgt id="72">5.94401e-12</wgt>
  <wgt id="73">5.95978e-12</wgt>
  <wgt id="74">5.95789e-12</wgt>
  <wgt id="75">5.9474e-12</wgt>
  <wgt id="76">5.96829e-12</wgt>
  <wgt id="77">5.95426e-12</wgt>
  <wgt id="78">5.95544e-12</wgt>
  <wgt id="79">5.96922e-12</wgt>
  <wgt id="80">5.93488e-12</wgt>
  <wgt id="81">5.95131e-12</wgt>
  <wgt id="82">5.95599e-12</wgt>
  <wgt id="83">5.93539e-12</wgt>
  <wgt id="84">5.94818e-12</wgt>
  <wgt id="85">5.94246e-12</wgt>
  <wgt id="86">5.97301e-12</wgt>
  <wgt id="87">5.92517e-12</wgt>
  <wgt id="88">5.96198e-12</wgt>
  <wgt id="89">5.96069e-12</wgt>
  <wgt id="90">5.96763e-12</wgt>
  <wgt id="91">5.96191e-12</wgt>
  <wgt id="92">5.96701e-12</wgt>
  <wgt id="93">5.95843e-12</wgt>
  <wgt id="94">5.95023e-12</wgt>
  <wgt id="95">5.96419e-12</wgt>
  <wgt id="96">5.96049e-12</wgt>
  <wgt id="97">5.94488e-12</wgt>
  <wgt id="98">5.95801e-12</wgt>
  <wgt id="99">5.94724e-12</wgt>
  <wgt id="100">5.9617e-12</wgt>
  <wgt id="101">5.95645e-12</wgt>
  <wgt id="102">5.95149e-12</wgt>
  <wgt id="103">5.96364e-12</wgt>
  <wgt id="104">5.95323e-12</wgt>
  <wgt id="105">5.96359e-12</wgt>
  <wgt id="106">5.94721e-12</wgt>
  <wgt id="107">5.97208e-12</wgt>
  <wgt id="108">5.94967e-12</wgt>
  <wgt id="109">5.9567e-12</wgt>
  <wgt id="110">5.95613e-12</wgt>
  <wgt id="111">6.00002e-12</wgt>
  <wgt id="112">5.97016e-12</wgt>
  <wgt id="113">7.88338e-12</wgt>
  <wgt id="114">8.00997e-12</wgt>
  <wgt id="115">7.88059e-12</wgt>
  <wgt id="116">1.04094e-11</wgt>
  <wgt id="117">6.4725e-12</wgt>
  <wgt id="118">6.49178e-12</wgt>
  <wgt id="119">6.46144e-12</wgt>
  <wgt id="120">6.47333e-12</wgt>
  <wgt id="121">6.4721e-12</wgt>
  <wgt id="122">6.46092e-12</wgt>
  <wgt id="123">6.48826e-12</wgt>
  <wgt id="124">6.46304e-12</wgt>
  <wgt id="125">6.47839e-12</wgt>
  <wgt id="126">6.48125e-12</wgt>
  <wgt id="127">6.46651e-12</wgt>
  <wgt id="128">6.49256e-12</wgt>
  <wgt id="129">6.45267e-12</wgt>
  <wgt id="130">6.50683e-12</wgt>
  <wgt id="131">6.43719e-12</wgt>
  <wgt id="132">6.31185e-12</wgt>
  <wgt id="133">6.66103e-12</wgt>
  <wgt id="134">6.40864e-12</wgt>
  <wgt id="135">6.52232e-12</wgt>
  <wgt id="136">6.55053e-12</wgt>
  <wgt id="137">6.3779e-12</wgt>
  <wgt id="138">6.70873e-12</wgt>
  <wgt id="139">6.24342e-12</wgt>
  <wgt id="140">6.43091e-12</wgt>
  <wgt id="141">6.50466e-12</wgt>
  <wgt id="142">6.47275e-12</wgt>
  <wgt id="143">6.4827e-12</wgt>
  <wgt id="144">6.30803e-12</wgt>
  <wgt id="145">6.62353e-12</wgt>
  <wgt id="146">6.52315e-12</wgt>
  <wgt id="147">6.43236e-12</wgt>
  <wgt id="148">6.49109e-12</wgt>
  <wgt id="149">6.47106e-12</wgt>
  <wgt id="150">6.52501e-12</wgt>
  <wgt id="151">6.44793e-12</wgt>
  <wgt id="152">6.47443e-12</wgt>
  <wgt id="153">6.47176e-12</wgt>
  <wgt id="154">6.52178e-12</wgt>
  <wgt id="155">6.41173e-12</wgt>
  <wgt id="156">6.58684e-12</wgt>
  <wgt id="157">6.34779e-12</wgt>
  <wgt id="158">7.79177e-12</wgt>
  <wgt id="159">7.82459e-12</wgt>
  <wgt id="160">7.76586e-12</wgt>
  <wgt id="161">7.77507e-12</wgt>
  <wgt id="162">7.81049e-12</wgt>
  <wgt id="163">7.78448e-12</wgt>
  <wgt id="164">7.8026e-12</wgt>
  <wgt id="165">7.79528e-12</wgt>
  <wgt id="166">7.78962e-12</wgt>
  <wgt id="167">7.78608e-12</wgt>
  <wgt id="168">7.79995e-12</wgt>
  <wgt id="169">7.758e-12</wgt>
  <wgt id="170">7.81288e-12</wgt>
  <wgt id="171">7.78552e-12</wgt>
  <wgt id="172">7.80076e-12</wgt>
  <wgt id="173">7.78961e-12</wgt>
  <wgt id="174">7.79276e-12</wgt>
  <wgt id="175">7.59045e-12</wgt>
  <wgt id="176">8.05333e-12</wgt>
  <wgt id="177">7.82735e-12</wgt>
  <wgt id="178">7.75923e-12</wgt>
  <wgt id="179">8.09811e-12</wgt>
  <wgt id="180">7.30695e-12</wgt>
  <wgt id="181">7.58037e-12</wgt>
  <wgt id="182">7.93148e-12</wgt>
  <wgt id="183">7.6624e-12</wgt>
  <wgt id="184">7.85582e-12</wgt>
  <wgt id="185">7.72807e-12</wgt>
  <wgt id="186">7.86617e-12</wgt>
  <wgt id="187">7.72106e-12</wgt>
  <wgt id="188">7.91753e-12</wgt>
  <wgt id="189">7.74477e-12</wgt>
  <wgt id="190">7.81097e-12</wgt>
  <wgt id="191">7.81264e-12</wgt>
  <wgt id="192">7.77936e-12</wgt>
  <wgt id="193">7.8936e-12</wgt>
  <wgt id="194">7.74115e-12</wgt>
  <wgt id="195">7.63333e-12</wgt>
  <wgt id="196">8.08707e-12</wgt>
  <wgt id="197">7.82759e-12</wgt>
  <wgt id="198">7.78326e-12</wgt>
  <wgt id="199">7.79177e-12</wgt>
  <wgt id="200">7.8555e-12</wgt>
  <wgt id="201">7.83241e-12</wgt>
  <wgt id="202">7.81024e-12</wgt>
  <wgt id="203">7.77688e-12</wgt>
  <wgt id="204">7.76125e-12</wgt>
  <wgt id="205">7.74766e-12</wgt>
  <wgt id="206">7.62931e-12</wgt>
  <wgt id="207">7.6731e-12</wgt>
  <wgt id="208">7.58625e-12</wgt>
  <wgt id="209">7.64719e-12</wgt>
  <wgt id="210">7.61656e-12</wgt>
  <wgt id="211">7.62767e-12</wgt>
  <wgt id="212">7.6304e-12</wgt>
  <wgt id="213">7.6285e-12</wgt>
  <wgt id="214">7.63037e-12</wgt>
  <wgt id="215">7.63358e-12</wgt>
  <wgt id="216">7.62641e-12</wgt>
  <wgt id="217">7.64766e-12</wgt>
  <wgt id="218">7.61539e-12</wgt>
  <wgt id="219">7.6167e-12</wgt>
  <wgt id="220">7.63688e-12</wgt>
  <wgt id="221">7.62784e-12</wgt>
  <wgt id="222">7.63235e-12</wgt>
  <wgt id="223">7.25381e-12</wgt>
  <wgt id="224">7.97046e-12</wgt>
  <wgt id="225">7.54704e-12</wgt>
  <wgt id="226">7.733e-12</wgt>
  <wgt id="227">7.56326e-12</wgt>
  <wgt id="228">7.65853e-12</wgt>
  <wgt id="229">7.53139e-12</wgt>
  <wgt id="230">7.67805e-12</wgt>
  <wgt id="231">7.83758e-12</wgt>
  <wgt id="232">7.45744e-12</wgt>
  <wgt id="233">7.59182e-12</wgt>
  <wgt id="234">7.68828e-12</wgt>
  <wgt id="235">7.47979e-12</wgt>
  <wgt id="236">7.76938e-12</wgt>
  <wgt id="237">7.52887e-12</wgt>
  <wgt id="238">7.66357e-12</wgt>
  <wgt id="239">7.58546e-12</wgt>
  <wgt id="240">7.70888e-12</wgt>
  <wgt id="241">7.55696e-12</wgt>
  <wgt id="242">7.71556e-12</wgt>
  <wgt id="243">7.69957e-12</wgt>
  <wgt id="244">7.66929e-12</wgt>
  <wgt id="245">7.62349e-12</wgt>
  <wgt id="246">7.68315e-12</wgt>
  <wgt id="247">7.62931e-12</wgt>
  <wgt id="248">7.69425e-12</wgt>
  <wgt id="249">7.67019e-12</wgt>
  <wgt id="250">7.64711e-12</wgt>
  <wgt id="251">7.61309e-12</wgt>
  <wgt id="252">7.59695e-12</wgt>
  <wgt id="253">7.5851e-12</wgt>
  <wgt id="254">7.43677e-12</wgt>
  <wgt id="255">7.44311e-12</wgt>
  <wgt id="256">7.42924e-12</wgt>
  <wgt id="257">7.44264e-12</wgt>
  <wgt id="258">7.43218e-12</wgt>
  <wgt id="259">7.48553e-12</wgt>
  <wgt id="260">7.38915e-12</wgt>
  <wgt id="261">7.44268e-12</wgt>
  <wgt id="262">7.42935e-12</wgt>
  <wgt id="263">7.43362e-12</wgt>
  <wgt id="264">7.43978e-12</wgt>
  <wgt id="265">7.4296e-12</wgt>
  <wgt id="266">7.45065e-12</wgt>
  <wgt id="267">7.43861e-12</wgt>
  <wgt id="268">7.43352e-12</wgt>
  <wgt id="269">7.45611e-12</wgt>
  <wgt id="270">7.42341e-12</wgt>
  <wgt id="271">7.42221e-12</wgt>
  <wgt id="272">7.45257e-12</wgt>
  <wgt id="273">7.41672e-12</wgt>
  <wgt id="274">7.45137e-12</wgt>
  <wgt id="275">7.40645e-12</wgt>
  <wgt id="276">7.46768e-12</wgt>
  <wgt id="277">7.3966e-12</wgt>
  <wgt id="278">7.47368e-12</wgt>
  <wgt id="279">7.31159e-12</wgt>
  <wgt id="280">7.59302e-12</wgt>
  <wgt id="281">7.40837e-12</wgt>
  <wgt id="282">7.438e-12</wgt>
  <wgt id="283">7.24036e-12</wgt>
  <wgt id="284">7.67758e-12</wgt>
  <wgt id="285">7.10658e-12</wgt>
  <wgt id="286">7.70853e-12</wgt>
  <wgt id="287">7.45881e-12</wgt>
  <wgt id="288">7.40814e-12</wgt>
  <wgt id="289">7.48518e-12</wgt>
  <wgt id="290">7.32384e-12</wgt>
  <wgt id="291">7.41773e-12</wgt>
  <wgt id="292">7.44052e-12</wgt>
  <wgt id="293">7.38337e-12</wgt>
  <wgt id="294">7.48935e-12</wgt>
  <wgt id="295">7.30457e-12</wgt>
  <wgt id="296">7.59733e-12</wgt>
  <wgt id="297">7.43829e-12</wgt>
  <wgt id="298">7.45896e-12</wgt>
  <wgt id="299">7.41511e-12</wgt>
  <wgt id="300">7.4929e-12</wgt>
  <wgt id="301">7.35741e-12</wgt>
  <wgt id="302">7.651e-12</wgt>
  <wgt id="303">7.38946e-12</wgt>
  <wgt id="304">7.46371e-12</wgt>
  <wgt id="305">7.45713e-12</wgt>
  <wgt id="306">7.46404e-12</wgt>
  <wgt id="307">7.44919e-12</wgt>
  <wgt id="308">7.46374e-12</wgt>
  <wgt id="309">7.45225e-12</wgt>
  <wgt id="310">7.50773e-12</wgt>
  <wgt id="311">7.40969e-12</wgt>
  <wgt id="312">7.46081e-12</wgt>
  <wgt id="313">7.45296e-12</wgt>
  <wgt id="314">7.45393e-12</wgt>
  <wgt id="315">7.45952e-12</wgt>
  <wgt id="316">7.45022e-12</wgt>
  <wgt id="317">7.47144e-12</wgt>
  <wgt id="318">7.46116e-12</wgt>
  <wgt id="319">7.4489e-12</wgt>
  <wgt id="320">7.47725e-12</wgt>
  <wgt id="321">7.44536e-12</wgt>
  <wgt id="322">7.43884e-12</wgt>
  <wgt id="323">7.47781e-12</wgt>
  <wgt id="324">7.44109e-12</wgt>
  <wgt id="325">7.47039e-12</wgt>
  <wgt id="326">7.43219e-12</wgt>
  <wgt id="327">7.48827e-12</wgt>
  <wgt id="328">7.41876e-12</wgt>
  <wgt id="329">7.47889e-12</wgt>
  <wgt id="330">7.65397e-12</wgt>
  <wgt id="331">7.26855e-12</wgt>
  <wgt id="332">7.43347e-12</wgt>
  <wgt id="333">7.45715e-12</wgt>
  <wgt id="334">7.30335e-12</wgt>
  <wgt id="335">7.64749e-12</wgt>
  <wgt id="336">7.21751e-12</wgt>
  <wgt id="337">7.74709e-12</wgt>
  <wgt id="338">7.53473e-12</wgt>
  <wgt id="339">7.38463e-12</wgt>
  <wgt id="340">7.50255e-12</wgt>
  <wgt id="341">7.33916e-12</wgt>
  <wgt id="342">7.44402e-12</wgt>
  <wgt id="343">7.44979e-12</wgt>
  <wgt id="344">7.40864e-12</wgt>
  <wgt id="345">7.51272e-12</wgt>
  <wgt id="346">7.31981e-12</wgt>
  <wgt id="347">7.61399e-12</wgt>
  <wgt id="348">7.46262e-12</wgt>
  <wgt id="349">7.47428e-12</wgt>
  <wgt id="350">7.42972e-12</wgt>
  <wgt id="351">7.5255e-12</wgt>
  <wgt id="352">7.37206e-12</wgt>
  <wgt id="353">7.67925e-12</wgt>
  <wgt id="354">7.38628e-12</wgt>
  <wgt id="355">7.5006e-12</wgt>
  <wgt id="356">7.43677e-12</wgt>
  <wgt id="357">7.48639e-12</wgt>
  <wgt id="358">7.45713e-12</wgt>
  <wgt id="359">7.46166e-12</wgt>
  <wgt id="360">7.48448e-12</wgt>
  <wgt id="361">7.4588e-12</wgt>
  <wgt id="362">7.5768e-12</wgt>
  <wgt id="363">7.56078e-12</wgt>
  <wgt id="364">7.53673e-12</wgt>
  <wgt id="365">7.51372e-12</wgt>
  <wgt id="366">7.48796e-12</wgt>
  <wgt id="367">7.43503e-12</wgt>
  <wgt id="368">7.40512e-12</wgt>
  <wgt id="369">7.37277e-12</wgt>
  <wgt id="370">7.4588e-12</wgt>
  <wgt id="371">7.49037e-12</wgt>
  <wgt id="372">7.47302e-12</wgt>
  <wgt id="373">7.44706e-12</wgt>
  <wgt id="374">7.44597e-12</wgt>
  <wgt id="375">7.97863e-12</wgt>
  <wgt id="376">7.97905e-12</wgt>
  <wgt id="377">7.97788e-12</wgt>
  <wgt id="378">8.00713e-12</wgt>
  <wgt id="379">7.95044e-12</wgt>
  <wgt id="380">8.00102e-12</wgt>
  <wgt id="381">7.96985e-12</wgt>
  <wgt id="382">8.01354e-12</wgt>
  <wgt id="383">7.94401e-12</wgt>
  <wgt id="384">7.98361e-12</wgt>
  <wgt id="385">7.97373e-12</wgt>
  <wgt id="386">8.00437e-12</wgt>
  <wgt id="387">7.96759e-12</wgt>
  <wgt id="388">7.97186e-12</wgt>
  <wgt id="389">7.98658e-12</wgt>
  <wgt id="390">7.99705e-12</wgt>
  <wgt id="391">7.95904e-12</wgt>
  <wgt id="392">7.92629e-12</wgt>
  <wgt id="393">8.00834e-12</wgt>
  <wgt id="394">7.98788e-12</wgt>
  <wgt id="395">7.9659e-12</wgt>
  <wgt id="396">7.98224e-12</wgt>
  <wgt id="397">7.97596e-12</wgt>
  <wgt id="398">7.95805e-12</wgt>
  <wgt id="399">7.99853e-12</wgt>
  <wgt id="400">7.969e-12</wgt>
  <wgt id="401">7.99991e-12</wgt>
  <wgt id="402">7.92118e-12</wgt>
  <wgt id="403">8.00425e-12</wgt>
  <wgt id="404">8.14886e-12</wgt>
  <wgt id="405">7.56683e-12</wgt>
  <wgt id="406">7.85402e-12</wgt>
  <wgt id="407">8.24869e-12</wgt>
  <wgt id="408">8.04204e-12</wgt>
  <wgt id="409">7.8572e-12</wgt>
  <wgt id="410">7.77458e-12</wgt>
  <wgt id="411">8.0731e-12</wgt>
  <wgt id="412">7.96504e-12</wgt>
  <wgt id="413">7.99739e-12</wgt>
  <wgt id="414">7.8969e-12</wgt>
  <wgt id="415">8.04198e-12</wgt>
  <wgt id="416">8.16939e-12</wgt>
  <wgt id="417">7.71406e-12</wgt>
  <wgt id="418">7.98942e-12</wgt>
  <wgt id="419">7.9193e-12</wgt>
  <wgt id="420">8.0723e-12</wgt>
  <wgt id="421">7.92634e-12</wgt>
  <wgt id="422">7.97197e-12</wgt>
  <wgt id="423">7.98336e-12</wgt>
  <wgt id="424">8.11636e-12</wgt>
  <wgt id="425">7.89138e-12</wgt>
  <wgt id="426">7.97863e-12</wgt>
  <wgt id="427">7.91004e-12</wgt>
  <wgt id="428">8.16894e-12</wgt>
  <wgt id="429">8.04254e-12</wgt>
  <wgt id="430">8.24984e-12</wgt>
  <wgt id="431">8.20895e-12</wgt>
  <wgt id="432">8.1699e-12</wgt>
  <wgt id="433">8.13216e-12</wgt>
  <wgt id="434">8.08584e-12</wgt>
  <wgt id="435">7.98864e-12</wgt>
  <wgt id="436">7.93845e-12</wgt>
  <wgt id="437">7.89105e-12</wgt>
  <wgt id="438">8.04254e-12</wgt>
  <wgt id="439">8.06807e-12</wgt>
  <wgt id="440">8.05305e-12</wgt>
  <wgt id="441">8.03445e-12</wgt>
  <wgt id="442">8.02835e-12</wgt>
  <wgt id="443">7.75762e-12</wgt>
  <wgt id="444">7.8035e-12</wgt>
  <wgt id="445">7.76769e-12</wgt>
  <wgt id="446">7.7057e-12</wgt>
  <wgt id="447">7.74897e-12</wgt>
  <wgt id="448">7.57879e-12</wgt>
  <wgt id="449">7.87153e-12</wgt>
  <wgt id="450">7.77161e-12</wgt>
  <wgt id="451">7.74431e-12</wgt>
  <wgt id="452">7.90711e-12</wgt>
  <wgt id="453">7.81651e-12</wgt>
  <wgt id="454">7.45397e-12</wgt>
  <wgt id="455">7.7823e-12</wgt>
  <wgt id="456">7.73448e-12</wgt>
  <wgt id="457">7.77857e-12</wgt>
  <wgt id="458">7.85784e-12</wgt>
  <wgt id="459">7.81371e-12</wgt>
  <wgt id="460">7.83226e-12</wgt>
  <wgt id="461">7.62581e-12</wgt>
  <wgt id="462">7.71549e-12</wgt>
  <wgt id="463">7.67082e-12</wgt>
  <wgt id="464">7.72605e-12</wgt>
  <wgt id="465">7.82571e-12</wgt>
  <wgt id="466">7.66545e-12</wgt>
  <wgt id="467">7.69784e-12</wgt>
  <wgt id="468">7.74244e-12</wgt>
  <wgt id="469">7.74775e-12</wgt>
  <wgt id="470">7.68324e-12</wgt>
  <wgt id="471">7.69662e-12</wgt>
  <wgt id="472">7.78781e-12</wgt>
  <wgt id="473">7.56675e-12</wgt>
  <wgt id="474">5.79e-12</wgt>
  <wgt id="475">5.97348e-12</wgt>
  <wgt id="476">5.68774e-12</wgt>
  <wgt id="477">5.59846e-12</wgt>
  <wgt id="478">5.84177e-12</wgt>
  <wgt id="479">5.69279e-12</wgt>
  <wgt id="480">6.01715e-12</wgt>
  <wgt id="481">5.74413e-12</wgt>
  <wgt id="482">5.68634e-12</wgt>
  <wgt id="483">5.65485e-12</wgt>
  <wgt id="484">5.99451e-12</wgt>
  <wgt id="485">5.6794e-12</wgt>
  <wgt id="486">6.02079e-12</wgt>
  <wgt id="487">5.80031e-12</wgt>
  <wgt id="488">5.90194e-12</wgt>
  <wgt id="489">5.52269e-12</wgt>
  <wgt id="490">5.60046e-12</wgt>
  <wgt id="491">5.77711e-12</wgt>
  <wgt id="492">5.69235e-12</wgt>
  <wgt id="493">5.56527e-12</wgt>
  <wgt id="494">5.61059e-12</wgt>
  <wgt id="495">5.80628e-12</wgt>
  <wgt id="496">5.60567e-12</wgt>
  <wgt id="497">5.56838e-12</wgt>
  <wgt id="498">5.92916e-12</wgt>
  <wgt id="499">5.71866e-12</wgt>
  <wgt id="500">5.67023e-12</wgt>
  <wgt id="501">5.97687e-12</wgt>
  <wgt id="502">5.74559e-12</wgt>
  <wgt id="503">5.80575e-12</wgt>
  <wgt id="504">5.88157e-12</wgt>
  <wgt id="505">5.67496e-12</wgt>
  <wgt id="506">5.78775e-12</wgt>
  <wgt id="507">5.78932e-12</wgt>
  <wgt id="508">5.97758e-12</wgt>
  <wgt id="509">5.42216e-12</wgt>
  <wgt id="510">5.8827e-12</wgt>
  <wgt id="511">5.60842e-12</wgt>
  <wgt id="512">5.93358e-12</wgt>
  <wgt id="513">5.94572e-12</wgt>
  <wgt id="514">5.84592e-12</wgt>
  <wgt id="515">5.77044e-12</wgt>
  <wgt id="516">6.07133e-12</wgt>
  <wgt id="517">5.92321e-12</wgt>
  <wgt id="518">5.95249e-12</wgt>
  <wgt id="519">5.65284e-12</wgt>
  <wgt id="520">5.89605e-12</wgt>
  <wgt id="521">5.93042e-12</wgt>
  <wgt id="522">6.02943e-12</wgt>
  <wgt id="523">5.7407e-12</wgt>
  <wgt id="524">5.74661e-12</wgt>
  <wgt id="525">5.92686e-12</wgt>
  <wgt id="526">5.84404e-12</wgt>
  <wgt id="527">5.83243e-12</wgt>
  <wgt id="528">5.81113e-12</wgt>
  <wgt id="529">5.73654e-12</wgt>
  <wgt id="530">5.91636e-12</wgt>
  <wgt id="531">5.69571e-12</wgt>
  <wgt id="532">6.11808e-12</wgt>
  <wgt id="533">5.55653e-12</wgt>
  <wgt id="534">5.76705e-12</wgt>
  <wgt id="535">5.81439e-12</wgt>
  <wgt id="536">5.74673e-12</wgt>
  <wgt id="537">5.77588e-12</wgt>
  <wgt id="538">5.86022e-12</wgt>
  <wgt id="539">5.69812e-12</wgt>
  <wgt id="540">5.77487e-12</wgt>
  <wgt id="541">5.62417e-12</wgt>
  <wgt id="542">5.7262e-12</wgt>
  <wgt id="543">5.7882e-12</wgt>
  <wgt id="544">6.02471e-12</wgt>
  <wgt id="545">5.67129e-12</wgt>
  <wgt id="546">5.59604e-12</wgt>
  <wgt id="547">5.67204e-12</wgt>
  <wgt id="548">5.56252e-12</wgt>
  <wgt id="549">5.71642e-12</wgt>
  <wgt id="550">5.676e-12</wgt>
  <wgt id="551">5.87497e-12</wgt>
  <wgt id="552">5.60092e-12</wgt>
  <wgt id="553">5.72883e-12</wgt>
  <wgt id="554">6.17379e-12</wgt>
  <wgt id="555">5.94923e-12</wgt>
  <wgt id="556">5.60046e-12</wgt>
  <wgt id="557">5.93215e-12</wgt>
  <wgt id="558">5.66706e-12</wgt>
  <wgt id="559">5.64233e-12</wgt>
  <wgt id="560">6.30658e-12</wgt>
  <wgt id="561">5.72749e-12</wgt>
  <wgt id="562">5.9605e-12</wgt>
  <wgt id="563">5.81151e-12</wgt>
  <wgt id="564">5.94594e-12</wgt>
  <wgt id="565">5.68138e-12</wgt>
  <wgt id="566">5.86346e-12</wgt>
  <wgt id="567">5.74745e-12</wgt>
  <wgt id="568">5.77807e-12</wgt>
  <wgt id="569">5.91015e-12</wgt>
  <wgt id="570">5.57682e-12</wgt>
  <wgt id="571">6.35909e-12</wgt>
  <wgt id="572">5.71711e-12</wgt>
  <wgt id="573">5.60416e-12</wgt>
  <wgt id="574">5.63396e-12</wgt>
  <wgt id="575">6.32576e-12</wgt>
  <wgt id="576">6.40811e-12</wgt>
  <wgt id="577">6.54124e-12</wgt>
  <wgt id="578">6.52342e-12</wgt>
  <wgt id="579">6.4857e-12</wgt>
  <wgt id="580">6.54022e-12</wgt>
  <wgt id="581">6.80051e-12</wgt>
  <wgt id="582">6.41531e-12</wgt>
  <wgt id="583">6.37548e-12</wgt>
  <wgt id="584">6.29559e-12</wgt>
  <wgt id="585">6.20589e-12</wgt>
  <wgt id="586">6.13113e-12</wgt>
  <wgt id="587">6.42759e-12</wgt>
  <wgt id="588">6.36099e-12</wgt>
  <wgt id="589">6.51406e-12</wgt>
  <wgt id="590">6.32725e-12</wgt>
  <wgt id="591">6.56134e-12</wgt>
  <wgt id="592">6.00077e-12</wgt>
  <wgt id="593">6.26167e-12</wgt>
  <wgt id="594">6.50261e-12</wgt>
  <wgt id="595">6.36614e-12</wgt>
  <wgt id="596">6.55308e-12</wgt>
  <wgt id="597">6.22283e-12</wgt>
  <wgt id="598">6.10582e-12</wgt>
  <wgt id="599">6.58233e-12</wgt>
  <wgt id="600">6.35688e-12</wgt>
  <wgt id="601">6.14929e-12</wgt>
  <wgt id="602">6.14176e-12</wgt>
  <wgt id="603">6.1648e-12</wgt>
  <wgt id="604">6.42444e-12</wgt>
  <wgt id="605">6.54808e-12</wgt>
  <wgt id="606">6.3261e-12</wgt>
  <wgt id="607">6.33399e-12</wgt>
  <wgt id="608">6.42491e-12</wgt>
  <wgt id="609">6.09101e-12</wgt>
  <wgt id="610">6.10355e-12</wgt>
  <wgt id="611">6.2897e-12</wgt>
  <wgt id="612">6.71153e-12</wgt>
  <wgt id="613">6.29416e-12</wgt>
  <wgt id="614">6.33599e-12</wgt>
  <wgt id="615">6.27196e-12</wgt>
  <wgt id="616">6.57989e-12</wgt>
  <wgt id="617">6.46553e-12</wgt>
  <wgt id="618">6.71863e-12</wgt>
  <wgt id="619">6.27392e-12</wgt>
  <wgt id="620">6.53189e-12</wgt>
  <wgt id="621">6.32869e-12</wgt>
  <wgt id="622">6.42759e-12</wgt>
  <wgt id="623">6.48103e-12</wgt>
  <wgt id="624">6.32608e-12</wgt>
  <wgt id="625">6.21229e-12</wgt>
  <wgt id="626">6.07352e-12</wgt>
  <wgt id="627">6.0515e-12</wgt>
  <wgt id="628">6.40725e-12</wgt>
  <wgt id="629">6.27114e-12</wgt>
  <wgt id="630">6.06505e-12</wgt>
  <wgt id="631">6.36319e-12</wgt>
  <wgt id="632">6.0474e-12</wgt>
  <wgt id="633">6.29835e-12</wgt>
  <wgt id="634">6.23439e-12</wgt>
  <wgt id="635">6.08884e-12</wgt>
  <wgt id="636">6.41449e-12</wgt>
  <wgt id="637">6.30546e-12</wgt>
  <wgt id="638">6.13948e-12</wgt>
  <wgt id="639">6.2422e-12</wgt>
  <wgt id="640">6.3309e-12</wgt>
  <wgt id="641">6.44985e-12</wgt>
  <wgt id="642">5.95642e-12</wgt>
  <wgt id="643">6.2853e-12</wgt>
  <wgt id="644">5.90663e-12</wgt>
  <wgt id="645">6.35065e-12</wgt>
  <wgt id="646">6.24196e-12</wgt>
  <wgt id="647">6.27075e-12</wgt>
  <wgt id="648">6.43306e-12</wgt>
  <wgt id="649">6.37135e-12</wgt>
  <wgt id="650">6.16589e-12</wgt>
  <wgt id="651">6.51676e-12</wgt>
  <wgt id="652">6.24566e-12</wgt>
  <wgt id="653">6.13094e-12</wgt>
  <wgt id="654">6.20361e-12</wgt>
  <wgt id="655">6.25684e-12</wgt>
  <wgt id="656">6.32499e-12</wgt>
  <wgt id="657">6.71387e-12</wgt>
  <wgt id="658">6.28845e-12</wgt>
  <wgt id="659">6.0733e-12</wgt>
  <wgt id="660">6.39379e-12</wgt>
  <wgt id="661">6.25361e-12</wgt>
  <wgt id="662">6.30762e-12</wgt>
  <wgt id="663">6.3635e-12</wgt>
  <wgt id="664">6.29288e-12</wgt>
  <wgt id="665">6.33268e-12</wgt>
  <wgt id="666">6.27176e-12</wgt>
  <wgt id="667">6.56329e-12</wgt>
  <wgt id="668">6.31373e-12</wgt>
  <wgt id="669">6.4599e-12</wgt>
  <wgt id="670">6.48975e-12</wgt>
  <wgt id="671">6.30521e-12</wgt>
  <wgt id="672">6.08828e-12</wgt>
  <wgt id="673">6.41727e-12</wgt>
  <wgt id="674">6.17946e-12</wgt>
  <wgt id="675">6.26417e-12</wgt>
  <wgt id="676">7.91372e-12</wgt>
  <wgt id="677">8.02982e-12</wgt>
  <wgt id="678">8.31663e-12</wgt>
  <wgt id="679">7.60022e-12</wgt>
  <wgt id="680">7.78804e-12</wgt>
  <wgt id="681">8.0215e-12</wgt>
  <wgt id="682">8.14963e-12</wgt>
  <wgt id="683">7.74976e-12</wgt>
  <wgt id="684">8.20357e-12</wgt>
  <wgt id="685">7.69646e-12</wgt>
  <wgt id="686">7.71779e-12</wgt>
  <wgt id="687">8.13763e-12</wgt>
  <wgt id="688">7.82744e-12</wgt>
  <wgt id="689">8.24933e-12</wgt>
  <wgt id="690">8.19494e-12</wgt>
  <wgt id="691">8.28926e-12</wgt>
  <wgt id="692">7.85754e-12</wgt>
  <wgt id="693">9.2703e-12</wgt>
  <wgt id="694">8.4065e-12</wgt>
  <wgt id="695">7.68727e-12</wgt>
  <wgt id="696">7.71801e-12</wgt>
  <wgt id="697">7.63627e-12</wgt>
  <wgt id="698">7.21231e-12</wgt>
  <wgt id="699">7.16666e-12</wgt>
  <wgt id="700">7.0734e-12</wgt>
  <wgt id="701">7.89917e-12</wgt>
  <wgt id="702">7.80526e-12</wgt>
  <wgt id="703">8.9953e-12</wgt>
  <wgt id="704">8.62328e-12</wgt>
  <wgt id="705">8.44666e-12</wgt>
  <wgt id="706">7.57685e-12</wgt>
  <wgt id="707">7.60025e-12</wgt>
  <wgt id="708">7.75155e-12</wgt>
  <wgt id="709">7.73604e-12</wgt>
  <wgt id="710">7.31058e-12</wgt>
  <wgt id="711">7.88347e-12</wgt>
  <wgt id="712">7.68468e-12</wgt>
  <wgt id="713">8.47357e-12</wgt>
  <wgt id="714">7.66396e-12</wgt>
  <wgt id="715">7.81335e-12</wgt>
  <wgt id="716">7.63584e-12</wgt>
  <wgt id="717">7.47642e-12</wgt>
  <wgt id="718">7.98404e-12</wgt>
  <wgt id="719">7.25459e-12</wgt>
  <wgt id="720">7.6526e-12</wgt>
  <wgt id="721">7.22991e-12</wgt>
  <wgt id="722">7.03819e-12</wgt>
  <wgt id="723">8.4144e-12</wgt>
  <wgt id="724">8.28535e-12</wgt>
  <wgt id="725">8.25462e-12</wgt>
  <wgt id="726">7.92251e-12</wgt>
  <wgt id="727">7.78091e-12</wgt>
  <wgt id="728">7.71643e-12</wgt>
  <wgt id="729">7.64514e-12</wgt>
  <wgt id="730">8.37229e-12</wgt>
  <wgt id="731">7.76711e-12</wgt>
  <wgt id="732">8.68442e-12</wgt>
  <wgt id="733">7.74396e-12</wgt>
  <wgt id="734">8.05716e-12</wgt>
  <wgt id="735">8.03216e-12</wgt>
  <wgt id="736">7.69621e-12</wgt>
  <wgt id="737">7.95597e-12</wgt>
  <wgt id="738">7.639e-12</wgt>
  <wgt id="739">8.10054e-12</wgt>
  <wgt id="740">8.74661e-12</wgt>
  <wgt id="741">7.2617e-12</wgt>
  <wgt id="742">7.82546e-12</wgt>
  <wgt id="743">7.58299e-12</wgt>
  <wgt id="744">7.74405e-12</wgt>
  <wgt id="745">8.20369e-12</wgt>
  <wgt id="746">8.34824e-12</wgt>
  <wgt id="747">7.1193e-12</wgt>
  <wgt id="748">7.83685e-12</wgt>
  <wgt id="749">8.21086e-12</wgt>
  <wgt id="750">8.29792e-12</wgt>
  <wgt id="751">8.04674e-12</wgt>
  <wgt id="752">7.31079e-12</wgt>
  <wgt id="753">7.46401e-12</wgt>
  <wgt id="754">8.19552e-12</wgt>
  <wgt id="755">7.89257e-12</wgt>
  <wgt id="756">7.86202e-12</wgt>
  <wgt id="757">7.28586e-12</wgt>
  <wgt id="758">7.86166e-12</wgt>
  <wgt id="759">8.396e-12</wgt>
  <wgt id="760">7.90409e-12</wgt>
  <wgt id="761">8.34213e-12</wgt>
  <wgt id="762">8.35164e-12</wgt>
  <wgt id="763">7.8974e-12</wgt>
  <wgt id="764">8.19408e-12</wgt>
  <wgt id="765">8.04722e-12</wgt>
  <wgt id="766">7.89913e-12</wgt>
  <wgt id="767">8.0441e-12</wgt>
  <wgt id="768">7.45474e-12</wgt>
  <wgt id="769">8.34028e-12</wgt>
  <wgt id="770">7.8247e-12</wgt>
  <wgt id="771">9.17505e-12</wgt>
  <wgt id="772">7.56815e-12</wgt>
  <wgt id="773">7.8591e-12</wgt>
  <wgt id="774">6.93933e-12</wgt>
  <wgt id="775">8.24925e-12</wgt>
  <wgt id="776">8.47958e-12</wgt>
  <wgt id="777">7.50852e-12</wgt>
  <wgt id="778">5.83682e-12</wgt>
  <wgt id="779">4.70374e-12</wgt>
  <wgt id="780">3.78613e-12</wgt>
  <wgt id="781">6.45392e-12</wgt>
  <wgt id="782">6.26939e-12</wgt>
  <wgt id="783">4.72129e-12</wgt>
  <wgt id="784">5.01714e-12</wgt>
  <wgt id="785">7.24264e-12</wgt>
  <wgt id="786">4.51232e-12</wgt>
  <wgt id="787">6.65383e-12</wgt>
  <wgt id="788">3.46446e-12</wgt>
  <wgt id="789">4.98951e-12</wgt>
  <wgt id="790">4.41391e-12</wgt>
  <wgt id="791">5.79122e-12</wgt>
  <wgt id="792">7.76072e-12</wgt>
  <wgt id="793">5.7781e-12</wgt>
  <wgt id="794">4.33675e-12</wgt>
  <wgt id="795">6.83707e-12</wgt>
  <wgt id="796">7.59682e-12</wgt>
  <wgt id="797">6.89221e-12</wgt>
  <wgt id="798">5.19275e-12</wgt>
  <wgt id="799">6.58534e-12</wgt>
  <wgt id="800">4.94445e-12</wgt>
  <wgt id="801">5.41369e-12</wgt>
  <wgt id="802">4.35577e-12</wgt>
  <wgt id="803">8.02444e-12</wgt>
  <wgt id="804">6.86951e-12</wgt>
  <wgt id="805">6.81378e-12</wgt>
  <wgt id="806">6.41945e-12</wgt>
  <wgt id="807">5.60007e-12</wgt>
  <wgt id="808">5.59721e-12</wgt>
  <wgt id="809">5.48206e-12</wgt>
  <wgt id="810">6.42971e-12</wgt>
  <wgt id="811">6.22577e-12</wgt>
  <wgt id="812">4.40453e-12</wgt>
  <wgt id="813">4.49225e-12</wgt>
  <wgt id="814">4.80063e-12</wgt>
  <wgt id="815">4.69617e-12</wgt>
  <wgt id="816">4.38184e-12</wgt>
  <wgt id="817">5.99161e-12</wgt>
  <wgt id="818">6.08313e-12</wgt>
  <wgt id="819">4.72699e-12</wgt>
  <wgt id="820">5.77155e-12</wgt>
  <wgt id="821">6.57281e-12</wgt>
  <wgt id="822">4.84355e-12</wgt>
  <wgt id="823">6.7194e-12</wgt>
  <wgt id="824">7.77693e-12</wgt>
  <wgt id="825">4.22239e-12</wgt>
  <wgt id="826">6.27161e-12</wgt>
  <wgt id="827">3.60031e-12</wgt>
  <wgt id="828">7.4083e-12</wgt>
  <wgt id="829">5.97887e-12</wgt>
  <wgt id="830">4.03558e-12</wgt>
  <wgt id="831">6.30131e-12</wgt>
  <wgt id="832">9.41494e-12</wgt>
  <wgt id="833">5.32348e-12</wgt>
  <wgt id="834">8.98751e-12</wgt>
  <wgt id="835">4.81903e-12</wgt>
  <wgt id="836">5.57036e-12</wgt>
  <wgt id="837">6.50751e-12</wgt>
  <wgt id="838">5.35725e-12</wgt>
  <wgt id="839">6.26622e-12</wgt>
  <wgt id="840">5.40108e-12</wgt>
  <wgt id="841">7.18568e-12</wgt>
  <wgt id="842">5.43173e-12</wgt>
  <wgt id="843">5.88393e-12</wgt>
  <wgt id="844">6.08017e-12</wgt>
  <wgt id="845">8.59978e-12</wgt>
  <wgt id="846">5.96439e-12</wgt>
  <wgt id="847">5.98231e-12</wgt>
  <wgt id="848">4.87302e-12</wgt>
  <wgt id="849">5.99826e-12</wgt>
  <wgt id="850">7.56376e-12</wgt>
  <wgt id="851">6.41317e-12</wgt>
  <wgt id="852">4.65867e-12</wgt>
  <wgt id="853">6.46913e-12</wgt>
  <wgt id="854">7.13685e-12</wgt>
  <wgt id="855">6.5857e-12</wgt>
  <wgt id="856">4.08767e-12</wgt>
  <wgt id="857">5.69157e-12</wgt>
  <wgt id="858">5.54804e-12</wgt>
  <wgt id="859">5.53734e-12</wgt>
  <wgt id="860">6.43083e-12</wgt>
  <wgt id="861">5.16716e-12</wgt>
  <wgt id="862">5.86073e-12</wgt>
  <wgt id="863">6.20976e-12</wgt>
  <wgt id="864">6.13444e-12</wgt>
  <wgt id="865">8.13165e-12</wgt>
  <wgt id="866">9.04176e-12</wgt>
  <wgt id="867">5.87859e-12</wgt>
  <wgt id="868">5.68689e-12</wgt>
  <wgt id="869">4.4545e-12</wgt>
  <wgt id="870">4.71398e-12</wgt>
  <wgt id="871">4.59237e-12</wgt>
  <wgt id="872">7.01423e-12</wgt>
  <wgt id="873">4.96204e-12</wgt>
  <wgt id="874">6.14216e-12</wgt>
  <wgt id="875">5.04822e-12</wgt>
  <wgt id="876">6.92288e-12</wgt>
  <wgt id="877">6.50088e-12</wgt>
  <wgt id="878">4.95308e-12</wgt>
  <wgt id="879">7.91372e-12</wgt>
  <wgt id="880">8.02982e-12</wgt>
  <wgt id="881">8.31663e-12</wgt>
  <wgt id="882">7.60022e-12</wgt>
  <wgt id="883">7.78804e-12</wgt>
  <wgt id="884">8.0215e-12</wgt>
  <wgt id="885">8.14963e-12</wgt>
  <wgt id="886">7.74976e-12</wgt>
  <wgt id="887">8.20357e-12</wgt>
  <wgt id="888">7.69646e-12</wgt>
  <wgt id="889">7.71779e-12</wgt>
  <wgt id="890">8.13763e-12</wgt>
  <wgt id="891">7.82744e-12</wgt>
  <wgt id="892">8.24933e-12</wgt>
  <wgt id="893">8.19494e-12</wgt>
  <wgt id="894">8.28926e-12</wgt>
  <wgt id="895">7.85754e-12</wgt>
  <wgt id="896">9.2703e-12</wgt>
  <wgt id="897">8.4065e-12</wgt>
  <wgt id="898">7.68727e-12</wgt>
  <wgt id="899">7.71801e-12</wgt>
  <wgt id="900">7.63627e-12</wgt>
  <wgt id="901">7.21231e-12</wgt>
  <wgt id="902">7.16666e-12</wgt>
  <wgt id="903">7.0734e-12</wgt>
  <wgt id="904">7.89917e-12</wgt>
  <wgt id="905">7.80526e-12</wgt>
  <wgt id="906">8.9953e-12</wgt>
  <wgt id="907">8.62328e-12</wgt>
  <wgt id="908">8.44666e-12</wgt>
  <wgt id="909">7.57685e-12</wgt>
  <wgt id="910">7.60025e-12</wgt>
  <wgt id="911">7.75155e-12</wgt>
  <wgt id="912">7.73604e-12</wgt>
  <wgt id="913">7.31058e-12</wgt>
  <wgt id="914">7.88347e-12</wgt>
  <wgt id="915">7.68468e-12</wgt>
  <wgt id="916">8.47357e-12</wgt>
  <wgt id="917">7.66396e-12</wgt>
  <wgt id="918">7.81335e-12</wgt>
  <wgt id="919">7.63584e-12</wgt>
  <wgt id="920">7.47642e-12</wgt>
  <wgt id="921">7.98404e-12</wgt>
  <wgt id="922">7.25459e-12</wgt>
  <wgt id="923">7.6526e-12</wgt>
  <wgt id="924">7.22991e-12</wgt>
  <wgt id="925">7.03819e-12</wgt>
  <wgt id="926">8.4144e-12</wgt>
  <wgt id="927">8.28535e-12</wgt>
  <wgt id="928">8.25462e-12</wgt>
  <wgt id="929">7.92251e-12</wgt>
  <wgt id="930">7.78091e-12</wgt>
  <wgt id="931">7.71643e-12</wgt>
  <wgt id="932">7.64514e-12</wgt>
  <wgt id="933">8.37229e-12</wgt>
  <wgt id="934">7.76711e-12</wgt>
  <wgt id="935">8.68442e-12</wgt>
  <wgt id="936">7.74396e-12</wgt>
  <wgt id="937">8.05716e-12</wgt>
  <wgt id="938">8.03216e-12</wgt>
  <wgt id="939">7.69621e-12</wgt>
  <wgt id="940">7.95597e-12</wgt>
  <wgt id="941">7.639e-12</wgt>
  <wgt id="942">8.10054e-12</wgt>
  <wgt id="943">8.74661e-12</wgt>
  <wgt id="944">7.2617e-12</wgt>
  <wgt id="945">7.82546e-12</wgt>
  <wgt id="946">7.58299e-12</wgt>
  <wgt id="947">7.74405e-12</wgt>
  <wgt id="948">8.20369e-12</wgt>
  <wgt id="949">8.34824e-12</wgt>
  <wgt id="950">7.1193e-12</wgt>
  <wgt id="951">7.83685e-12</wgt>
  <wgt id="952">8.21086e-12</wgt>
  <wgt id="953">8.29792e-12</wgt>
  <wgt id="954">8.04674e-12</wgt>
  <wgt id="955">7.31079e-12</wgt>
  <wgt id="956">7.46401e-12</wgt>
  <wgt id="957">8.19552e-12</wgt>
  <wgt id="958">7.89257e-12</wgt>
  <wgt id="959">7.86202e-12</wgt>
  <wgt id="960">7.28586e-12</wgt>
  <wgt id="961">7.86166e-12</wgt>
  <wgt id="962">8.396e-12</wgt>
  <wgt id="963">7.90409e-12</wgt>
  <wgt id="964">8.34213e-12</wgt>
  <wgt id="965">8.35164e-12</wgt>
  <wgt id="966">7.8974e-12</wgt>
  <wgt id="967">8.19408e-12</wgt>
  <wgt id="968">8.04722e-12</wgt>
  <wgt id="969">7.89913e-12</wgt>
  <wgt id="970">8.0441e-12</wgt>
  <wgt id="971">7.45474e-12</wgt>
  <wgt id="972">8.34028e-12</wgt>
  <wgt id="973">7.8247e-12</wgt>
  <wgt id="974">9.17505e-12</wgt>
  <wgt id="975">7.56815e-12</wgt>
  <wgt id="976">7.8591e-12</wgt>
  <wgt id="977">6.93933e-12</wgt>
  <wgt id="978">8.24925e-12</wgt>
  <wgt id="979">8.47958e-12</wgt>
  <wgt id="980">7.89983e-12</wgt>
  <wgt id="981">7.95012e-12</wgt>
  <wgt id="982">7.67089e-12</wgt>
</rwgt>
</event>
<event>
 5   1  0.5790000E-11  0.1477951E+04  0.7818608E-02  0.8093301E-01
       21   -1    0    0  502  501  0.00000000000E+00  0.00000000000E+00  0.94301665219E+03  0.94301665219E+03  0.00000000000E+00 0.  1.
       21   -1    0    0  501  502 -0.00000000000E+00 -0.00000000000E+00 -0.57908299078E+03  0.57908299078E+03  0.00000000000E+00 0. -1.
       39    2    1    2    0    0  0.00000000000E+00  0.00000000000E+00  0.36393366141E+03  0.15220996430E+04  0.14779511539E+04 0.  0.
       25    1    3    3    0    0 -0.27484850533E+03 -0.67447309887E+03  0.18408779662E+03  0.76155694393E+03  0.12500000000E+03 0.  0.
       25    1    3    3    0    0  0.27484850533E+03  0.67447309887E+03  0.17984586479E+03  0.76054269904E+03  0.12500000000E+03 0.  0.
<mgrwt>
<rscale>  0 0.14779512E+04</rscale>
<asrwt>0</asrwt>
<pdfrwt beam="1">  1       21 0.14507948E+00 0.14779512E+04</pdfrwt>
<pdfrwt beam="2">  1       21 0.89089691E-01 0.14779512E+04</pdfrwt>
<totfact> 0.21451285E+02</totfact>
</mgrwt>
<rwgt>
  <wgt id="1">5.79e-12</wgt>
  <wgt id="2">5.15393e-12</wgt>
  <wgt id="3">6.56059e-12</wgt>
  <wgt id="4">5.79e-12</wgt>
  <wgt id="5">5.15393e-12</wgt>
  <wgt id="6">6.56059e-12</wgt>
  <wgt id="7">5.79e-12</wgt>
  <wgt id="8">5.15393e-12</wgt>
  <wgt id="9">6.56059e-12</wgt>
  <wgt id="10">5.79462e-12</wgt>
  <wgt id="11">5.79142e-12</wgt>
  <wgt id="12">5.78776e-12</wgt>
  <wgt id="13">5.77929e-12</wgt>
  <wgt id="14">5.81283e-12</wgt>
  <wgt id="15">5.80206e-12</wgt>
  <wgt id="16">5.78318e-12</wgt>
  <wgt id="17">5.80915e-12</wgt>
  <wgt id="18">5.79554e-12</wgt>
  <wgt id="19">5.80097e-12</wgt>
  <wgt id="20">5.78334e-12</wgt>
  <wgt id="21">5.76639e-12</wgt>
  <wgt id="22">5.7751e-12</wgt>
  <wgt id="23">5.74743e-12</wgt>
  <wgt id="24">5.76703e-12</wgt>
  <wgt id="25">5.77816e-12</wgt>
  <wgt id="26">5.81114e-12</wgt>
  <wgt id="27">5.79008e-12</wgt>
  <wgt id="28">5.76327e-12</wgt>
  <wgt id="29">5.80082e-12</wgt>
  <wgt id="30">5.76606e-12</wgt>
  <wgt id="31">5.81367e-12</wgt>
  <wgt id="32">5.7657e-12</wgt>
  <wgt id="33">5.79776e-12</wgt>
  <wgt id="34">5.77512e-12</wgt>
  <wgt id="35">5.77005e-12</wgt>
  <wgt id="36">5.79672e-12</wgt>
  <wgt id="37">5.78065e-12</wgt>
  <wgt id="38">5.78801e-12</wgt>
  <wgt id="39">5.85905e-12</wgt>
  <wgt id="40">5.80625e-12</wgt>
  <wgt id="41">5.79335e-12</wgt>
  <wgt id="42">5.81775e-12</wgt>
  <wgt id="43">5.80564e-12</wgt>
  <wgt id="44">5.78026e-12</wgt>
  <wgt id="45">5.79006e-12</wgt>
  <wgt id="46">5.78717e-12</wgt>
  <wgt id="47">5.78692e-12</wgt>
  <wgt id="48">5.79528e-12</wgt>
  <wgt id="49">5.81343e-12</wgt>
  <wgt id="50">5.81141e-12</wgt>
  <wgt id="51">5.79539e-12</wgt>
  <wgt id="52">5.76021e-12</wgt>
  <wgt id="53">5.79249e-12</wgt>
  <wgt id="54">5.79697e-12</wgt>
  <wgt id="55">5.78961e-12</wgt>
  <wgt id="56">5.80951e-12</wgt>
  <wgt id="57">5.81191e-12</wgt>
  <wgt id="58">5.7727e-12</wgt>
  <wgt id="59">5.78633e-12</wgt>
  <wgt id="60">5.80037e-12</wgt>
  <wgt id="61">5.80176e-12</wgt>
  <wgt id="62">5.79253e-12</wgt>
  <wgt id="63">5.79959e-12</wgt>
  <wgt id="64">5.80038e-12</wgt>
  <wgt id="65">5.79855e-12</wgt>
  <wgt id="66">5.79228e-12</wgt>
  <wgt id="67">5.79173e-12</wgt>
  <wgt id="68">5.79277e-12</wgt>
  <wgt id="69">5.79198e-12</wgt>
  <wgt id="70">5.79512e-12</wgt>
  <wgt id="71">5.78995e-12</wgt>
  <wgt id="72">5.79121e-12</wgt>
  <wgt id="73">5.79667e-12</wgt>
  <wgt id="74">5.79299e-12</wgt>
  <wgt id="75">5.79792e-12</wgt>
  <wgt id="76">5.79858e-12</wgt>
  <wgt id="77">5.79472e-12</wgt>
  <wgt id="78">5.79707e-12</wgt>
  <wgt id="79">5.79926e-12</wgt>
  <wgt id="80">5.78446e-12</wgt>
  <wgt id="81">5.78926e-12</wgt>
  <wgt id="82">5.7949e-12</wgt>
  <wgt id="83">5.78734e-12</wgt>
  <wgt id="84">5.78936e-12</wgt>
  <wgt id="85">5.79166e-12</wgt>
  <wgt id="86">5.79851e-12</wgt>
  <wgt id="87">5.78447e-12</wgt>
  <wgt id="88">5.79663e-12</wgt>
  <wgt id="89">5.79753e-12</wgt>
  <wgt id="90">5.79712e-12</wgt>
  <wgt id="91">5.79741e-12</wgt>
  <wgt id="92">5.7994e-12</wgt>
  <wgt id="93">5.79478e-12</wgt>
  <wgt id="94">5.79325e-12</wgt>
  <wgt id="95">5.79556e-12</wgt>
  <wgt id="96">5.79586e-12</wgt>
  <wgt id="97">5.79154e-12</wgt>
  <wgt id="98">5.79656e-12</wgt>
  <wgt id="99">5.79272e-12</wgt>
  <wgt id="100">5.79739e-12</wgt>
  <wgt id="101">5.79492e-12</wgt>
  <wgt id="102">5.79333e-12</wgt>
  <wgt id="103">5.79676e-12</wgt>
  <wgt id="104">5.79337e-12</wgt>
  <wgt id="105">5.79695e-12</wgt>
  <wgt id="106">5.79152e-12</wgt>
  <wgt id="107">5.80195e-12</wgt>
  <wgt id="108">5.79155e-12</wgt>
  <wgt id="109">5.79639e-12</wgt>
  <wgt id="110">5.79385e-12</wgt>
  <wgt id="111">5.87362e-12</wgt>
  <wgt id="112">5.76884e-12</wgt>
  <wgt id="113">7.00174e-12</wgt>
  <wgt id="114">7.3787e-12</wgt>
  <wgt id="115">7.26711e-12</wgt>
  <wgt id="116">8.60673e-12</wgt>
  <wgt id="117">5.97348e-12</wgt>
  <wgt id="118">5.98429e-12</wgt>
  <wgt id="119">5.96733e-12</wgt>
  <wgt id="120">5.97474e-12</wgt>
  <wgt id="121">5.97281e-12</wgt>
  <wgt id="122">5.96173e-12</wgt>
  <wgt id="123">5.98945e-12</wgt>
  <wgt id="124">5.96396e-12</wgt>
  <wgt id="125">5.97962e-12</wgt>
  <wgt id="126">5.97818e-12</wgt>
  <wgt id="127">5.97038e-12</wgt>
  <wgt id="128">5.99188e-12</wgt>
  <wgt id="129">5.95525e-12</wgt>
  <wgt id="130">6.00257e-12</wgt>
  <wgt id="131">5.94325e-12</wgt>
  <wgt id="132">5.84869e-12</wgt>
  <wgt id="133">6.11651e-12</wgt>
  <wgt id="134">5.92674e-12</wgt>
  <wgt id="135">6.00938e-12</wgt>
  <wgt id="136">6.02478e-12</wgt>
  <wgt id="137">5.91106e-12</wgt>
  <wgt id="138">6.13174e-12</wgt>
  <wgt id="139">5.81617e-12</wgt>
  <wgt id="140">5.92986e-12</wgt>
  <wgt id="141">6.00749e-12</wgt>
  <wgt id="142">5.97413e-12</wgt>
  <wgt id="143">5.97742e-12</wgt>
  <wgt id="144">5.92123e-12</wgt>
  <wgt id="145">6.01429e-12</wgt>
  <wgt id="146">5.98729e-12</wgt>
  <wgt id="147">5.96443e-12</wgt>
  <wgt id="148">5.98481e-12</wgt>
  <wgt id="149">5.97266e-12</wgt>
  <wgt id="150">6.01516e-12</wgt>
  <wgt id="151">5.95386e-12</wgt>
  <wgt id="152">5.97401e-12</wgt>
  <wgt id="153">5.97326e-12</wgt>
  <wgt id="154">6.03978e-12</wgt>
  <wgt id="155">5.8977e-12</wgt>
  <wgt id="156">5.98951e-12</wgt>
  <wgt id="157">5.92606e-12</wgt>
  <wgt id="158">7.21214e-12</wgt>
  <wgt id="159">7.24167e-12</wgt>
  <wgt id="160">7.18845e-12</wgt>
  <wgt id="161">7.20194e-12</wgt>
  <wgt id="162">7.22362e-12</wgt>
  <wgt id="163">7.20778e-12</wgt>
  <wgt id="164">7.21867e-12</wgt>
  <wgt id="165">7.21547e-12</wgt>
  <wgt id="166">7.20981e-12</wgt>
  <wgt id="167">7.20672e-12</wgt>
  <wgt id="168">7.21983e-12</wgt>
  <wgt id="169">7.17993e-12</wgt>
  <wgt id="170">7.23229e-12</wgt>
  <wgt id="171">7.20821e-12</wgt>
  <wgt id="172">7.2177e-12</wgt>
  <wgt id="173">7.21679e-12</wgt>
  <wgt id="174">7.21052e-12</wgt>
  <wgt id="175">7.06436e-12</wgt>
  <wgt id="176">7.40108e-12</wgt>
  <wgt id="177">7.23479e-12</wgt>
  <wgt id="178">7.19034e-12</wgt>
  <wgt id="179">7.40765e-12</wgt>
  <wgt id="180">6.89476e-12</wgt>
  <wgt id="181">7.07062e-12</wgt>
  <wgt id="182">7.30448e-12</wgt>
  <wgt id="183">7.12458e-12</wgt>
  <wgt id="184">7.25546e-12</wgt>
  <wgt id="185">7.16838e-12</wgt>
  <wgt id="186">7.25647e-12</wgt>
  <wgt id="187">7.15935e-12</wgt>
  <wgt id="188">7.30577e-12</wgt>
  <wgt id="189">7.1832e-12</wgt>
  <wgt id="190">7.22381e-12</wgt>
  <wgt id="191">7.22549e-12</wgt>
  <wgt id="192">7.2041e-12</wgt>
  <wgt id="193">7.27434e-12</wgt>
  <wgt id="194">7.18091e-12</wgt>
  <wgt id="195">7.19917e-12</wgt>
  <wgt id="196">7.31535e-12</wgt>
  <wgt id="197">7.23664e-12</wgt>
  <wgt id="198">7.20614e-12</wgt>
  <wgt id="199">7.21214e-12</wgt>
  <wgt id="200">7.25861e-12</wgt>
  <wgt id="201">7.2406e-12</wgt>
  <wgt id="202">7.22385e-12</wgt>
  <wgt id="203">7.19681e-12</wgt>
  <wgt id="204">7.18501e-12</wgt>
  <wgt id="205">7.17457e-12</wgt>
  <wgt id="206">7.17655e-12</wgt>
  <wgt id="207">7.21558e-12</wgt>
  <wgt id="208">7.13808e-12</wgt>
  <wgt id="209">7.18334e-12</wgt>
  <wgt id="210">7.1721e-12</wgt>
  <wgt id="211">7.17667e-12</wgt>
  <wgt id="212">7.17641e-12</wgt>
  <wgt id="213">7.17623e-12</wgt>
  <wgt id="214">7.17771e-12</wgt>
  <wgt id="215">7.17799e-12</wgt>
  <wgt id="216">7.17542e-12</wgt>
  <wgt id="217">7.19048e-12</wgt>
  <wgt id="218">7.16596e-12</wgt>
  <wgt id="219">7.15794e-12</wgt>
  <wgt id="220">7.18769e-12</wgt>
  <wgt id="221">7.17375e-12</wgt>
  <wgt id="222">7.18304e-12</wgt>
  <wgt id="223">6.89719e-12</wgt>
  <wgt id="224">7.42736e-12</wgt>
  <wgt id="225">7.1203e-12</wgt>
  <wgt id="226">7.24632e-12</wgt>
  <wgt id="227">7.12714e-12</wgt>
  <wgt id="228">7.19819e-12</wgt>
  <wgt id="229">7.10142e-12</wgt>
  <wgt id="230">7.21346e-12</wgt>
  <wgt id="231">7.32588e-12</wgt>
  <wgt id="232">7.05151e-12</wgt>
  <wgt id="233">7.15088e-12</wgt>
  <wgt id="234">7.21046e-12</wgt>
  <wgt id="235">7.16393e-12</wgt>
  <wgt id="236">7.22244e-12</wgt>
  <wgt id="237">7.14681e-12</wgt>
  <wgt id="238">7.18809e-12</wgt>
  <wgt id="239">7.15945e-12</wgt>
  <wgt id="240">7.20986e-12</wgt>
  <wgt id="241">7.12941e-12</wgt>
  <wgt id="242">7.23168e-12</wgt>
  <wgt id="243">7.1642e-12</wgt>
  <wgt id="244">7.25199e-12</wgt>
  <wgt id="245">7.16747e-12</wgt>
  <wgt id="246">7.23764e-12</wgt>
  <wgt id="247">7.17655e-12</wgt>
  <wgt id="248">7.22539e-12</wgt>
  <wgt id="249">7.20613e-12</wgt>
  <wgt id="250">7.18881e-12</wgt>
  <wgt id="251">7.16166e-12</wgt>
  <wgt id="252">7.14928e-12</wgt>
  <wgt id="253">7.13961e-12</wgt>
  <wgt id="254">7.00314e-12</wgt>
  <wgt id="255">7.00944e-12</wgt>
  <wgt id="256">6.99655e-12</wgt>
  <wgt id="257">7.00979e-12</wgt>
  <wgt id="258">6.9983e-12</wgt>
  <wgt id="259">7.04775e-12</wgt>
  <wgt id="260">6.95969e-12</wgt>
  <wgt id="261">7.00004e-12</wgt>
  <wgt id="262">7.00737e-12</wgt>
  <wgt id="263">7.00282e-12</wgt>
  <wgt id="264">7.00312e-12</wgt>
  <wgt id="265">7.00005e-12</wgt>
  <wgt id="266">7.00965e-12</wgt>
  <wgt id="267">7.00424e-12</wgt>
  <wgt id="268">7.00138e-12</wgt>
  <wgt id="269">7.01428e-12</wgt>
  <wgt id="270">6.99578e-12</wgt>
  <wgt id="271">6.99169e-12</wgt>
  <wgt id="272">7.01599e-12</wgt>
  <wgt id="273">6.98803e-12</wgt>
  <wgt id="274">7.01447e-12</wgt>
  <wgt id="275">6.98626e-12</wgt>
  <wgt id="276">7.02052e-12</wgt>
  <wgt id="277">6.9722e-12</wgt>
  <wgt id="278">7.03237e-12</wgt>
  <wgt id="279">6.91465e-12</wgt>
  <wgt id="280">7.1128e-12</wgt>
  <wgt id="281">6.98568e-12</wgt>
  <wgt id="282">7.00001e-12</wgt>
  <wgt id="283">6.87013e-12</wgt>
  <wgt id="284">7.16412e-12</wgt>
  <wgt id="285">6.77073e-12</wgt>
  <wgt id="286">7.18957e-12</wgt>
  <wgt id="287">7.01897e-12</wgt>
  <wgt id="288">6.9828e-12</wgt>
  <wgt id="289">7.036e-12</wgt>
  <wgt id="290">6.92091e-12</wgt>
  <wgt id="291">6.99508e-12</wgt>
  <wgt id="292">7.00553e-12</wgt>
  <wgt id="293">6.96706e-12</wgt>
  <wgt id="294">7.03903e-12</wgt>
  <wgt id="295">6.9075e-12</wgt>
  <wgt id="296">7.11835e-12</wgt>
  <wgt id="297">7.02053e-12</wgt>
  <wgt id="298">7.00683e-12</wgt>
  <wgt id="299">6.98901e-12</wgt>
  <wgt id="300">7.04016e-12</wgt>
  <wgt id="301">7.0105e-12</wgt>
  <wgt id="302">7.06022e-12</wgt>
  <wgt id="303">6.99471e-12</wgt>
  <wgt id="304">7.00982e-12</wgt>
  <wgt id="305">7.08092e-12</wgt>
  <wgt id="306">7.08753e-12</wgt>
  <wgt id="307">7.07365e-12</wgt>
  <wgt id="308">7.08826e-12</wgt>
  <wgt id="309">7.07597e-12</wgt>
  <wgt id="310">7.12791e-12</wgt>
  <wgt id="311">7.03717e-12</wgt>
  <wgt id="312">7.07445e-12</wgt>
  <wgt id="313">7.08778e-12</wgt>
  <wgt id="314">7.08055e-12</wgt>
  <wgt id="315">7.08097e-12</wgt>
  <wgt id="316">7.07806e-12</wgt>
  <wgt id="317">7.08686e-12</wgt>
  <wgt id="318">7.08301e-12</wgt>
  <wgt id="319">7.07642e-12</wgt>
  <wgt id="320">7.09164e-12</wgt>
  <wgt id="321">7.07495e-12</wgt>
  <wgt id="322">7.06503e-12</wgt>
  <wgt id="323">7.09947e-12</wgt>
  <wgt id="324">7.06885e-12</wgt>
  <wgt id="325">7.09088e-12</wgt>
  <wgt id="326">7.06638e-12</wgt>
  <wgt id="327">7.0991e-12</wgt>
  <wgt id="328">7.04885e-12</wgt>
  <wgt id="329">7.10039e-12</wgt>
  <wgt id="330">7.23002e-12</wgt>
  <wgt id="331">6.93663e-12</wgt>
  <wgt id="332">7.06666e-12</wgt>
  <wgt id="333">7.07795e-12</wgt>
  <wgt id="334">6.9745e-12</wgt>
  <wgt id="335">7.21101e-12</wgt>
  <wgt id="336">6.90961e-12</wgt>
  <wgt id="337">7.28319e-12</wgt>
  <wgt id="338">7.13653e-12</wgt>
  <wgt id="339">7.02851e-12</wgt>
  <wgt id="340">7.11317e-12</wgt>
  <wgt id="341">6.99302e-12</wgt>
  <wgt id="342">7.0772e-12</wgt>
  <wgt id="343">7.0765e-12</wgt>
  <wgt id="344">7.04668e-12</wgt>
  <wgt id="345">7.12035e-12</wgt>
  <wgt id="346">6.98115e-12</wgt>
  <wgt id="347">7.19459e-12</wgt>
  <wgt id="348">7.10489e-12</wgt>
  <wgt id="349">7.0785e-12</wgt>
  <wgt id="350">7.06191e-12</wgt>
  <wgt id="351">7.12815e-12</wgt>
  <wgt id="352">7.08838e-12</wgt>
  <wgt id="353">7.14877e-12</wgt>
  <wgt id="354">7.06804e-12</wgt>
  <wgt id="355">7.09323e-12</wgt>
  <wgt id="356">7.00314e-12</wgt>
  <wgt id="357">7.12568e-12</wgt>
  <wgt id="358">7.08092e-12</wgt>
  <wgt id="359">7.04343e-12</wgt>
  <wgt id="360">6.99062e-12</wgt>
  <wgt id="361">7.01074e-12</wgt>
  <wgt id="362">7.0889e-12</wgt>
  <wgt id="363">7.07824e-12</wgt>
  <wgt id="364">7.06632e-12</wgt>
  <wgt id="365">7.05112e-12</wgt>
  <wgt id="366">7.03207e-12</wgt>
  <wgt id="367">6.99029e-12</wgt>
  <wgt id="368">6.96806e-12</wgt>
  <wgt id="369">6.94384e-12</wgt>
  <wgt id="370">7.01074e-12</wgt>
  <wgt id="371">7.03891e-12</wgt>
  <wgt id="372">7.02363e-12</wgt>
  <wgt id="373">6.9999e-12</wgt>
  <wgt id="374">6.99245e-12</wgt>
  <wgt id="375">7.20371e-12</wgt>
  <wgt id="376">7.2037e-12</wgt>
  <wgt id="377">7.20368e-12</wgt>
  <wgt id="378">7.22826e-12</wgt>
  <wgt id="379">7.17946e-12</wgt>
  <wgt id="380">7.22479e-12</wgt>
  <wgt id="381">7.19507e-12</wgt>
  <wgt id="382">7.22601e-12</wgt>
  <wgt id="383">7.18158e-12</wgt>
  <wgt id="384">7.20758e-12</wgt>
  <wgt id="385">7.19998e-12</wgt>
  <wgt id="386">7.21945e-12</wgt>
  <wgt id="387">7.19705e-12</wgt>
  <wgt id="388">7.19944e-12</wgt>
  <wgt id="389">7.20892e-12</wgt>
  <wgt id="390">7.2165e-12</wgt>
  <wgt id="391">7.18991e-12</wgt>
  <wgt id="392">7.18003e-12</wgt>
  <wgt id="393">7.21715e-12</wgt>
  <wgt id="394">7.21275e-12</wgt>
  <wgt id="395">7.1913e-12</wgt>
  <wgt id="396">7.19695e-12</wgt>
  <wgt id="397">7.2083e-12</wgt>
  <wgt id="398">7.19508e-12</wgt>
  <wgt id="399">7.21195e-12</wgt>
  <wgt id="400">7.19963e-12</wgt>
  <wgt id="401">7.21179e-12</wgt>
  <wgt id="402">7.16967e-12</wgt>
  <wgt id="403">7.21144e-12</wgt>
  <wgt id="404">7.30556e-12</wgt>
  <wgt id="405">6.95409e-12</wgt>
  <wgt id="406">7.12687e-12</wgt>
  <wgt id="407">7.36555e-12</wgt>
  <wgt id="408">7.24198e-12</wgt>
  <wgt id="409">7.12731e-12</wgt>
  <wgt id="410">7.0751e-12</wgt>
  <wgt id="411">7.25931e-12</wgt>
  <wgt id="412">7.19537e-12</wgt>
  <wgt id="413">7.21054e-12</wgt>
  <wgt id="414">7.15184e-12</wgt>
  <wgt id="415">7.2437e-12</wgt>
  <wgt id="416">7.29955e-12</wgt>
  <wgt id="417">7.06996e-12</wgt>
  <wgt id="418">7.21034e-12</wgt>
  <wgt id="419">7.16723e-12</wgt>
  <wgt id="420">7.19422e-12</wgt>
  <wgt id="421">7.22747e-12</wgt>
  <wgt id="422">7.23213e-12</wgt>
  <wgt id="423">7.19312e-12</wgt>
  <wgt id="424">7.23699e-12</wgt>
  <wgt id="425">7.19171e-12</wgt>
  <wgt id="426">7.20371e-12</wgt>
  <wgt id="427">7.1979e-12</wgt>
  <wgt id="428">7.25001e-12</wgt>
  <wgt id="429">7.22396e-12</wgt>
  <wgt id="430">7.35821e-12</wgt>
  <wgt id="431">7.33278e-12</wgt>
  <wgt id="432">7.30667e-12</wgt>
  <wgt id="433">7.28144e-12</wgt>
  <wgt id="434">7.2529e-12</wgt>
  <wgt id="435">7.18701e-12</wgt>
  <wgt id="436">7.15109e-12</wgt>
  <wgt id="437">7.11864e-12</wgt>
  <wgt id="438">7.22396e-12</wgt>
  <wgt id="439">7.24655e-12</wgt>
  <wgt id="440">7.23391e-12</wgt>
  <wgt id="441">7.21554e-12</wgt>
  <wgt id="442">7.20848e-12</wgt>
  <wgt id="443">7.2193e-12</wgt>
  <wgt id="444">7.23474e-12</wgt>
  <wgt id="445">7.23694e-12</wgt>
  <wgt id="446">7.17974e-12</wgt>
  <wgt id="447">7.21732e-12</wgt>
  <wgt id="448">7.10223e-12</wgt>
  <wgt id="449">7.28881e-12</wgt>
  <wgt id="450">7.21885e-12</wgt>
  <wgt id="451">7.21369e-12</wgt>
  <wgt id="452">7.30111e-12</wgt>
  <wgt id="453">7.23223e-12</wgt>
  <wgt id="454">7.00078e-12</wgt>
  <wgt id="455">7.238e-12</wgt>
  <wgt id="456">7.08912e-12</wgt>
  <wgt id="457">7.22324e-12</wgt>
  <wgt id="458">7.28962e-12</wgt>
  <wgt id="459">7.25634e-12</wgt>
  <wgt id="460">7.27726e-12</wgt>
  <wgt id="461">7.16298e-12</wgt>
  <wgt id="462">7.21373e-12</wgt>
  <wgt id="463">7.17245e-12</wgt>
  <wgt id="464">7.21434e-12</wgt>
  <wgt id="465">7.24377e-12</wgt>
  <wgt id="466">7.17871e-12</wgt>
  <wgt id="467">7.19623e-12</wgt>
  <wgt id="468">7.21368e-12</wgt>
  <wgt id="469">7.22571e-12</wgt>
  <wgt id="470">7.17316e-12</wgt>
  <wgt id="471">7.19716e-12</wgt>
  <wgt id="472">7.22864e-12</wgt>
  <wgt id="473">7.16183e-12</wgt>
  <wgt id="474">5.79e-12</wgt>
  <wgt id="475">6.02423e-12</wgt>
  <wgt id="476">5.7209e-12</wgt>
  <wgt id="477">5.78187e-12</wgt>
  <wgt id="478">5.85093e-12</wgt>
  <wgt id="479">5.82231e-12</wgt>
  <wgt id="480">5.91092e-12</wgt>
  <wgt id="481">5.65666e-12</wgt>
  <wgt id="482">5.62417e-12</wgt>
  <wgt id="483">5.66989e-12</wgt>
  <wgt id="484">6.09163e-12</wgt>
  <wgt id="485">5.77649e-12</wgt>
  <wgt id="486">5.83602e-12</wgt>
  <wgt id="487">5.73439e-12</wgt>
  <wgt id="488">5.85348e-12</wgt>
  <wgt id="489">5.529e-12</wgt>
  <wgt id="490">5.6783e-12</wgt>
  <wgt id="491">5.79081e-12</wgt>
  <wgt id="492">5.68951e-12</wgt>
  <wgt id="493">5.63979e-12</wgt>
  <wgt id="494">5.6352e-12</wgt>
  <wgt id="495">5.745e-12</wgt>
  <wgt id="496">5.59437e-12</wgt>
  <wgt id="497">5.65394e-12</wgt>
  <wgt id="498">5.85929e-12</wgt>
  <wgt id="499">5.69446e-12</wgt>
  <wgt id="500">5.65509e-12</wgt>
  <wgt id="501">5.8848e-12</wgt>
  <wgt id="502">5.68746e-12</wgt>
  <wgt id="503">5.77507e-12</wgt>
  <wgt id="504">5.73896e-12</wgt>
  <wgt id="505">5.88585e-12</wgt>
  <wgt id="506">5.73191e-12</wgt>
  <wgt id="507">5.74303e-12</wgt>
  <wgt id="508">5.97185e-12</wgt>
  <wgt id="509">5.73192e-12</wgt>
  <wgt id="510">5.80764e-12</wgt>
  <wgt id="511">5.6045e-12</wgt>
  <wgt id="512">5.82954e-12</wgt>
  <wgt id="513">5.78767e-12</wgt>
  <wgt id="514">5.79627e-12</wgt>
  <wgt id="515">5.77444e-12</wgt>
  <wgt id="516">5.97999e-12</wgt>
  <wgt id="517">5.93347e-12</wgt>
  <wgt id="518">5.98649e-12</wgt>
  <wgt id="519">5.76547e-12</wgt>
  <wgt id="520">5.7918e-12</wgt>
  <wgt id="521">5.97107e-12</wgt>
  <wgt id="522">5.98409e-12</wgt>
  <wgt id="523">5.72167e-12</wgt>
  <wgt id="524">5.82004e-12</wgt>
  <wgt id="525">5.81493e-12</wgt>
  <wgt id="526">5.73036e-12</wgt>
  <wgt id="527">5.88707e-12</wgt>
  <wgt id="528">5.70862e-12</wgt>
  <wgt id="529">5.83287e-12</wgt>
  <wgt id="530">5.81172e-12</wgt>
  <wgt id="531">5.67878e-12</wgt>
  <wgt id="532">5.99805e-12</wgt>
  <wgt id="533">5.54412e-12</wgt>
  <wgt id="534">5.73429e-12</wgt>
  <wgt id="535">5.78007e-12</wgt>
  <wgt id="536">5.83379e-12</wgt>
  <wgt id="537">5.79508e-12</wgt>
  <wgt id="538">5.95074e-12</wgt>
  <wgt id="539">5.64802e-12</wgt>
  <wgt id="540">5.8901e-12</wgt>
  <wgt id="541">5.81248e-12</wgt>
  <wgt id="542">5.64144e-12</wgt>
  <wgt id="543">5.80576e-12</wgt>
  <wgt id="544">6.01143e-12</wgt>
  <wgt id="545">5.68208e-12</wgt>
  <wgt id="546">5.65492e-12</wgt>
  <wgt id="547">5.6951e-12</wgt>
  <wgt id="548">5.57388e-12</wgt>
  <wgt id="549">5.76665e-12</wgt>
  <wgt id="550">5.87608e-12</wgt>
  <wgt id="551">5.89882e-12</wgt>
  <wgt id="552">5.64621e-12</wgt>
  <wgt id="553">5.76017e-12</wgt>
  <wgt id="554">6.17298e-12</wgt>
  <wgt id="555">5.97566e-12</wgt>
  <wgt id="556">5.6783e-12</wgt>
  <wgt id="557">5.88301e-12</wgt>
  <wgt id="558">5.66105e-12</wgt>
  <wgt id="559">5.67075e-12</wgt>
  <wgt id="560">6.16728e-12</wgt>
  <wgt id="561">5.65292e-12</wgt>
  <wgt id="562">5.88974e-12</wgt>
  <wgt id="563">5.82208e-12</wgt>
  <wgt id="564">5.89523e-12</wgt>
  <wgt id="565">5.76635e-12</wgt>
  <wgt id="566">5.77722e-12</wgt>
  <wgt id="567">5.72027e-12</wgt>
  <wgt id="568">5.86309e-12</wgt>
  <wgt id="569">5.76923e-12</wgt>
  <wgt id="570">5.73829e-12</wgt>
  <wgt id="571">6.27294e-12</wgt>
  <wgt id="572">5.7532e-12</wgt>
  <wgt id="573">5.60185e-12</wgt>
  <wgt id="574">5.65031e-12</wgt>
  <wgt id="575">6.1883e-12</wgt>
  <wgt id="576">6.09328e-12</wgt>
  <wgt id="577">6.54386e-12</wgt>
  <wgt id="578">6.24318e-12</wgt>
  <wgt id="579">6.19939e-12</wgt>
  <wgt id="580">6.28897e-12</wgt>
  <wgt id="581">6.51147e-12</wgt>
  <wgt id="582">6.10489e-12</wgt>
  <wgt id="583">6.21677e-12</wgt>
  <wgt id="584">6.15245e-12</wgt>
  <wgt id="585">6.13076e-12</wgt>
  <wgt id="586">6.02084e-12</wgt>
  <wgt id="587">6.23343e-12</wgt>
  <wgt id="588">6.16861e-12</wgt>
  <wgt id="589">6.18555e-12</wgt>
  <wgt id="590">6.17786e-12</wgt>
  <wgt id="591">6.45171e-12</wgt>
  <wgt id="592">5.98122e-12</wgt>
  <wgt id="593">6.12631e-12</wgt>
  <wgt id="594">6.57105e-12</wgt>
  <wgt id="595">6.15215e-12</wgt>
  <wgt id="596">6.44617e-12</wgt>
  <wgt id="597">5.96352e-12</wgt>
  <wgt id="598">6.30007e-12</wgt>
  <wgt id="599">6.38567e-12</wgt>
  <wgt id="600">6.20319e-12</wgt>
  <wgt id="601">6.02268e-12</wgt>
  <wgt id="602">6.08164e-12</wgt>
  <wgt id="603">6.15125e-12</wgt>
  <wgt id="604">6.24476e-12</wgt>
  <wgt id="605">6.40828e-12</wgt>
  <wgt id="606">6.12656e-12</wgt>
  <wgt id="607">6.14615e-12</wgt>
  <wgt id="608">6.08146e-12</wgt>
  <wgt id="609">5.88457e-12</wgt>
  <wgt id="610">5.94687e-12</wgt>
  <wgt id="611">6.26392e-12</wgt>
  <wgt id="612">6.61864e-12</wgt>
  <wgt id="613">6.2571e-12</wgt>
  <wgt id="614">6.19442e-12</wgt>
  <wgt id="615">6.13437e-12</wgt>
  <wgt id="616">6.63109e-12</wgt>
  <wgt id="617">6.26509e-12</wgt>
  <wgt id="618">6.19438e-12</wgt>
  <wgt id="619">6.25967e-12</wgt>
  <wgt id="620">6.2221e-12</wgt>
  <wgt id="621">6.22055e-12</wgt>
  <wgt id="622">6.23343e-12</wgt>
  <wgt id="623">6.29241e-12</wgt>
  <wgt id="624">6.12707e-12</wgt>
  <wgt id="625">6.10946e-12</wgt>
  <wgt id="626">6.03708e-12</wgt>
  <wgt id="627">6.03698e-12</wgt>
  <wgt id="628">6.21071e-12</wgt>
  <wgt id="629">6.16919e-12</wgt>
  <wgt id="630">6.05458e-12</wgt>
  <wgt id="631">6.13422e-12</wgt>
  <wgt id="632">6.07908e-12</wgt>
  <wgt id="633">6.1353e-12</wgt>
  <wgt id="634">6.24099e-12</wgt>
  <wgt id="635">6.21828e-12</wgt>
  <wgt id="636">6.27198e-12</wgt>
  <wgt id="637">6.2398e-12</wgt>
  <wgt id="638">6.09e-12</wgt>
  <wgt id="639">6.17919e-12</wgt>
  <wgt id="640">6.23745e-12</wgt>
  <wgt id="641">6.21098e-12</wgt>
  <wgt id="642">6.1332e-12</wgt>
  <wgt id="643">6.20074e-12</wgt>
  <wgt id="644">5.95306e-12</wgt>
  <wgt id="645">6.15686e-12</wgt>
  <wgt id="646">6.22769e-12</wgt>
  <wgt id="647">6.0731e-12</wgt>
  <wgt id="648">6.24452e-12</wgt>
  <wgt id="649">6.2246e-12</wgt>
  <wgt id="650">6.07499e-12</wgt>
  <wgt id="651">6.43661e-12</wgt>
  <wgt id="652">6.21086e-12</wgt>
  <wgt id="653">6.03688e-12</wgt>
  <wgt id="654">6.09373e-12</wgt>
  <wgt id="655">6.05818e-12</wgt>
  <wgt id="656">6.07177e-12</wgt>
  <wgt id="657">6.29832e-12</wgt>
  <wgt id="658">6.30805e-12</wgt>
  <wgt id="659">6.01331e-12</wgt>
  <wgt id="660">6.2671e-12</wgt>
  <wgt id="661">6.16575e-12</wgt>
  <wgt id="662">6.12453e-12</wgt>
  <wgt id="663">6.17295e-12</wgt>
  <wgt id="664">6.13012e-12</wgt>
  <wgt id="665">6.19094e-12</wgt>
  <wgt id="666">6.24291e-12</wgt>
  <wgt id="667">6.39689e-12</wgt>
  <wgt id="668">6.11153e-12</wgt>
  <wgt id="669">6.33281e-12</wgt>
  <wgt id="670">6.19042e-12</wgt>
  <wgt id="671">6.05316e-12</wgt>
  <wgt id="672">5.97264e-12</wgt>
  <wgt id="673">6.14664e-12</wgt>
  <wgt id="674">6.03413e-12</wgt>
  <wgt id="675">6.0308e-12</wgt>
  <wgt id="676">7.34293e-12</wgt>
  <wgt id="677">7.51548e-12</wgt>
  <wgt id="678">7.60786e-12</wgt>
  <wgt id="679">7.37275e-12</wgt>
  <wgt id="680">7.00991e-12</wgt>
  <wgt id="681">7.6099e-12</wgt>
  <wgt id="682">7.2805e-12</wgt>
  <wgt id="683">7.33169e-12</wgt>
  <wgt id="684">7.53531e-12</wgt>
  <wgt id="685">7.16063e-12</wgt>
  <wgt id="686">7.5996e-12</wgt>
  <wgt id="687">7.3796e-12</wgt>
  <wgt id="688">7.26676e-12</wgt>
  <wgt id="689">7.41187e-12</wgt>
  <wgt id="690">7.67588e-12</wgt>
  <wgt id="691">7.55846e-12</wgt>
  <wgt id="692">7.45225e-12</wgt>
  <wgt id="693">7.97699e-12</wgt>
  <wgt id="694">7.678e-12</wgt>
  <wgt id="695">7.14493e-12</wgt>
  <wgt id="696">7.34044e-12</wgt>
  <wgt id="697">7.09003e-12</wgt>
  <wgt id="698">7.19728e-12</wgt>
  <wgt id="699">7.08532e-12</wgt>
  <wgt id="700">6.99108e-12</wgt>
  <wgt id="701">7.29089e-12</wgt>
  <wgt id="702">7.08846e-12</wgt>
  <wgt id="703">7.89462e-12</wgt>
  <wgt id="704">7.58638e-12</wgt>
  <wgt id="705">7.62134e-12</wgt>
  <wgt id="706">7.13301e-12</wgt>
  <wgt id="707">7.13338e-12</wgt>
  <wgt id="708">7.22256e-12</wgt>
  <wgt id="709">7.20022e-12</wgt>
  <wgt id="710">6.86283e-12</wgt>
  <wgt id="711">7.38874e-12</wgt>
  <wgt id="712">7.24648e-12</wgt>
  <wgt id="713">7.55631e-12</wgt>
  <wgt id="714">7.38456e-12</wgt>
  <wgt id="715">7.286e-12</wgt>
  <wgt id="716">7.13609e-12</wgt>
  <wgt id="717">7.18039e-12</wgt>
  <wgt id="718">7.13586e-12</wgt>
  <wgt id="719">6.94899e-12</wgt>
  <wgt id="720">7.24083e-12</wgt>
  <wgt id="721">7.35137e-12</wgt>
  <wgt id="722">7.04571e-12</wgt>
  <wgt id="723">7.53129e-12</wgt>
  <wgt id="724">7.48357e-12</wgt>
  <wgt id="725">7.6455e-12</wgt>
  <wgt id="726">7.36964e-12</wgt>
  <wgt id="727">7.2254e-12</wgt>
  <wgt id="728">7.40959e-12</wgt>
  <wgt id="729">7.0565e-12</wgt>
  <wgt id="730">7.35687e-12</wgt>
  <wgt id="731">7.25659e-12</wgt>
  <wgt id="732">7.76836e-12</wgt>
  <wgt id="733">7.23484e-12</wgt>
  <wgt id="734">7.41653e-12</wgt>
  <wgt id="735">7.45105e-12</wgt>
  <wgt id="736">7.30851e-12</wgt>
  <wgt id="737">7.38842e-12</wgt>
  <wgt id="738">7.38275e-12</wgt>
  <wgt id="739">7.10936e-12</wgt>
  <wgt id="740">7.8655e-12</wgt>
  <wgt id="741">6.72194e-12</wgt>
  <wgt id="742">7.28168e-12</wgt>
  <wgt id="743">7.44596e-12</wgt>
  <wgt id="744">7.20077e-12</wgt>
  <wgt id="745">7.36026e-12</wgt>
  <wgt id="746">7.37667e-12</wgt>
  <wgt id="747">7.05727e-12</wgt>
  <wgt id="748">7.23564e-12</wgt>
  <wgt id="749">7.64572e-12</wgt>
  <wgt id="750">7.25211e-12</wgt>
  <wgt id="751">7.53491e-12</wgt>
  <wgt id="752">7.00983e-12</wgt>
  <wgt id="753">7.04211e-12</wgt>
  <wgt id="754">7.24539e-12</wgt>
  <wgt id="755">7.38333e-12</wgt>
  <wgt id="756">7.27675e-12</wgt>
  <wgt id="757">7.05407e-12</wgt>
  <wgt id="758">7.37283e-12</wgt>
  <wgt id="759">7.30807e-12</wgt>
  <wgt id="760">7.47031e-12</wgt>
  <wgt id="761">7.6614e-12</wgt>
  <wgt id="762">7.53746e-12</wgt>
  <wgt id="763">7.44606e-12</wgt>
  <wgt id="764">7.45523e-12</wgt>
  <wgt id="765">7.30421e-12</wgt>
  <wgt id="766">7.27726e-12</wgt>
  <wgt id="767">7.37777e-12</wgt>
  <wgt id="768">7.13092e-12</wgt>
  <wgt id="769">7.60926e-12</wgt>
  <wgt id="770">7.35728e-12</wgt>
  <wgt id="771">8.06562e-12</wgt>
  <wgt id="772">6.99616e-12</wgt>
  <wgt id="773">7.37347e-12</wgt>
  <wgt id="774">6.91841e-12</wgt>
  <wgt id="775">7.43347e-12</wgt>
  <wgt id="776">7.7625e-12</wgt>
  <wgt id="777">7.43322e-12</wgt>
  <wgt id="778">5.85903e-12</wgt>
  <wgt id="779">5.33451e-12</wgt>
  <wgt id="780">5.07552e-12</wgt>
  <wgt id="781">5.93254e-12</wgt>
  <wgt id="782">6.14658e-12</wgt>
  <wgt id="783">5.49304e-12</wgt>
  <wgt id="784">5.49877e-12</wgt>
  <wgt id="785">6.63876e-12</wgt>
  <wgt id="786">4.98255e-12</wgt>
  <wgt id="787">6.12559e-12</wgt>
  <wgt id="788">4.72576e-12</wgt>
  <wgt id="789">5.42192e-12</wgt>
  <wgt id="790">5.02664e-12</wgt>
  <wgt id="791">5.59047e-12</wgt>
  <wgt id="792">7.31562e-12</wgt>
  <wgt id="793">5.64623e-12</wgt>
  <wgt id="794">5.21858e-12</wgt>
  <wgt id="795">6.05391e-12</wgt>
  <wgt id="796">7.13267e-12</wgt>
  <wgt id="797">6.27697e-12</wgt>
  <wgt id="798">5.56816e-12</wgt>
  <wgt id="799">6.164e-12</wgt>
  <wgt id="800">5.28714e-12</wgt>
  <wgt id="801">5.71123e-12</wgt>
  <wgt id="802">5.33616e-12</wgt>
  <wgt id="803">7.52572e-12</wgt>
  <wgt id="804">6.16662e-12</wgt>
  <wgt id="805">6.07565e-12</wgt>
  <wgt id="806">6.6101e-12</wgt>
  <wgt id="807">5.81231e-12</wgt>
  <wgt id="808">5.72095e-12</wgt>
  <wgt id="809">5.64186e-12</wgt>
  <wgt id="810">6.4926e-12</wgt>
  <wgt id="811">6.06046e-12</wgt>
  <wgt id="812">5.27397e-12</wgt>
  <wgt id="813">5.11956e-12</wgt>
  <wgt id="814">4.83857e-12</wgt>
  <wgt id="815">5.36039e-12</wgt>
  <wgt id="816">5.20507e-12</wgt>
  <wgt id="817">6.076e-12</wgt>
  <wgt id="818">5.59499e-12</wgt>
  <wgt id="819">5.44561e-12</wgt>
  <wgt id="820">5.86194e-12</wgt>
  <wgt id="821">6.06522e-12</wgt>
  <wgt id="822">5.67739e-12</wgt>
  <wgt id="823">6.10963e-12</wgt>
  <wgt id="824">7.145e-12</wgt>
  <wgt id="825">5.07065e-12</wgt>
  <wgt id="826">5.76942e-12</wgt>
  <wgt id="827">4.73598e-12</wgt>
  <wgt id="828">7.2927e-12</wgt>
  <wgt id="829">5.77554e-12</wgt>
  <wgt id="830">4.93886e-12</wgt>
  <wgt id="831">5.97866e-12</wgt>
  <wgt id="832">8.32e-12</wgt>
  <wgt id="833">5.80529e-12</wgt>
  <wgt id="834">8.01418e-12</wgt>
  <wgt id="835">5.21757e-12</wgt>
  <wgt id="836">5.9403e-12</wgt>
  <wgt id="837">6.03949e-12</wgt>
  <wgt id="838">5.57311e-12</wgt>
  <wgt id="839">5.99706e-12</wgt>
  <wgt id="840">5.82662e-12</wgt>
  <wgt id="841">6.29954e-12</wgt>
  <wgt id="842">5.77562e-12</wgt>
  <wgt id="843">5.62171e-12</wgt>
  <wgt id="844">5.8134e-12</wgt>
  <wgt id="845">7.36829e-12</wgt>
  <wgt id="846">5.7572e-12</wgt>
  <wgt id="847">5.60155e-12</wgt>
  <wgt id="848">5.6201e-12</wgt>
  <wgt id="849">5.88625e-12</wgt>
  <wgt id="850">6.58437e-12</wgt>
  <wgt id="851">6.14652e-12</wgt>
  <wgt id="852">5.36766e-12</wgt>
  <wgt id="853">6.04757e-12</wgt>
  <wgt id="854">6.53573e-12</wgt>
  <wgt id="855">5.90056e-12</wgt>
  <wgt id="856">4.98589e-12</wgt>
  <wgt id="857">5.94367e-12</wgt>
  <wgt id="858">5.64522e-12</wgt>
  <wgt id="859">5.66816e-12</wgt>
  <wgt id="860">5.78907e-12</wgt>
  <wgt id="861">5.75243e-12</wgt>
  <wgt id="862">5.77217e-12</wgt>
  <wgt id="863">5.84799e-12</wgt>
  <wgt id="864">5.87121e-12</wgt>
  <wgt id="865">6.96021e-12</wgt>
  <wgt id="866">7.78252e-12</wgt>
  <wgt id="867">5.60269e-12</wgt>
  <wgt id="868">5.478e-12</wgt>
  <wgt id="869">5.15902e-12</wgt>
  <wgt id="870">5.39823e-12</wgt>
  <wgt id="871">5.33004e-12</wgt>
  <wgt id="872">6.18122e-12</wgt>
  <wgt id="873">5.39515e-12</wgt>
  <wgt id="874">5.85162e-12</wgt>
  <wgt id="875">5.31671e-12</wgt>
  <wgt id="876">6.10279e-12</wgt>
  <wgt id="877">5.97706e-12</wgt>
  <wgt id="878">5.59543e-12</wgt>
  <wgt id="879">7.34293e-12</wgt>
  <wgt id="880">7.51548e-12</wgt>
  <wgt id="881">7.60786e-12</wgt>
  <wgt id="882">7.37275e-12</wgt>
  <wgt id="883">7.00991e-12</wgt>
  <wgt id="884">7.6099e-12</wgt>
  <wgt id="885">7.2805e-12</wgt>
  <wgt id="886">7.33169e-12</wgt>
  <wgt id="887">7.53531e-12</wgt>
  <wgt id="888">7.16063e-12</wgt>
  <wgt id="889">7.5996e-12</wgt>
  <wgt id="890">7.3796e-12</wgt>
  <wgt id="891">7.26676e-12</wgt>
  <wgt id="892">7.41187e-12</wgt>
  <wgt id="893">7.67588e-12</wgt>
  <wgt id="894">7.55846e-12</wgt>
  <wgt id="895">7.45225e-12</wgt>
  <wgt id="896">7.97699e-12</wgt>
  <wgt id="897">7.678e-12</wgt>
  <wgt id="898">7.14493e-12</wgt>
  <wgt id="899">7.34044e-12</wgt>
  <wgt id="900">7.09003e-12</wgt>
  <wgt id="901">7.19728e-12</wgt>
  <wgt id="902">7.08532e-12</wgt>
  <wgt id="903">6.99108e-12</wgt>
  <wgt id="904">7.29089e-12</wgt>
  <wgt id="905">7.08846e-12</wgt>
  <wgt id="906">7.89462e-12</wgt>
  <wgt id="907">7.58638e-12</wgt>
  <wgt id="908">7.62134e-12</wgt>
  <wgt id="909">7.13301e-12</wgt>
  <wgt id="910">7.13338e-12</wgt>
  <wgt id="911">7.22256e-12</wgt>
  <wgt id="912">7.20022e-12</wgt>
  <wgt id="913">6.86283e-12</wgt>
  <wgt id="914">7.38874e-12</wgt>
  <wgt id="915">7.24648e-12</wgt>
  <wgt id="916">7.55631e-12</wgt>
  <wgt id="917">7.38456e-12</wgt>
  <wgt id="918">7.286e-12</wgt>
  <wgt id="919">7.13609e-12</wgt>
  <wgt id="920">7.18039e-12</wgt>
  <wgt id="921">7.13586e-12</wgt>
  <wgt id="922">6.94899e-12</wgt>
  <wgt id="923">7.24083e-12</wgt>
  <wgt id="924">7.35137e-12</wgt>
  <wgt id="925">7.04571e-12</wgt>
  <wgt id="926">7.53129e-12</wgt>
  <wgt id="927">7.48357e-12</wgt>
  <wgt id="928">7.6455e-12</wgt>
  <wgt id="929">7.36964e-12</wgt>
  <wgt id="930">7.2254e-12</wgt>
  <wgt id="931">7.40959e-12</wgt>
  <wgt id="932">7.0565e-12</wgt>
  <wgt id="933">7.35687e-12</wgt>
  <wgt id="934">7.25659e-12</wgt>
  <wgt id="935">7.76836e-12</wgt>
  <wgt id="936">7.23484e-12</wgt>
  <wgt id="937">7.41653e-12</wgt>
  <wgt id="938">7.45105e-12</wgt>
  <wgt id="939">7.30851e-12</wgt>
  <wgt id="940">7.38842e-12</wgt>
  <wgt id="941">7.38275e-12</wgt>
  <wgt id="942">7.10936e-12</wgt>
  <wgt id="943">7.8655e-12</wgt>
  <wgt id="944">6.72194e-12</wgt>
  <wgt id="945">7.28168e-12</wgt>
  <wgt id="946">7.44596e-12</wgt>
  <wgt id="947">7.20077e-12</wgt>
  <wgt id="948">7.36026e-12</wgt>
  <wgt id="949">7.37667e-12</wgt>
  <wgt id="950">7.05727e-12</wgt>
  <wgt id="951">7.23564e-12</wgt>
  <wgt id="952">7.64572e-12</wgt>
  <wgt id="953">7.25211e-12</wgt>
  <wgt id="954">7.53491e-12</wgt>
  <wgt id="955">7.00983e-12</wgt>
  <wgt id="956">7.04211e-12</wgt>
  <wgt id="957">7.24539e-12</wgt>
  <wgt id="958">7.38333e-12</wgt>
  <wgt id="959">7.27675e-12</wgt>
  <wgt id="960">7.05407e-12</wgt>
  <wgt id="961">7.37283e-12</wgt>
  <wgt id="962">7.30807e-12</wgt>
  <wgt id="963">7.47031e-12</wgt>
  <wgt id="964">7.6614e-12</wgt>
  <wgt id="965">7.53746e-12</wgt>
  <wgt id="966">7.44606e-12</wgt>
  <wgt id="967">7.45523e-12</wgt>
  <wgt id="968">7.30421e-12</wgt>
  <wgt id="969">7.27726e-12</wgt>
  <wgt id="970">7.37777e-12</wgt>
  <wgt id="971">7.13092e-12</wgt>
  <wgt id="972">7.60926e-12</wgt>
  <wgt id="973">7.35728e-12</wgt>
  <wgt id="974">8.06562e-12</wgt>
  <wgt id="975">6.99616e-12</wgt>
  <wgt id="976">7.37347e-12</wgt>
  <wgt id="977">6.91841e-12</wgt>
  <wgt id="978">7.43347e-12</wgt>
  <wgt id="979">7.7625e-12</wgt>
  <wgt id="980">7.38323e-12</wgt>
  <wgt id="981">7.30942e-12</wgt>
  <wgt id="982">7.14917e-12</wgt>
</rwgt>
</event>
<event>
 5   1  0.5790000E-11  0.2198139E+04  0.7818608E-02  0.7749570E-01
       21   -1    0    0  502  501  0.00000000000E+00  0.00000000000E+00  0.81177786150E+03  0.81177786150E+03  0.00000000000E+00 0. -1.
       21   -1    0    0  501  502 -0.00000000000E+00 -0.00000000000E+00 -0.14880353824E+04  0.14880353824E+04  0.00000000000E+00 0.  1.
       39    2    1    2    0    0  0.00000000000E+00  0.00000000000E+00 -0.67625752092E+03  0.22998132439E+04  0.21981393774E+04 0.  0.
       25    1    3    3    0    0  0.91844089442E+03  0.55404586977E+03 -0.12414815357E+03  0.10869858630E+04  0.12500000000E+03 0.  0.
       25    1    3    3    0    0 -0.91844089442E+03 -0.55404586977E+03 -0.55210936736E+03  0.12128273809E+04  0.12500000000E+03 0.  0.
<mgrwt>
<rscale>  0 0.21981394E+04</rscale>
<asrwt>0</asrwt>
<pdfrwt beam="1">  1       21 0.12488890E+00 0.21981394E+04</pdfrwt>
<pdfrwt beam="2">  1       21 0.22892852E+00 0.21981394E+04</pdfrwt>
<totfact> 0.16674855E+01</totfact>
</mgrwt>
<rwgt>
  <wgt id="1">5.79e-12</wgt>
  <wgt id="2">5.04945e-12</wgt>
  <wgt id="3">6.70738e-12</wgt>
  <wgt id="4">5.79e-12</wgt>
  <wgt id="5">5.04945e-12</wgt>
  <wgt id="6">6.70738e-12</wgt>
  <wgt id="7">5.79e-12</wgt>
  <wgt id="8">5.04945e-12</wgt>
  <wgt id="9">6.70738e-12</wgt>
  <wgt id="10">5.98334e-12</wgt>
  <wgt id="11">5.97898e-12</wgt>
  <wgt id="12">5.97329e-12</wgt>
  <wgt id="13">5.96416e-12</wgt>
  <wgt id="14">6.00494e-12</wgt>
  <wgt id="15">5.99312e-12</wgt>
  <wgt id="16">5.97333e-12</wgt>
  <wgt id="17">5.99857e-12</wgt>
  <wgt id="18">5.97409e-12</wgt>
  <wgt id="19">5.99601e-12</wgt>
  <wgt id="20">5.96821e-12</wgt>
  <wgt id="21">5.94479e-12</wgt>
  <wgt id="22">5.95717e-12</wgt>
  <wgt id="23">5.92529e-12</wgt>
  <wgt id="24">5.95273e-12</wgt>
  <wgt id="25">5.96766e-12</wgt>
  <wgt id="26">6.00421e-12</wgt>
  <wgt id="27">5.98097e-12</wgt>
  <wgt id="28">5.95396e-12</wgt>
  <wgt id="29">5.98787e-12</wgt>
  <wgt id="30">5.96009e-12</wgt>
  <wgt id="31">6.00361e-12</wgt>
  <wgt id="32">5.96689e-12</wgt>
  <wgt id="33">5.99567e-12</wgt>
  <wgt id="34">5.96093e-12</wgt>
  <wgt id="35">5.97192e-12</wgt>
  <wgt id="36">6.00115e-12</wgt>
  <wgt id="37">5.96754e-12</wgt>
  <wgt id="38">5.96694e-12</wgt>
  <wgt id="39">6.05213e-12</wgt>
  <wgt id="40">5.99276e-12</wgt>
  <wgt id="41">5.98108e-12</wgt>
  <wgt id="42">5.9957e-12</wgt>
  <wgt id="43">5.98405e-12</wgt>
  <wgt id="44">5.97244e-12</wgt>
  <wgt id="45">5.99377e-12</wgt>
  <wgt id="46">5.98596e-12</wgt>
  <wgt id="47">5.97346e-12</wgt>
  <wgt id="48">5.98389e-12</wgt>
  <wgt id="49">5.98319e-12</wgt>
  <wgt id="50">5.99933e-12</wgt>
  <wgt id="51">5.9954e-12</wgt>
  <wgt id="52">5.98154e-12</wgt>
  <wgt id="53">5.95386e-12</wgt>
  <wgt id="54">5.97695e-12</wgt>
  <wgt id="55">5.98241e-12</wgt>
  <wgt id="56">6.00619e-12</wgt>
  <wgt id="57">5.99922e-12</wgt>
  <wgt id="58">5.95248e-12</wgt>
  <wgt id="59">5.96707e-12</wgt>
  <wgt id="60">5.98777e-12</wgt>
  <wgt id="61">5.96028e-12</wgt>
  <wgt id="62">5.97103e-12</wgt>
  <wgt id="63">5.98076e-12</wgt>
  <wgt id="64">5.98758e-12</wgt>
  <wgt id="65">5.99181e-12</wgt>
  <wgt id="66">5.97617e-12</wgt>
  <wgt id="67">5.96155e-12</wgt>
  <wgt id="68">5.97952e-12</wgt>
  <wgt id="69">5.98443e-12</wgt>
  <wgt id="70">5.98347e-12</wgt>
  <wgt id="71">5.98179e-12</wgt>
  <wgt id="72">5.97177e-12</wgt>
  <wgt id="73">5.98808e-12</wgt>
  <wgt id="74">5.98544e-12</wgt>
  <wgt id="75">5.97646e-12</wgt>
  <wgt id="76">5.99675e-12</wgt>
  <wgt id="77">5.98165e-12</wgt>
  <wgt id="78">5.98337e-12</wgt>
  <wgt id="79">5.99675e-12</wgt>
  <wgt id="80">5.96119e-12</wgt>
  <wgt id="81">5.97852e-12</wgt>
  <wgt id="82">5.98348e-12</wgt>
  <wgt id="83">5.96199e-12</wgt>
  <wgt id="84">5.97555e-12</wgt>
  <wgt id="85">5.97021e-12</wgt>
  <wgt id="86">6.00062e-12</wgt>
  <wgt id="87">5.95278e-12</wgt>
  <wgt id="88">5.98927e-12</wgt>
  <wgt id="89">5.98837e-12</wgt>
  <wgt id="90">5.99542e-12</wgt>
  <wgt id="91">5.9893e-12</wgt>
  <wgt id="92">5.99475e-12</wgt>
  <wgt id="93">5.98582e-12</wgt>
  <wgt id="94">5.97808e-12</wgt>
  <wgt id="95">5.99148e-12</wgt>
  <wgt id="96">5.98732e-12</wgt>
  <wgt id="97">5.97278e-12</wgt>
  <wgt id="98">5.98582e-12</wgt>
  <wgt id="99">5.97477e-12</wgt>
  <wgt id="100">5.989e-12</wgt>
  <wgt id="101">5.98414e-12</wgt>
  <wgt id="102">5.97881e-12</wgt>
  <wgt id="103">5.99106e-12</wgt>
  <wgt id="104">5.98137e-12</wgt>
  <wgt id="105">5.99149e-12</wgt>
  <wgt id="106">5.97457e-12</wgt>
  <wgt id="107">5.99986e-12</wgt>
  <wgt id="108">5.9773e-12</wgt>
  <wgt id="109">5.98337e-12</wgt>
  <wgt id="110">5.984e-12</wgt>
  <wgt id="111">6.039e-12</wgt>
  <wgt id="112">5.99114e-12</wgt>
  <wgt id="113">8.01489e-12</wgt>
  <wgt id="114">8.18111e-12</wgt>
  <wgt id="115">8.05932e-12</wgt>
  <wgt id="116">1.10361e-11</wgt>
  <wgt id="117">6.59987e-12</wgt>
  <wgt id="118">6.62168e-12</wgt>
  <wgt id="119">6.58714e-12</wgt>
  <wgt id="120">6.60052e-12</wgt>
  <wgt id="121">6.59957e-12</wgt>
  <wgt id="122">6.58798e-12</wgt>
  <wgt id="123">6.61577e-12</wgt>
  <wgt id="124">6.59023e-12</wgt>
  <wgt id="125">6.60572e-12</wgt>
  <wgt id="126">6.61056e-12</wgt>
  <wgt id="127">6.59256e-12</wgt>
  <wgt id="128">6.62042e-12</wgt>
  <wgt id="129">6.57942e-12</wgt>
  <wgt id="130">6.63692e-12</wgt>
  <wgt id="131">6.56186e-12</wgt>
  <wgt id="132">6.43073e-12</wgt>
  <wgt id="133">6.79929e-12</wgt>
  <wgt id="134">6.53111e-12</wgt>
  <wgt id="135">6.65353e-12</wgt>
  <wgt id="136">6.68272e-12</wgt>
  <wgt id="137">6.49921e-12</wgt>
  <wgt id="138">6.85065e-12</wgt>
  <wgt id="139">6.35714e-12</wgt>
  <wgt id="140">6.55685e-12</wgt>
  <wgt id="141">6.6332e-12</wgt>
  <wgt id="142">6.60038e-12</wgt>
  <wgt id="143">6.60981e-12</wgt>
  <wgt id="144">6.41992e-12</wgt>
  <wgt id="145">6.76633e-12</wgt>
  <wgt id="146">6.65638e-12</wgt>
  <wgt id="147">6.55484e-12</wgt>
  <wgt id="148">6.61969e-12</wgt>
  <wgt id="149">6.59834e-12</wgt>
  <wgt id="150">6.65552e-12</wgt>
  <wgt id="151">6.57391e-12</wgt>
  <wgt id="152">6.60253e-12</wgt>
  <wgt id="153">6.59873e-12</wgt>
  <wgt id="154">6.65091e-12</wgt>
  <wgt id="155">6.53768e-12</wgt>
  <wgt id="156">6.72671e-12</wgt>
  <wgt id="157">6.46515e-12</wgt>
  <wgt id="158">7.94021e-12</wgt>
  <wgt id="159">7.97355e-12</wgt>
  <wgt id="160">7.91364e-12</wgt>
  <wgt id="161">7.92157e-12</wgt>
  <wgt id="162">7.96152e-12</wgt>
  <wgt id="163">7.93192e-12</wgt>
  <wgt id="164">7.95247e-12</wgt>
  <wgt id="165">7.94354e-12</wgt>
  <wgt id="166">7.93773e-12</wgt>
  <wgt id="167">7.93437e-12</wgt>
  <wgt id="168">7.94863e-12</wgt>
  <wgt id="169">7.90606e-12</wgt>
  <wgt id="170">7.96135e-12</wgt>
  <wgt id="171">7.93227e-12</wgt>
  <wgt id="172">7.95129e-12</wgt>
  <wgt id="173">7.93891e-12</wgt>
  <wgt id="174">7.94068e-12</wgt>
  <wgt id="175">7.72364e-12</wgt>
  <wgt id="176">8.2223e-12</wgt>
  <wgt id="177">7.9801e-12</wgt>
  <wgt id="178">7.9037e-12</wgt>
  <wgt id="179">8.26639e-12</wgt>
  <wgt id="180">7.42535e-12</wgt>
  <wgt id="181">7.71441e-12</wgt>
  <wgt id="182">8.08916e-12</wgt>
  <wgt id="183">7.8023e-12</wgt>
  <wgt id="184">8.00855e-12</wgt>
  <wgt id="185">7.87506e-12</wgt>
  <wgt id="186">8.01781e-12</wgt>
  <wgt id="187">7.86825e-12</wgt>
  <wgt id="188">8.06886e-12</wgt>
  <wgt id="189">7.88999e-12</wgt>
  <wgt id="190">7.96061e-12</wgt>
  <wgt id="191">7.96157e-12</wgt>
  <wgt id="192">7.92741e-12</wgt>
  <wgt id="193">8.04993e-12</wgt>
  <wgt id="194">7.88587e-12</wgt>
  <wgt id="195">7.75679e-12</wgt>
  <wgt id="196">8.27268e-12</wgt>
  <wgt id="197">7.97867e-12</wgt>
  <wgt id="198">7.93115e-12</wgt>
  <wgt id="199">7.94021e-12</wgt>
  <wgt id="200">8.00697e-12</wgt>
  <wgt id="201">7.98284e-12</wgt>
  <wgt id="202">7.95915e-12</wgt>
  <wgt id="203">7.92374e-12</wgt>
  <wgt id="204">7.90689e-12</wgt>
  <wgt id="205">7.89297e-12</wgt>
  <wgt id="206">7.73412e-12</wgt>
  <wgt id="207">7.77907e-12</wgt>
  <wgt id="208">7.69009e-12</wgt>
  <wgt id="209">7.75614e-12</wgt>
  <wgt id="210">7.71881e-12</wgt>
  <wgt id="211">7.73213e-12</wgt>
  <wgt id="212">7.73601e-12</wgt>
  <wgt id="213">7.73369e-12</wgt>
  <wgt id="214">7.73518e-12</wgt>
  <wgt id="215">7.73956e-12</wgt>
  <wgt id="216">7.73076e-12</wgt>
  <wgt id="217">7.75482e-12</wgt>
  <wgt id="218">7.71839e-12</wgt>
  <wgt id="219">7.7247e-12</wgt>
  <wgt id="220">7.74038e-12</wgt>
  <wgt id="221">7.73188e-12</wgt>
  <wgt id="222">7.74013e-12</wgt>
  <wgt id="223">7.3359e-12</wgt>
  <wgt id="224">8.09672e-12</wgt>
  <wgt id="225">7.64541e-12</wgt>
  <wgt id="226">7.84622e-12</wgt>
  <wgt id="227">7.66379e-12</wgt>
  <wgt id="228">7.76532e-12</wgt>
  <wgt id="229">7.63022e-12</wgt>
  <wgt id="230">7.78618e-12</wgt>
  <wgt id="231">7.95179e-12</wgt>
  <wgt id="232">7.55523e-12</wgt>
  <wgt id="233">7.69513e-12</wgt>
  <wgt id="234">7.79615e-12</wgt>
  <wgt id="235">7.57719e-12</wgt>
  <wgt id="236">7.88075e-12</wgt>
  <wgt id="237">7.6284e-12</wgt>
  <wgt id="238">7.77056e-12</wgt>
  <wgt id="239">7.68868e-12</wgt>
  <wgt id="240">7.81764e-12</wgt>
  <wgt id="241">7.65759e-12</wgt>
  <wgt id="242">7.82632e-12</wgt>
  <wgt id="243">7.81944e-12</wgt>
  <wgt id="244">7.77544e-12</wgt>
  <wgt id="245">7.72863e-12</wgt>
  <wgt id="246">7.79082e-12</wgt>
  <wgt id="247">7.73412e-12</wgt>
  <wgt id="248">7.80119e-12</wgt>
  <wgt id="249">7.77583e-12</wgt>
  <wgt id="250">7.752e-12</wgt>
  <wgt id="251">7.71682e-12</wgt>
  <wgt id="252">7.70001e-12</wgt>
  <wgt id="253">7.68802e-12</wgt>
  <wgt id="254">7.55758e-12</wgt>
  <wgt id="255">7.56441e-12</wgt>
  <wgt id="256">7.5499e-12</wgt>
  <wgt id="257">7.56327e-12</wgt>
  <wgt id="258">7.55325e-12</wgt>
  <wgt id="259">7.60755e-12</wgt>
  <wgt id="260">7.50898e-12</wgt>
  <wgt id="261">7.56634e-12</wgt>
  <wgt id="262">7.54682e-12</wgt>
  <wgt id="263">7.55408e-12</wgt>
  <wgt id="264">7.56116e-12</wgt>
  <wgt id="265">7.54938e-12</wgt>
  <wgt id="266">7.57398e-12</wgt>
  <wgt id="267">7.55963e-12</wgt>
  <wgt id="268">7.55421e-12</wgt>
  <wgt id="269">7.57988e-12</wgt>
  <wgt id="270">7.5422e-12</wgt>
  <wgt id="271">7.54405e-12</wgt>
  <wgt id="272">7.57282e-12</wgt>
  <wgt id="273">7.53532e-12</wgt>
  <wgt id="274">7.57425e-12</wgt>
  <wgt id="275">7.52656e-12</wgt>
  <wgt id="276">7.58952e-12</wgt>
  <wgt id="277">7.51552e-12</wgt>
  <wgt id="278">7.59625e-12</wgt>
  <wgt id="279">7.41964e-12</wgt>
  <wgt id="280">7.7304e-12</wgt>
  <wgt id="281">7.52631e-12</wgt>
  <wgt id="282">7.55909e-12</wgt>
  <wgt id="283">7.34831e-12</wgt>
  <wgt id="284">7.81472e-12</wgt>
  <wgt id="285">7.20907e-12</wgt>
  <wgt id="286">7.84504e-12</wgt>
  <wgt id="287">7.58063e-12</wgt>
  <wgt id="288">7.52792e-12</wgt>
  <wgt id="289">7.6088e-12</wgt>
  <wgt id="290">7.43808e-12</wgt>
  <wgt id="291">7.53737e-12</wgt>
  <wgt id="292">7.56186e-12</wgt>
  <wgt id="293">7.50135e-12</wgt>
  <wgt id="294">7.61338e-12</wgt>
  <wgt id="295">7.41891e-12</wgt>
  <wgt id="296">7.72638e-12</wgt>
  <wgt id="297">7.55767e-12</wgt>
  <wgt id="298">7.58326e-12</wgt>
  <wgt id="299">7.53439e-12</wgt>
  <wgt id="300">7.61857e-12</wgt>
  <wgt id="301">7.46355e-12</wgt>
  <wgt id="302">7.80174e-12</wgt>
  <wgt id="303">7.50423e-12</wgt>
  <wgt id="304">7.58807e-12</wgt>
  <wgt id="305">7.57983e-12</wgt>
  <wgt id="306">7.58736e-12</wgt>
  <wgt id="307">7.57131e-12</wgt>
  <wgt id="308">7.58651e-12</wgt>
  <wgt id="309">7.57548e-12</wgt>
  <wgt id="310">7.63206e-12</wgt>
  <wgt id="311">7.53123e-12</wgt>
  <wgt id="312">7.58645e-12</wgt>
  <wgt id="313">7.57295e-12</wgt>
  <wgt id="314">7.57629e-12</wgt>
  <wgt id="315">7.58268e-12</wgt>
  <wgt id="316">7.57174e-12</wgt>
  <wgt id="317">7.59664e-12</wgt>
  <wgt id="318">7.58478e-12</wgt>
  <wgt id="319">7.57065e-12</wgt>
  <wgt id="320">7.60329e-12</wgt>
  <wgt id="321">7.5664e-12</wgt>
  <wgt id="322">7.56218e-12</wgt>
  <wgt id="323">7.59965e-12</wgt>
  <wgt id="324">7.5615e-12</wgt>
  <wgt id="325">7.59538e-12</wgt>
  <wgt id="326">7.55456e-12</wgt>
  <wgt id="327">7.61187e-12</wgt>
  <wgt id="328">7.54087e-12</wgt>
  <wgt id="329">7.60158e-12</wgt>
  <wgt id="330">7.79361e-12</wgt>
  <wgt id="331">7.37544e-12</wgt>
  <wgt id="332">7.55355e-12</wgt>
  <wgt id="333">7.58009e-12</wgt>
  <wgt id="334">7.41565e-12</wgt>
  <wgt id="335">7.78318e-12</wgt>
  <wgt id="336">7.32662e-12</wgt>
  <wgt id="337">7.88694e-12</wgt>
  <wgt id="338">7.66129e-12</wgt>
  <wgt id="339">7.50398e-12</wgt>
  <wgt id="340">7.6278e-12</wgt>
  <wgt id="341">7.45488e-12</wgt>
  <wgt id="342">7.56605e-12</wgt>
  <wgt id="343">7.57215e-12</wgt>
  <wgt id="344">7.52879e-12</wgt>
  <wgt id="345">7.63866e-12</wgt>
  <wgt id="346">7.43571e-12</wgt>
  <wgt id="347">7.74509e-12</wgt>
  <wgt id="348">7.58345e-12</wgt>
  <wgt id="349">7.60081e-12</wgt>
  <wgt id="350">7.55048e-12</wgt>
  <wgt id="351">7.65359e-12</wgt>
  <wgt id="352">7.47694e-12</wgt>
  <wgt id="353">7.83431e-12</wgt>
  <wgt id="354">7.49921e-12</wgt>
  <wgt id="355">7.62944e-12</wgt>
  <wgt id="356">7.55758e-12</wgt>
  <wgt id="357">7.61035e-12</wgt>
  <wgt id="358">7.57983e-12</wgt>
  <wgt id="359">7.58352e-12</wgt>
  <wgt id="360">7.60738e-12</wgt>
  <wgt id="361">7.58068e-12</wgt>
  <wgt id="362">7.70747e-12</wgt>
  <wgt id="363">7.68994e-12</wgt>
  <wgt id="364">7.66421e-12</wgt>
  <wgt id="365">7.63957e-12</wgt>
  <wgt id="366">7.61157e-12</wgt>
  <wgt id="367">7.55499e-12</wgt>
  <wgt id="368">7.52308e-12</wgt>
  <wgt id="369">7.48856e-12</wgt>
  <wgt id="370">7.58068e-12</wgt>
  <wgt id="371">7.61418e-12</wgt>
  <wgt id="372">7.5959e-12</wgt>
  <wgt id="373">7.56844e-12</wgt>
  <wgt id="374">7.56667e-12</wgt>
  <wgt id="375">8.10154e-12</wgt>
  <wgt id="376">8.10245e-12</wgt>
  <wgt id="377">8.10024e-12</wgt>
  <wgt id="378">8.13097e-12</wgt>
  <wgt id="379">8.07246e-12</wgt>
  <wgt id="380">8.12366e-12</wgt>
  <wgt id="381">8.09294e-12</wgt>
  <wgt id="382">8.14084e-12</wgt>
  <wgt id="383">8.06256e-12</wgt>
  <wgt id="384">8.10678e-12</wgt>
  <wgt id="385">8.0965e-12</wgt>
  <wgt id="386">8.13141e-12</wgt>
  <wgt id="387">8.08867e-12</wgt>
  <wgt id="388">8.09412e-12</wgt>
  <wgt id="389">8.11027e-12</wgt>
  <wgt id="390">8.12209e-12</wgt>
  <wgt id="391">8.07996e-12</wgt>
  <wgt id="392">8.04333e-12</wgt>
  <wgt id="393">8.13482e-12</wgt>
  <wgt id="394">8.11226e-12</wgt>
  <wgt id="395">8.08703e-12</wgt>
  <wgt id="396">8.10622e-12</wgt>
  <wgt id="397">8.09826e-12</wgt>
  <wgt id="398">8.07234e-12</wgt>
  <wgt id="399">8.13e-12</wgt>
  <wgt id="400">8.0895e-12</wgt>
  <wgt id="401">8.12877e-12</wgt>
  <wgt id="402">8.03863e-12</wgt>
  <wgt id="403">8.12935e-12</wgt>
  <wgt id="404">8.28248e-12</wgt>
  <wgt id="405">7.66428e-12</wgt>
  <wgt id="406">7.97063e-12</wgt>
  <wgt id="407">8.38534e-12</wgt>
  <wgt id="408">8.16849e-12</wgt>
  <wgt id="409">7.97323e-12</wgt>
  <wgt id="410">7.88703e-12</wgt>
  <wgt id="411">8.201e-12</wgt>
  <wgt id="412">8.08726e-12</wgt>
  <wgt id="413">8.12162e-12</wgt>
  <wgt id="414">8.01581e-12</wgt>
  <wgt id="415">8.1684e-12</wgt>
  <wgt id="416">8.30628e-12</wgt>
  <wgt id="417">7.81835e-12</wgt>
  <wgt id="418">8.11227e-12</wgt>
  <wgt id="419">8.04276e-12</wgt>
  <wgt id="420">8.21115e-12</wgt>
  <wgt id="421">8.04017e-12</wgt>
  <wgt id="422">8.09167e-12</wgt>
  <wgt id="423">8.10788e-12</wgt>
  <wgt id="424">8.25463e-12</wgt>
  <wgt id="425">8.00541e-12</wgt>
  <wgt id="426">8.10154e-12</wgt>
  <wgt id="427">8.03005e-12</wgt>
  <wgt id="428">8.30528e-12</wgt>
  <wgt id="429">8.1708e-12</wgt>
  <wgt id="430">8.39152e-12</wgt>
  <wgt id="431">8.34765e-12</wgt>
  <wgt id="432">8.30606e-12</wgt>
  <wgt id="433">8.26575e-12</wgt>
  <wgt id="434">8.21675e-12</wgt>
  <wgt id="435">8.11387e-12</wgt>
  <wgt id="436">8.06099e-12</wgt>
  <wgt id="437">8.01067e-12</wgt>
  <wgt id="438">8.1708e-12</wgt>
  <wgt id="439">8.19746e-12</wgt>
  <wgt id="440">8.18187e-12</wgt>
  <wgt id="441">8.16268e-12</wgt>
  <wgt id="442">8.15586e-12</wgt>
  <wgt id="443">7.89497e-12</wgt>
  <wgt id="444">7.9395e-12</wgt>
  <wgt id="445">7.88398e-12</wgt>
  <wgt id="446">7.84415e-12</wgt>
  <wgt id="447">7.87625e-12</wgt>
  <wgt id="448">7.69962e-12</wgt>
  <wgt id="449">8.01431e-12</wgt>
  <wgt id="450">7.8872e-12</wgt>
  <wgt id="451">7.88184e-12</wgt>
  <wgt id="452">8.05983e-12</wgt>
  <wgt id="453">7.96121e-12</wgt>
  <wgt id="454">7.58037e-12</wgt>
  <wgt id="455">7.91307e-12</wgt>
  <wgt id="456">7.84257e-12</wgt>
  <wgt id="457">7.92217e-12</wgt>
  <wgt id="458">7.98962e-12</wgt>
  <wgt id="459">7.9497e-12</wgt>
  <wgt id="460">7.95546e-12</wgt>
  <wgt id="461">7.75558e-12</wgt>
  <wgt id="462">7.84061e-12</wgt>
  <wgt id="463">7.80814e-12</wgt>
  <wgt id="464">7.85722e-12</wgt>
  <wgt id="465">7.97068e-12</wgt>
  <wgt id="466">7.80178e-12</wgt>
  <wgt id="467">7.82688e-12</wgt>
  <wgt id="468">7.87658e-12</wgt>
  <wgt id="469">7.87845e-12</wgt>
  <wgt id="470">7.82125e-12</wgt>
  <wgt id="471">7.82903e-12</wgt>
  <wgt id="472">7.92858e-12</wgt>
  <wgt id="473">7.67017e-12</wgt>
  <wgt id="474">5.79e-12</wgt>
  <wgt id="475">6.04725e-12</wgt>
  <wgt id="476">5.68866e-12</wgt>
  <wgt id="477">5.63076e-12</wgt>
  <wgt id="478">5.83391e-12</wgt>
  <wgt id="479">5.69283e-12</wgt>
  <wgt id="480">6.00028e-12</wgt>
  <wgt id="481">5.70951e-12</wgt>
  <wgt id="482">5.63539e-12</wgt>
  <wgt id="483">5.65002e-12</wgt>
  <wgt id="484">6.06388e-12</wgt>
  <wgt id="485">5.72567e-12</wgt>
  <wgt id="486">5.97543e-12</wgt>
  <wgt id="487">5.83441e-12</wgt>
  <wgt id="488">5.88768e-12</wgt>
  <wgt id="489">5.52792e-12</wgt>
  <wgt id="490">5.59745e-12</wgt>
  <wgt id="491">5.75286e-12</wgt>
  <wgt id="492">5.65485e-12</wgt>
  <wgt id="493">5.57193e-12</wgt>
  <wgt id="494">5.61144e-12</wgt>
  <wgt id="495">5.8384e-12</wgt>
  <wgt id="496">5.60371e-12</wgt>
  <wgt id="497">5.56811e-12</wgt>
  <wgt id="498">5.90789e-12</wgt>
  <wgt id="499">5.68985e-12</wgt>
  <wgt id="500">5.67696e-12</wgt>
  <wgt id="501">6.02575e-12</wgt>
  <wgt id="502">5.70172e-12</wgt>
  <wgt id="503">5.79095e-12</wgt>
  <wgt id="504">5.85792e-12</wgt>
  <wgt id="505">5.71286e-12</wgt>
  <wgt id="506">5.80451e-12</wgt>
  <wgt id="507">5.76815e-12</wgt>
  <wgt id="508">5.93963e-12</wgt>
  <wgt id="509">5.53144e-12</wgt>
  <wgt id="510">5.92185e-12</wgt>
  <wgt id="511">5.63516e-12</wgt>
  <wgt id="512">5.91629e-12</wgt>
  <wgt id="513">5.98549e-12</wgt>
  <wgt id="514">5.80933e-12</wgt>
  <wgt id="515">5.75027e-12</wgt>
  <wgt id="516">6.02833e-12</wgt>
  <wgt id="517">5.92483e-12</wgt>
  <wgt id="518">5.94789e-12</wgt>
  <wgt id="519">5.64346e-12</wgt>
  <wgt id="520">5.87174e-12</wgt>
  <wgt id="521">5.96017e-12</wgt>
  <wgt id="522">6.02961e-12</wgt>
  <wgt id="523">5.81072e-12</wgt>
  <wgt id="524">5.81031e-12</wgt>
  <wgt id="525">5.94101e-12</wgt>
  <wgt id="526">5.83502e-12</wgt>
  <wgt id="527">5.86092e-12</wgt>
  <wgt id="528">5.81066e-12</wgt>
  <wgt id="529">5.72072e-12</wgt>
  <wgt id="530">5.88911e-12</wgt>
  <wgt id="531">5.70216e-12</wgt>
  <wgt id="532">6.12794e-12</wgt>
  <wgt id="533">5.50757e-12</wgt>
  <wgt id="534">5.77934e-12</wgt>
  <wgt id="535">5.83288e-12</wgt>
  <wgt id="536">5.75779e-12</wgt>
  <wgt id="537">5.7885e-12</wgt>
  <wgt id="538">5.86683e-12</wgt>
  <wgt id="539">5.68103e-12</wgt>
  <wgt id="540">5.74665e-12</wgt>
  <wgt id="541">5.63429e-12</wgt>
  <wgt id="542">5.70542e-12</wgt>
  <wgt id="543">5.77543e-12</wgt>
  <wgt id="544">6.0498e-12</wgt>
  <wgt id="545">5.68883e-12</wgt>
  <wgt id="546">5.65816e-12</wgt>
  <wgt id="547">5.64472e-12</wgt>
  <wgt id="548">5.55862e-12</wgt>
  <wgt id="549">5.70245e-12</wgt>
  <wgt id="550">5.70491e-12</wgt>
  <wgt id="551">5.87042e-12</wgt>
  <wgt id="552">5.6534e-12</wgt>
  <wgt id="553">5.74611e-12</wgt>
  <wgt id="554">6.20128e-12</wgt>
  <wgt id="555">5.95283e-12</wgt>
  <wgt id="556">5.59745e-12</wgt>
  <wgt id="557">5.91599e-12</wgt>
  <wgt id="558">5.63927e-12</wgt>
  <wgt id="559">5.68107e-12</wgt>
  <wgt id="560">6.30837e-12</wgt>
  <wgt id="561">5.70337e-12</wgt>
  <wgt id="562">5.92306e-12</wgt>
  <wgt id="563">5.73899e-12</wgt>
  <wgt id="564">5.88185e-12</wgt>
  <wgt id="565">5.64255e-12</wgt>
  <wgt id="566">5.86148e-12</wgt>
  <wgt id="567">5.73061e-12</wgt>
  <wgt id="568">5.77687e-12</wgt>
  <wgt id="569">5.87047e-12</wgt>
  <wgt id="570">5.59372e-12</wgt>
  <wgt id="571">6.39938e-12</wgt>
  <wgt id="572">5.68691e-12</wgt>
  <wgt id="573">5.57291e-12</wgt>
  <wgt id="574">5.61124e-12</wgt>
  <wgt id="575">6.35781e-12</wgt>
  <wgt id="576">6.37896e-12</wgt>
  <wgt id="577">6.56051e-12</wgt>
  <wgt id="578">6.52736e-12</wgt>
  <wgt id="579">6.48648e-12</wgt>
  <wgt id="580">6.5312e-12</wgt>
  <wgt id="581">6.80498e-12</wgt>
  <wgt id="582">6.36971e-12</wgt>
  <wgt id="583">6.41258e-12</wgt>
  <wgt id="584">6.34529e-12</wgt>
  <wgt id="585">6.29511e-12</wgt>
  <wgt id="586">6.17758e-12</wgt>
  <wgt id="587">6.44588e-12</wgt>
  <wgt id="588">6.3664e-12</wgt>
  <wgt id="589">6.51917e-12</wgt>
  <wgt id="590">6.40444e-12</wgt>
  <wgt id="591">6.59879e-12</wgt>
  <wgt id="592">6.11757e-12</wgt>
  <wgt id="593">6.30936e-12</wgt>
  <wgt id="594">6.54755e-12</wgt>
  <wgt id="595">6.36909e-12</wgt>
  <wgt id="596">6.52237e-12</wgt>
  <wgt id="597">6.20835e-12</wgt>
  <wgt id="598">6.17413e-12</wgt>
  <wgt id="599">6.60943e-12</wgt>
  <wgt id="600">6.35046e-12</wgt>
  <wgt id="601">6.17492e-12</wgt>
  <wgt id="602">6.19304e-12</wgt>
  <wgt id="603">6.22101e-12</wgt>
  <wgt id="604">6.45289e-12</wgt>
  <wgt id="605">6.59681e-12</wgt>
  <wgt id="606">6.29076e-12</wgt>
  <wgt id="607">6.33075e-12</wgt>
  <wgt id="608">6.42337e-12</wgt>
  <wgt id="609">6.06158e-12</wgt>
  <wgt id="610">6.13138e-12</wgt>
  <wgt id="611">6.38384e-12</wgt>
  <wgt id="612">6.81892e-12</wgt>
  <wgt id="613">6.32458e-12</wgt>
  <wgt id="614">6.39885e-12</wgt>
  <wgt id="615">6.27043e-12</wgt>
  <wgt id="616">6.66549e-12</wgt>
  <wgt id="617">6.52522e-12</wgt>
  <wgt id="618">6.63642e-12</wgt>
  <wgt id="619">6.30139e-12</wgt>
  <wgt id="620">6.56926e-12</wgt>
  <wgt id="621">6.39404e-12</wgt>
  <wgt id="622">6.44588e-12</wgt>
  <wgt id="623">6.51509e-12</wgt>
  <wgt id="624">6.34197e-12</wgt>
  <wgt id="625">6.25271e-12</wgt>
  <wgt id="626">6.14882e-12</wgt>
  <wgt id="627">6.09018e-12</wgt>
  <wgt id="628">6.54138e-12</wgt>
  <wgt id="629">6.26372e-12</wgt>
  <wgt id="630">6.16339e-12</wgt>
  <wgt id="631">6.38797e-12</wgt>
  <wgt id="632">6.09922e-12</wgt>
  <wgt id="633">6.30764e-12</wgt>
  <wgt id="634">6.31197e-12</wgt>
  <wgt id="635">6.17115e-12</wgt>
  <wgt id="636">6.4238e-12</wgt>
  <wgt id="637">6.37573e-12</wgt>
  <wgt id="638">6.14772e-12</wgt>
  <wgt id="639">6.27177e-12</wgt>
  <wgt id="640">6.36112e-12</wgt>
  <wgt id="641">6.44274e-12</wgt>
  <wgt id="642">6.13388e-12</wgt>
  <wgt id="643">6.32166e-12</wgt>
  <wgt id="644">6.00611e-12</wgt>
  <wgt id="645">6.39327e-12</wgt>
  <wgt id="646">6.36707e-12</wgt>
  <wgt id="647">6.28183e-12</wgt>
  <wgt id="648">6.43477e-12</wgt>
  <wgt id="649">6.42602e-12</wgt>
  <wgt id="650">6.20873e-12</wgt>
  <wgt id="651">6.49087e-12</wgt>
  <wgt id="652">6.30156e-12</wgt>
  <wgt id="653">6.17893e-12</wgt>
  <wgt id="654">6.28107e-12</wgt>
  <wgt id="655">6.25192e-12</wgt>
  <wgt id="656">6.3449e-12</wgt>
  <wgt id="657">6.65373e-12</wgt>
  <wgt id="658">6.39142e-12</wgt>
  <wgt id="659">6.1074e-12</wgt>
  <wgt id="660">6.44138e-12</wgt>
  <wgt id="661">6.26983e-12</wgt>
  <wgt id="662">6.32672e-12</wgt>
  <wgt id="663">6.37242e-12</wgt>
  <wgt id="664">6.2925e-12</wgt>
  <wgt id="665">6.35007e-12</wgt>
  <wgt id="666">6.31178e-12</wgt>
  <wgt id="667">6.58378e-12</wgt>
  <wgt id="668">6.34517e-12</wgt>
  <wgt id="669">6.50101e-12</wgt>
  <wgt id="670">6.49905e-12</wgt>
  <wgt id="671">6.30538e-12</wgt>
  <wgt id="672">6.10122e-12</wgt>
  <wgt id="673">6.41298e-12</wgt>
  <wgt id="674">6.21917e-12</wgt>
  <wgt id="675">6.25958e-12</wgt>
  <wgt id="676">7.98684e-12</wgt>
  <wgt id="677">8.08953e-12</wgt>
  <wgt id="678">8.39551e-12</wgt>
  <wgt id="679">7.60735e-12</wgt>
  <wgt id="680">7.81522e-12</wgt>
  <wgt id="681">8.12559e-12</wgt>
  <wgt id="682">8.1871e-12</wgt>
  <wgt id="683">7.85e-12</wgt>
  <wgt id="684">8.31733e-12</wgt>
  <wgt id="685">7.67429e-12</wgt>
  <wgt id="686">7.84806e-12</wgt>
  <wgt id="687">8.30847e-12</wgt>
  <wgt id="688">7.88807e-12</wgt>
  <wgt id="689">8.45582e-12</wgt>
  <wgt id="690">8.34929e-12</wgt>
  <wgt id="691">8.37108e-12</wgt>
  <wgt id="692">7.92446e-12</wgt>
  <wgt id="693">9.37952e-12</wgt>
  <wgt id="694">8.48337e-12</wgt>
  <wgt id="695">7.73017e-12</wgt>
  <wgt id="696">7.67883e-12</wgt>
  <wgt id="697">7.68053e-12</wgt>
  <wgt id="698">7.31584e-12</wgt>
  <wgt id="699">7.24356e-12</wgt>
  <wgt id="700">7.07406e-12</wgt>
  <wgt id="701">7.99267e-12</wgt>
  <wgt id="702">7.78718e-12</wgt>
  <wgt id="703">9.13502e-12</wgt>
  <wgt id="704">8.72159e-12</wgt>
  <wgt id="705">8.44985e-12</wgt>
  <wgt id="706">7.53809e-12</wgt>
  <wgt id="707">7.66464e-12</wgt>
  <wgt id="708">7.85795e-12</wgt>
  <wgt id="709">7.8319e-12</wgt>
  <wgt id="710">7.27924e-12</wgt>
  <wgt id="711">7.96614e-12</wgt>
  <wgt id="712">7.79958e-12</wgt>
  <wgt id="713">8.55656e-12</wgt>
  <wgt id="714">7.79983e-12</wgt>
  <wgt id="715">7.87868e-12</wgt>
  <wgt id="716">7.70552e-12</wgt>
  <wgt id="717">7.55604e-12</wgt>
  <wgt id="718">7.99414e-12</wgt>
  <wgt id="719">7.29114e-12</wgt>
  <wgt id="720">7.6469e-12</wgt>
  <wgt id="721">7.3504e-12</wgt>
  <wgt id="722">7.08749e-12</wgt>
  <wgt id="723">8.50809e-12</wgt>
  <wgt id="724">8.36145e-12</wgt>
  <wgt id="725">8.39142e-12</wgt>
  <wgt id="726">8.03444e-12</wgt>
  <wgt id="727">7.83486e-12</wgt>
  <wgt id="728">7.82081e-12</wgt>
  <wgt id="729">7.55384e-12</wgt>
  <wgt id="730">8.51777e-12</wgt>
  <wgt id="731">7.87193e-12</wgt>
  <wgt id="732">8.78343e-12</wgt>
  <wgt id="733">7.86873e-12</wgt>
  <wgt id="734">8.16558e-12</wgt>
  <wgt id="735">8.02704e-12</wgt>
  <wgt id="736">7.79781e-12</wgt>
  <wgt id="737">8.07012e-12</wgt>
  <wgt id="738">7.66724e-12</wgt>
  <wgt id="739">8.14385e-12</wgt>
  <wgt id="740">8.87315e-12</wgt>
  <wgt id="741">7.24012e-12</wgt>
  <wgt id="742">7.88993e-12</wgt>
  <wgt id="743">7.63232e-12</wgt>
  <wgt id="744">7.82197e-12</wgt>
  <wgt id="745">8.3248e-12</wgt>
  <wgt id="746">8.46355e-12</wgt>
  <wgt id="747">7.21709e-12</wgt>
  <wgt id="748">7.87547e-12</wgt>
  <wgt id="749">8.36183e-12</wgt>
  <wgt id="750">8.25315e-12</wgt>
  <wgt id="751">8.18583e-12</wgt>
  <wgt id="752">7.35549e-12</wgt>
  <wgt id="753">7.54104e-12</wgt>
  <wgt id="754">8.25201e-12</wgt>
  <wgt id="755">7.99207e-12</wgt>
  <wgt id="756">7.97288e-12</wgt>
  <wgt id="757">7.35334e-12</wgt>
  <wgt id="758">8.00236e-12</wgt>
  <wgt id="759">8.29761e-12</wgt>
  <wgt id="760">8.03613e-12</wgt>
  <wgt id="761">8.43544e-12</wgt>
  <wgt id="762">8.45621e-12</wgt>
  <wgt id="763">7.9794e-12</wgt>
  <wgt id="764">8.29153e-12</wgt>
  <wgt id="765">8.06288e-12</wgt>
  <wgt id="766">7.9755e-12</wgt>
  <wgt id="767">8.14889e-12</wgt>
  <wgt id="768">7.53357e-12</wgt>
  <wgt id="769">8.44368e-12</wgt>
  <wgt id="770">7.84095e-12</wgt>
  <wgt id="771">9.36892e-12</wgt>
  <wgt id="772">7.58621e-12</wgt>
  <wgt id="773">7.93427e-12</wgt>
  <wgt id="774">7.03631e-12</wgt>
  <wgt id="775">8.34272e-12</wgt>
  <wgt id="776">8.65693e-12</wgt>
  <wgt id="777">7.59775e-12</wgt>
  <wgt id="778">5.88296e-12</wgt>
  <wgt id="779">4.78894e-12</wgt>
  <wgt id="780">3.86912e-12</wgt>
  <wgt id="781">6.31745e-12</wgt>
  <wgt id="782">6.30336e-12</wgt>
  <wgt id="783">4.83351e-12</wgt>
  <wgt id="784">5.08478e-12</wgt>
  <wgt id="785">7.27738e-12</wgt>
  <wgt id="786">4.50542e-12</wgt>
  <wgt id="787">6.71687e-12</wgt>
  <wgt id="788">3.55454e-12</wgt>
  <wgt id="789">4.86225e-12</wgt>
  <wgt id="790">4.43768e-12</wgt>
  <wgt id="791">5.69815e-12</wgt>
  <wgt id="792">7.77555e-12</wgt>
  <wgt id="793">5.78889e-12</wgt>
  <wgt id="794">4.42037e-12</wgt>
  <wgt id="795">6.91504e-12</wgt>
  <wgt id="796">7.67893e-12</wgt>
  <wgt id="797">6.89922e-12</wgt>
  <wgt id="798">5.3191e-12</wgt>
  <wgt id="799">6.68567e-12</wgt>
  <wgt id="800">4.87816e-12</wgt>
  <wgt id="801">5.4783e-12</wgt>
  <wgt id="802">4.43069e-12</wgt>
  <wgt id="803">7.99219e-12</wgt>
  <wgt id="804">6.8755e-12</wgt>
  <wgt id="805">6.93981e-12</wgt>
  <wgt id="806">6.50127e-12</wgt>
  <wgt id="807">5.62851e-12</wgt>
  <wgt id="808">5.68747e-12</wgt>
  <wgt id="809">5.45688e-12</wgt>
  <wgt id="810">6.59248e-12</wgt>
  <wgt id="811">6.34929e-12</wgt>
  <wgt id="812">4.43901e-12</wgt>
  <wgt id="813">4.54311e-12</wgt>
  <wgt id="814">4.86327e-12</wgt>
  <wgt id="815">4.79198e-12</wgt>
  <wgt id="816">4.35826e-12</wgt>
  <wgt id="817">6.10991e-12</wgt>
  <wgt id="818">6.01385e-12</wgt>
  <wgt id="819">4.80582e-12</wgt>
  <wgt id="820">5.84849e-12</wgt>
  <wgt id="821">6.71306e-12</wgt>
  <wgt id="822">4.88576e-12</wgt>
  <wgt id="823">6.79863e-12</wgt>
  <wgt id="824">7.91001e-12</wgt>
  <wgt id="825">4.27645e-12</wgt>
  <wgt id="826">6.28667e-12</wgt>
  <wgt id="827">3.58151e-12</wgt>
  <wgt id="828">7.50572e-12</wgt>
  <wgt id="829">6.06948e-12</wgt>
  <wgt id="830">4.06151e-12</wgt>
  <wgt id="831">6.3555e-12</wgt>
  <wgt id="832">9.57399e-12</wgt>
  <wgt id="833">5.4106e-12</wgt>
  <wgt id="834">9.07373e-12</wgt>
  <wgt id="835">4.79515e-12</wgt>
  <wgt id="836">5.69938e-12</wgt>
  <wgt id="837">6.628e-12</wgt>
  <wgt id="838">5.48232e-12</wgt>
  <wgt id="839">6.31839e-12</wgt>
  <wgt id="840">5.46248e-12</wgt>
  <wgt id="841">7.26506e-12</wgt>
  <wgt id="842">5.41666e-12</wgt>
  <wgt id="843">5.86357e-12</wgt>
  <wgt id="844">6.14231e-12</wgt>
  <wgt id="845">8.464e-12</wgt>
  <wgt id="846">5.81543e-12</wgt>
  <wgt id="847">5.96251e-12</wgt>
  <wgt id="848">4.97163e-12</wgt>
  <wgt id="849">6.04883e-12</wgt>
  <wgt id="850">7.6859e-12</wgt>
  <wgt id="851">6.4717e-12</wgt>
  <wgt id="852">4.81567e-12</wgt>
  <wgt id="853">6.5078e-12</wgt>
  <wgt id="854">7.20383e-12</wgt>
  <wgt id="855">6.76032e-12</wgt>
  <wgt id="856">4.13857e-12</wgt>
  <wgt id="857">5.80671e-12</wgt>
  <wgt id="858">5.66891e-12</wgt>
  <wgt id="859">5.53144e-12</wgt>
  <wgt id="860">6.43433e-12</wgt>
  <wgt id="861">5.18855e-12</wgt>
  <wgt id="862">5.95473e-12</wgt>
  <wgt id="863">6.25583e-12</wgt>
  <wgt id="864">6.19378e-12</wgt>
  <wgt id="865">8.36698e-12</wgt>
  <wgt id="866">9.19789e-12</wgt>
  <wgt id="867">5.96071e-12</wgt>
  <wgt id="868">5.79975e-12</wgt>
  <wgt id="869">4.4999e-12</wgt>
  <wgt id="870">4.76281e-12</wgt>
  <wgt id="871">4.62587e-12</wgt>
  <wgt id="872">7.0807e-12</wgt>
  <wgt id="873">4.93139e-12</wgt>
  <wgt id="874">6.20347e-12</wgt>
  <wgt id="875">5.08384e-12</wgt>
  <wgt id="876">7.03331e-12</wgt>
  <wgt id="877">6.65755e-12</wgt>
  <wgt id="878">5.0082e-12</wgt>
  <wgt id="879">7.98684e-12</wgt>
  <wgt id="880">8.08953e-12</wgt>
  <wgt id="881">8.39551e-12</wgt>
  <wgt id="882">7.60735e-12</wgt>
  <wgt id="883">7.81522e-12</wgt>
  <wgt id="884">8.12559e-12</wgt>
  <wgt id="885">8.1871e-12</wgt>
  <wgt id="886">7.85e-12</wgt>
  <wgt id="887">8.31733e-12</wgt>
  <wgt id="888">7.67429e-12</wgt>
  <wgt id="889">7.84806e-12</wgt>
  <wgt id="890">8.30847e-12</wgt>
  <wgt id="891">7.88807e-12</wgt>
  <wgt id="892">8.45582e-12</wgt>
  <wgt id="893">8.34929e-12</wgt>
  <wgt id="894">8.37108e-12</wgt>
  <wgt id="895">7.92446e-12</wgt>
  <wgt id="896">9.37952e-12</wgt>
  <wgt id="897">8.48337e-12</wgt>
  <wgt id="898">7.73017e-12</wgt>
  <wgt id="899">7.67883e-12</wgt>
  <wgt id="900">7.68053e-12</wgt>
  <wgt id="901">7.31584e-12</wgt>
  <wgt id="902">7.24356e-12</wgt>
  <wgt id="903">7.07406e-12</wgt>
  <wgt id="904">7.99267e-12</wgt>
  <wgt id="905">7.78718e-12</wgt>
  <wgt id="906">9.13502e-12</wgt>
  <wgt id="907">8.72159e-12</wgt>
  <wgt id="908">8.44985e-12</wgt>
  <wgt id="909">7.53809e-12</wgt>
  <wgt id="910">7.66464e-12</wgt>
  <wgt id="911">7.85795e-12</wgt>
  <wgt id="912">7.8319e-12</wgt>
  <wgt id="913">7.27924e-12</wgt>
  <wgt id="914">7.96614e-12</wgt>
  <wgt id="915">7.79958e-12</wgt>
  <wgt id="916">8.55656e-12</wgt>
  <wgt id="917">7.79983e-12</wgt>
  <wgt id="918">7.87868e-12</wgt>
  <wgt id="919">7.70552e-12</wgt>
  <wgt id="920">7.55604e-12</wgt>
  <wgt id="921">7.99414e-12</wgt>
  <wgt id="922">7.29114e-12</wgt>
  <wgt id="923">7.6469e-12</wgt>
  <wgt id="924">7.3504e-12</wgt>
  <wgt id="925">7.08749e-12</wgt>
  <wgt id="926">8.50809e-12</wgt>
  <wgt id="927">8.36145e-12</wgt>
  <wgt id="928">8.39142e-12</wgt>
  <wgt id="929">8.03444e-12</wgt>
  <wgt id="930">7.83486e-12</wgt>
  <wgt id="931">7.82081e-12</wgt>
  <wgt id="932">7.55384e-12</wgt>
  <wgt id="933">8.51777e-12</wgt>
  <wgt id="934">7.87193e-12</wgt>
  <wgt id="935">8.78343e-12</wgt>
  <wgt id="936">7.86873e-12</wgt>
  <wgt id="937">8.16558e-12</wgt>
  <wgt id="938">8.02704e-12</wgt>
  <wgt id="939">7.79781e-12</wgt>
  <wgt id="940">8.07012e-12</wgt>
  <wgt id="941">7.66724e-12</wgt>
  <wgt id="942">8.14385e-12</wgt>
  <wgt id="943">8.87315e-12</wgt>
  <wgt id="944">7.24012e-12</wgt>
  <wgt id="945">7.88993e-12</wgt>
  <wgt id="946">7.63232e-12</wgt>
  <wgt id="947">7.82197e-12</wgt>
  <wgt id="948">8.3248e-12</wgt>
  <wgt id="949">8.46355e-12</wgt>
  <wgt id="950">7.21709e-12</wgt>
  <wgt id="951">7.87547e-12</wgt>
  <wgt id="952">8.36183e-12</wgt>
  <wgt id="953">8.25315e-12</wgt>
  <wgt id="954">8.18583e-12</wgt>
  <wgt id="955">7.35549e-12</wgt>
  <wgt id="956">7.54104e-12</wgt>
  <wgt id="957">8.25201e-12</wgt>
  <wgt id="958">7.99207e-12</wgt>
  <wgt id="959">7.97288e-12</wgt>
  <wgt id="960">7.35334e-12</wgt>
  <wgt id="961">8.00236e-12</wgt>
  <wgt id="962">8.29761e-12</wgt>
  <wgt id="963">8.03613e-12</wgt>
  <wgt id="964">8.43544e-12</wgt>
  <wgt id="965">8.45621e-12</wgt>
  <wgt id="966">7.9794e-12</wgt>
  <wgt id="967">8.29153e-12</wgt>
  <wgt id="968">8.06288e-12</wgt>
  <wgt id="969">7.9755e-12</wgt>
  <wgt id="970">8.14889e-12</wgt>
  <wgt id="971">7.53357e-12</wgt>
  <wgt id="972">8.44368e-12</wgt>
  <wgt id="973">7.84095e-12</wgt>
  <wgt id="974">9.36892e-12</wgt>
  <wgt id="975">7.58621e-12</wgt>
  <wgt id="976">7.93427e-12</wgt>
  <wgt id="977">7.03631e-12</wgt>
  <wgt id="978">8.34272e-12</wgt>
  <wgt id="979">8.65693e-12</wgt>
  <wgt id="980">7.98049e-12</wgt>
  <wgt id="981">8.02736e-12</wgt>
  <wgt id="982">7.74988e-12</wgt>
</rwgt>
</event>
<event>
 5   1  0.5790000E-11  0.2219298E+04  0.7818608E-02  0.7741639E-01
       21   -1    0    0  502  501  0.00000000000E+00  0.00000000000E+00  0.22673833834E+04  0.22673833834E+04  0.00000000000E+00 0.  1.
       21   -1    0    0  501  502 -0.00000000000E+00 -0.00000000000E+00 -0.54305817320E+03  0.54305817320E+03  0.00000000000E+00 0. -1.
       39    2    1    2    0    0  0.00000000000E+00  0.00000000000E+00  0.17243252102E+04  0.28104415566E+04  0.22192981576E+04 0.  0.
       25    1    3    3    0    0 -0.72721123958E+03  0.82744183745E+03  0.80276621403E+03  0.13687785707E+04  0.12500000000E+03 0.  0.
       25    1    3    3    0    0  0.72721123958E+03 -0.82744183745E+03  0.92155899612E+03  0.14416629858E+04  0.12500000000E+03 0.  0.
<mgrwt>
<rscale>  0 0.22192982E+04</rscale>
<asrwt>0</asrwt>
<pdfrwt beam="1">  1       21 0.34882821E+00 0.22192982E+04</pdfrwt>
<pdfrwt beam="2">  1       21 0.83547413E-01 0.22192982E+04</pdfrwt>
<totfact> 0.77948984E+00</totfact>
</mgrwt>
<rwgt>
  <wgt id="1">5.79e-12</wgt>
  <wgt id="2">4.99013e-12</wgt>
  <wgt id="3">6.79474e-12</wgt>
  <wgt id="4">5.79e-12</wgt>
  <wgt id="5">4.99013e-12</wgt>
  <wgt id="6">6.79474e-12</wgt>
  <wgt id="7">5.79e-12</wgt>
  <wgt id="8">4.99013e-12</wgt>
  <wgt id="9">6.79474e-12</wgt>
  <wgt id="10">6.11132e-12</wgt>
  <wgt id="11">6.11121e-12</wgt>
  <wgt id="12">6.09392e-12</wgt>
  <wgt id="13">6.10197e-12</wgt>
  <wgt id="14">6.128e-12</wgt>
  <wgt id="15">6.1203e-12</wgt>
  <wgt id="16">6.09156e-12</wgt>
  <wgt id="17">6.15057e-12</wgt>
  <wgt id="18">6.10746e-12</wgt>
  <wgt id="19">6.14064e-12</wgt>
  <wgt id="20">6.11403e-12</wgt>
  <wgt id="21">6.05883e-12</wgt>
  <wgt id="22">6.06174e-12</wgt>
  <wgt id="23">6.0061e-12</wgt>
  <wgt id="24">6.05893e-12</wgt>
  <wgt id="25">6.08812e-12</wgt>
  <wgt id="26">6.12631e-12</wgt>
  <wgt id="27">6.09663e-12</wgt>
  <wgt id="28">6.06951e-12</wgt>
  <wgt id="29">6.11241e-12</wgt>
  <wgt id="30">6.05301e-12</wgt>
  <wgt id="31">6.13828e-12</wgt>
  <wgt id="32">6.05322e-12</wgt>
  <wgt id="33">6.11745e-12</wgt>
  <wgt id="34">6.06416e-12</wgt>
  <wgt id="35">6.05695e-12</wgt>
  <wgt id="36">6.14481e-12</wgt>
  <wgt id="37">6.08963e-12</wgt>
  <wgt id="38">6.08069e-12</wgt>
  <wgt id="39">6.23446e-12</wgt>
  <wgt id="40">6.12077e-12</wgt>
  <wgt id="41">6.10772e-12</wgt>
  <wgt id="42">6.1241e-12</wgt>
  <wgt id="43">6.11944e-12</wgt>
  <wgt id="44">6.15766e-12</wgt>
  <wgt id="45">6.11858e-12</wgt>
  <wgt id="46">6.07729e-12</wgt>
  <wgt id="47">6.19651e-12</wgt>
  <wgt id="48">6.16211e-12</wgt>
  <wgt id="49">6.07089e-12</wgt>
  <wgt id="50">6.04002e-12</wgt>
  <wgt id="51">6.05938e-12</wgt>
  <wgt id="52">6.12779e-12</wgt>
  <wgt id="53">6.20453e-12</wgt>
  <wgt id="54">6.15473e-12</wgt>
  <wgt id="55">6.1022e-12</wgt>
  <wgt id="56">6.05233e-12</wgt>
  <wgt id="57">6.05224e-12</wgt>
  <wgt id="58">6.11134e-12</wgt>
  <wgt id="59">6.13121e-12</wgt>
  <wgt id="60">6.03752e-12</wgt>
  <wgt id="61">6.08644e-12</wgt>
  <wgt id="62">6.11238e-12</wgt>
  <wgt id="63">6.10699e-12</wgt>
  <wgt id="64">6.10346e-12</wgt>
  <wgt id="65">6.07081e-12</wgt>
  <wgt id="66">6.12844e-12</wgt>
  <wgt id="67">6.12568e-12</wgt>
  <wgt id="68">6.10836e-12</wgt>
  <wgt id="69">6.09595e-12</wgt>
  <wgt id="70">6.07838e-12</wgt>
  <wgt id="71">6.11922e-12</wgt>
  <wgt id="72">6.08746e-12</wgt>
  <wgt id="73">6.12784e-12</wgt>
  <wgt id="74">6.14562e-12</wgt>
  <wgt id="75">6.09507e-12</wgt>
  <wgt id="76">6.15881e-12</wgt>
  <wgt id="77">6.09725e-12</wgt>
  <wgt id="78">6.10585e-12</wgt>
  <wgt id="79">6.1261e-12</wgt>
  <wgt id="80">6.05354e-12</wgt>
  <wgt id="81">6.106e-12</wgt>
  <wgt id="82">6.11835e-12</wgt>
  <wgt id="83">6.06382e-12</wgt>
  <wgt id="84">6.08055e-12</wgt>
  <wgt id="85">6.07895e-12</wgt>
  <wgt id="86">6.14709e-12</wgt>
  <wgt id="87">6.03902e-12</wgt>
  <wgt id="88">6.13545e-12</wgt>
  <wgt id="89">6.12844e-12</wgt>
  <wgt id="90">6.13733e-12</wgt>
  <wgt id="91">6.11965e-12</wgt>
  <wgt id="92">6.134e-12</wgt>
  <wgt id="93">6.11797e-12</wgt>
  <wgt id="94">6.08816e-12</wgt>
  <wgt id="95">6.13303e-12</wgt>
  <wgt id="96">6.13288e-12</wgt>
  <wgt id="97">6.07972e-12</wgt>
  <wgt id="98">6.11198e-12</wgt>
  <wgt id="99">6.10682e-12</wgt>
  <wgt id="100">6.12439e-12</wgt>
  <wgt id="101">6.09691e-12</wgt>
  <wgt id="102">6.09562e-12</wgt>
  <wgt id="103">6.13756e-12</wgt>
  <wgt id="104">6.09979e-12</wgt>
  <wgt id="105">6.13208e-12</wgt>
  <wgt id="106">6.09062e-12</wgt>
  <wgt id="107">6.15546e-12</wgt>
  <wgt id="108">6.09731e-12</wgt>
  <wgt id="109">6.1119e-12</wgt>
  <wgt id="110">6.11124e-12</wgt>
  <wgt id="111">6.0862e-12</wgt>
  <wgt id="112">6.2079e-12</wgt>
  <wgt id="113">8.89922e-12</wgt>
  <wgt id="114">7.98748e-12</wgt>
  <wgt id="115">7.82889e-12</wgt>
  <wgt id="116">1.0656e-11</wgt>
  <wgt id="117">6.65865e-12</wgt>
  <wgt id="118">6.68292e-12</wgt>
  <wgt id="119">6.64476e-12</wgt>
  <wgt id="120">6.65873e-12</wgt>
  <wgt id="121">6.6585e-12</wgt>
  <wgt id="122">6.64838e-12</wgt>
  <wgt id="123">6.67288e-12</wgt>
  <wgt id="124">6.64996e-12</wgt>
  <wgt id="125">6.66419e-12</wgt>
  <wgt id="126">6.6669e-12</wgt>
  <wgt id="127">6.65316e-12</wgt>
  <wgt id="128">6.67878e-12</wgt>
  <wgt id="129">6.63878e-12</wgt>
  <wgt id="130">6.68903e-12</wgt>
  <wgt id="131">6.627e-12</wgt>
  <wgt id="132">6.47218e-12</wgt>
  <wgt id="133">6.88072e-12</wgt>
  <wgt id="134">6.58835e-12</wgt>
  <wgt id="135">6.71391e-12</wgt>
  <wgt id="136">6.76471e-12</wgt>
  <wgt id="137">6.53111e-12</wgt>
  <wgt id="138">6.9725e-12</wgt>
  <wgt id="139">6.36223e-12</wgt>
  <wgt id="140">6.63048e-12</wgt>
  <wgt id="141">6.67926e-12</wgt>
  <wgt id="142">6.65618e-12</wgt>
  <wgt id="143">6.68205e-12</wgt>
  <wgt id="144">6.36054e-12</wgt>
  <wgt id="145">6.95165e-12</wgt>
  <wgt id="146">6.75516e-12</wgt>
  <wgt id="147">6.57894e-12</wgt>
  <wgt id="148">6.68352e-12</wgt>
  <wgt id="149">6.65675e-12</wgt>
  <wgt id="150">6.71366e-12</wgt>
  <wgt id="151">6.63294e-12</wgt>
  <wgt id="152">6.65986e-12</wgt>
  <wgt id="153">6.65807e-12</wgt>
  <wgt id="154">6.66235e-12</wgt>
  <wgt id="155">6.63742e-12</wgt>
  <wgt id="156">6.90933e-12</wgt>
  <wgt id="157">6.43546e-12</wgt>
  <wgt id="158">7.96581e-12</wgt>
  <wgt id="159">8.00022e-12</wgt>
  <wgt id="160">7.93836e-12</wgt>
  <wgt id="161">7.9462e-12</wgt>
  <wgt id="162">7.98809e-12</wgt>
  <wgt id="163">7.95714e-12</wgt>
  <wgt id="164">7.97894e-12</wgt>
  <wgt id="165">7.9686e-12</wgt>
  <wgt id="166">7.96401e-12</wgt>
  <wgt id="167">7.96066e-12</wgt>
  <wgt id="168">7.97363e-12</wgt>
  <wgt id="169">7.93345e-12</wgt>
  <wgt id="170">7.98617e-12</wgt>
  <wgt id="171">7.96146e-12</wgt>
  <wgt id="172">7.97227e-12</wgt>
  <wgt id="173">7.94746e-12</wgt>
  <wgt id="174">7.97264e-12</wgt>
  <wgt id="175">7.73456e-12</wgt>
  <wgt id="176">8.26914e-12</wgt>
  <wgt id="177">7.99978e-12</wgt>
  <wgt id="178">7.93538e-12</wgt>
  <wgt id="179">8.38951e-12</wgt>
  <wgt id="180">7.31701e-12</wgt>
  <wgt id="181">7.69246e-12</wgt>
  <wgt id="182">8.14906e-12</wgt>
  <wgt id="183">7.8001e-12</wgt>
  <wgt id="184">8.04844e-12</wgt>
  <wgt id="185">7.87113e-12</wgt>
  <wgt id="186">8.07992e-12</wgt>
  <wgt id="187">7.87028e-12</wgt>
  <wgt id="188">8.13407e-12</wgt>
  <wgt id="189">7.90099e-12</wgt>
  <wgt id="190">7.99267e-12</wgt>
  <wgt id="191">7.99651e-12</wgt>
  <wgt id="192">7.94775e-12</wgt>
  <wgt id="193">8.10432e-12</wgt>
  <wgt id="194">7.89582e-12</wgt>
  <wgt id="195">7.65613e-12</wgt>
  <wgt id="196">8.46537e-12</wgt>
  <wgt id="197">8.00862e-12</wgt>
  <wgt id="198">7.95542e-12</wgt>
  <wgt id="199">7.96581e-12</wgt>
  <wgt id="200">8.04551e-12</wgt>
  <wgt id="201">8.0192e-12</wgt>
  <wgt id="202">7.99321e-12</wgt>
  <wgt id="203">7.95735e-12</wgt>
  <wgt id="204">7.93861e-12</wgt>
  <wgt id="205">7.923e-12</wgt>
  <wgt id="206">7.82074e-12</wgt>
  <wgt id="207">7.86725e-12</wgt>
  <wgt id="208">7.77375e-12</wgt>
  <wgt id="209">7.84246e-12</wgt>
  <wgt id="210">7.80447e-12</wgt>
  <wgt id="211">7.81826e-12</wgt>
  <wgt id="212">7.8225e-12</wgt>
  <wgt id="213">7.8196e-12</wgt>
  <wgt id="214">7.8214e-12</wgt>
  <wgt id="215">7.82627e-12</wgt>
  <wgt id="216">7.81676e-12</wgt>
  <wgt id="217">7.83628e-12</wgt>
  <wgt id="218">7.80782e-12</wgt>
  <wgt id="219">7.80924e-12</wgt>
  <wgt id="220">7.82752e-12</wgt>
  <wgt id="221">7.82534e-12</wgt>
  <wgt id="222">7.80663e-12</wgt>
  <wgt id="223">7.36738e-12</wgt>
  <wgt id="224">8.23635e-12</wgt>
  <wgt id="225">7.72381e-12</wgt>
  <wgt id="226">7.94392e-12</wgt>
  <wgt id="227">7.74574e-12</wgt>
  <wgt id="228">7.85365e-12</wgt>
  <wgt id="229">7.70763e-12</wgt>
  <wgt id="230">7.87645e-12</wgt>
  <wgt id="231">8.09842e-12</wgt>
  <wgt id="232">7.59359e-12</wgt>
  <wgt id="233">7.76785e-12</wgt>
  <wgt id="234">7.90976e-12</wgt>
  <wgt id="235">7.45124e-12</wgt>
  <wgt id="236">8.11858e-12</wgt>
  <wgt id="237">7.6097e-12</wgt>
  <wgt id="238">7.89042e-12</wgt>
  <wgt id="239">7.7365e-12</wgt>
  <wgt id="240">7.97158e-12</wgt>
  <wgt id="241">7.72042e-12</wgt>
  <wgt id="242">7.93775e-12</wgt>
  <wgt id="243">7.9672e-12</wgt>
  <wgt id="244">7.80968e-12</wgt>
  <wgt id="245">7.81853e-12</wgt>
  <wgt id="246">7.85895e-12</wgt>
  <wgt id="247">7.82074e-12</wgt>
  <wgt id="248">7.90874e-12</wgt>
  <wgt id="249">7.87933e-12</wgt>
  <wgt id="250">7.84716e-12</wgt>
  <wgt id="251">7.80518e-12</wgt>
  <wgt id="252">7.78314e-12</wgt>
  <wgt id="253">7.76847e-12</wgt>
  <wgt id="254">7.5054e-12</wgt>
  <wgt id="255">7.51161e-12</wgt>
  <wgt id="256">7.49834e-12</wgt>
  <wgt id="257">7.51124e-12</wgt>
  <wgt id="258">7.50097e-12</wgt>
  <wgt id="259">7.55589e-12</wgt>
  <wgt id="260">7.4569e-12</wgt>
  <wgt id="261">7.51698e-12</wgt>
  <wgt id="262">7.49193e-12</wgt>
  <wgt id="263">7.49927e-12</wgt>
  <wgt id="264">7.51191e-12</wgt>
  <wgt id="265">7.49653e-12</wgt>
  <wgt id="266">7.52311e-12</wgt>
  <wgt id="267">7.50812e-12</wgt>
  <wgt id="268">7.50198e-12</wgt>
  <wgt id="269">7.5276e-12</wgt>
  <wgt id="270">7.49015e-12</wgt>
  <wgt id="271">7.48265e-12</wgt>
  <wgt id="272">7.53117e-12</wgt>
  <wgt id="273">7.48676e-12</wgt>
  <wgt id="274">7.51955e-12</wgt>
  <wgt id="275">7.45593e-12</wgt>
  <wgt id="276">7.5571e-12</wgt>
  <wgt id="277">7.46217e-12</wgt>
  <wgt id="278">7.54496e-12</wgt>
  <wgt id="279">7.36871e-12</wgt>
  <wgt id="280">7.67767e-12</wgt>
  <wgt id="281">7.46871e-12</wgt>
  <wgt id="282">7.51976e-12</wgt>
  <wgt id="283">7.25122e-12</wgt>
  <wgt id="284">7.82398e-12</wgt>
  <wgt id="285">7.08587e-12</wgt>
  <wgt id="286">7.86291e-12</wgt>
  <wgt id="287">7.53301e-12</wgt>
  <wgt id="288">7.47001e-12</wgt>
  <wgt id="289">7.56882e-12</wgt>
  <wgt id="290">7.36783e-12</wgt>
  <wgt id="291">7.47477e-12</wgt>
  <wgt id="292">7.50351e-12</wgt>
  <wgt id="293">7.43697e-12</wgt>
  <wgt id="294">7.5736e-12</wgt>
  <wgt id="295">7.33927e-12</wgt>
  <wgt id="296">7.70902e-12</wgt>
  <wgt id="297">7.48121e-12</wgt>
  <wgt id="298">7.54595e-12</wgt>
  <wgt id="299">7.47932e-12</wgt>
  <wgt id="300">7.57432e-12</wgt>
  <wgt id="301">7.33842e-12</wgt>
  <wgt id="302">7.88379e-12</wgt>
  <wgt id="303">7.41415e-12</wgt>
  <wgt id="304">7.5562e-12</wgt>
  <wgt id="305">7.40933e-12</wgt>
  <wgt id="306">7.41611e-12</wgt>
  <wgt id="307">7.40225e-12</wgt>
  <wgt id="308">7.4159e-12</wgt>
  <wgt id="309">7.4055e-12</wgt>
  <wgt id="310">7.46061e-12</wgt>
  <wgt id="311">7.36285e-12</wgt>
  <wgt id="312">7.42012e-12</wgt>
  <wgt id="313">7.3982e-12</wgt>
  <wgt id="314">7.40347e-12</wgt>
  <wgt id="315">7.41547e-12</wgt>
  <wgt id="316">7.40068e-12</wgt>
  <wgt id="317">7.42915e-12</wgt>
  <wgt id="318">7.41535e-12</wgt>
  <wgt id="319">7.39963e-12</wgt>
  <wgt id="320">7.4337e-12</wgt>
  <wgt id="321">7.39638e-12</wgt>
  <wgt id="322">7.38555e-12</wgt>
  <wgt id="323">7.43806e-12</wgt>
  <wgt id="324">7.39688e-12</wgt>
  <wgt id="325">7.4205e-12</wgt>
  <wgt id="326">7.36835e-12</wgt>
  <wgt id="327">7.46252e-12</wgt>
  <wgt id="328">7.37169e-12</wgt>
  <wgt id="329">7.43038e-12</wgt>
  <wgt id="330">7.61727e-12</wgt>
  <wgt id="331">7.21253e-12</wgt>
  <wgt id="332">7.37919e-12</wgt>
  <wgt id="333">7.41936e-12</wgt>
  <wgt id="334">7.21823e-12</wgt>
  <wgt id="335">7.65047e-12</wgt>
  <wgt id="336">7.1149e-12</wgt>
  <wgt id="337">7.77691e-12</wgt>
  <wgt id="338">7.50463e-12</wgt>
  <wgt id="339">7.32259e-12</wgt>
  <wgt id="340">7.46556e-12</wgt>
  <wgt id="341">7.27345e-12</wgt>
  <wgt id="342">7.38842e-12</wgt>
  <wgt id="343">7.39146e-12</wgt>
  <wgt id="344">7.3504e-12</wgt>
  <wgt id="345">7.47873e-12</wgt>
  <wgt id="346">7.24162e-12</wgt>
  <wgt id="347">7.60195e-12</wgt>
  <wgt id="348">7.38686e-12</wgt>
  <wgt id="349">7.44659e-12</wgt>
  <wgt id="350">7.37774e-12</wgt>
  <wgt id="351">7.4906e-12</wgt>
  <wgt id="352">7.24363e-12</wgt>
  <wgt id="353">7.77086e-12</wgt>
  <wgt id="354">7.28275e-12</wgt>
  <wgt id="355">7.484e-12</wgt>
  <wgt id="356">7.5054e-12</wgt>
  <wgt id="357">7.40746e-12</wgt>
  <wgt id="358">7.40933e-12</wgt>
  <wgt id="359">7.49501e-12</wgt>
  <wgt id="360">7.66164e-12</wgt>
  <wgt id="361">7.5496e-12</wgt>
  <wgt id="362">7.70671e-12</wgt>
  <wgt id="363">7.68663e-12</wgt>
  <wgt id="364">7.64494e-12</wgt>
  <wgt id="365">7.61472e-12</wgt>
  <wgt id="366">7.58501e-12</wgt>
  <wgt id="367">7.52909e-12</wgt>
  <wgt id="368">7.49193e-12</wgt>
  <wgt id="369">7.45195e-12</wgt>
  <wgt id="370">7.5496e-12</wgt>
  <wgt id="371">7.57935e-12</wgt>
  <wgt id="372">7.56223e-12</wgt>
  <wgt id="373">7.53863e-12</wgt>
  <wgt id="374">7.55219e-12</wgt>
  <wgt id="375">8.83811e-12</wgt>
  <wgt id="376">8.83832e-12</wgt>
  <wgt id="377">8.83781e-12</wgt>
  <wgt id="378">8.87257e-12</wgt>
  <wgt id="379">8.80399e-12</wgt>
  <wgt id="380">8.86397e-12</wgt>
  <wgt id="381">8.8278e-12</wgt>
  <wgt id="382">8.87649e-12</wgt>
  <wgt id="383">8.80027e-12</wgt>
  <wgt id="384">8.8439e-12</wgt>
  <wgt id="385">8.83276e-12</wgt>
  <wgt id="386">8.86278e-12</wgt>
  <wgt id="387">8.82762e-12</wgt>
  <wgt id="388">8.83102e-12</wgt>
  <wgt id="389">8.84671e-12</wgt>
  <wgt id="390">8.85645e-12</wgt>
  <wgt id="391">8.81911e-12</wgt>
  <wgt id="392">8.75704e-12</wgt>
  <wgt id="393">8.88381e-12</wgt>
  <wgt id="394">8.84225e-12</wgt>
  <wgt id="395">8.83212e-12</wgt>
  <wgt id="396">8.85609e-12</wgt>
  <wgt id="397">8.82559e-12</wgt>
  <wgt id="398">8.83026e-12</wgt>
  <wgt id="399">8.84538e-12</wgt>
  <wgt id="400">8.82492e-12</wgt>
  <wgt id="401">8.8666e-12</wgt>
  <wgt id="402">8.75215e-12</wgt>
  <wgt id="403">8.89818e-12</wgt>
  <wgt id="404">9.11276e-12</wgt>
  <wgt id="405">8.18746e-12</wgt>
  <wgt id="406">8.6388e-12</wgt>
  <wgt id="407">9.28314e-12</wgt>
  <wgt id="408">8.94157e-12</wgt>
  <wgt id="409">8.64756e-12</wgt>
  <wgt id="410">8.51738e-12</wgt>
  <wgt id="411">8.9938e-12</wgt>
  <wgt id="412">8.81583e-12</wgt>
  <wgt id="413">8.86967e-12</wgt>
  <wgt id="414">8.7107e-12</wgt>
  <wgt id="415">8.93712e-12</wgt>
  <wgt id="416">9.16664e-12</wgt>
  <wgt id="417">8.38858e-12</wgt>
  <wgt id="418">8.85871e-12</wgt>
  <wgt id="419">8.72825e-12</wgt>
  <wgt id="420">9.08401e-12</wgt>
  <wgt id="421">8.66986e-12</wgt>
  <wgt id="422">8.76888e-12</wgt>
  <wgt id="423">8.86962e-12</wgt>
  <wgt id="424">9.13446e-12</wgt>
  <wgt id="425">8.63341e-12</wgt>
  <wgt id="426">8.83811e-12</wgt>
  <wgt id="427">8.62513e-12</wgt>
  <wgt id="428">9.30634e-12</wgt>
  <wgt id="429">8.97383e-12</wgt>
  <wgt id="430">9.28904e-12</wgt>
  <wgt id="431">9.22456e-12</wgt>
  <wgt id="432">9.16688e-12</wgt>
  <wgt id="433">9.10988e-12</wgt>
  <wgt id="434">9.03623e-12</wgt>
  <wgt id="435">8.89607e-12</wgt>
  <wgt id="436">8.82622e-12</wgt>
  <wgt id="437">8.75691e-12</wgt>
  <wgt id="438">8.97383e-12</wgt>
  <wgt id="439">9.0006e-12</wgt>
  <wgt id="440">8.98321e-12</wgt>
  <wgt id="441">8.96771e-12</wgt>
  <wgt id="442">8.96308e-12</wgt>
  <wgt id="443">7.8708e-12</wgt>
  <wgt id="444">7.96808e-12</wgt>
  <wgt id="445">7.99195e-12</wgt>
  <wgt id="446">7.81179e-12</wgt>
  <wgt id="447">7.87619e-12</wgt>
  <wgt id="448">7.68764e-12</wgt>
  <wgt id="449">8.0574e-12</wgt>
  <wgt id="450">8.01205e-12</wgt>
  <wgt id="451">7.84626e-12</wgt>
  <wgt id="452">8.0411e-12</wgt>
  <wgt id="453">7.99096e-12</wgt>
  <wgt id="454">7.42898e-12</wgt>
  <wgt id="455">7.95657e-12</wgt>
  <wgt id="456">8.06821e-12</wgt>
  <wgt id="457">7.89491e-12</wgt>
  <wgt id="458">8.0301e-12</wgt>
  <wgt id="459">7.94621e-12</wgt>
  <wgt id="460">8.07371e-12</wgt>
  <wgt id="461">7.66461e-12</wgt>
  <wgt id="462">7.81545e-12</wgt>
  <wgt id="463">7.73149e-12</wgt>
  <wgt id="464">7.83303e-12</wgt>
  <wgt id="465">7.95527e-12</wgt>
  <wgt id="466">7.63718e-12</wgt>
  <wgt id="467">7.8152e-12</wgt>
  <wgt id="468">7.87246e-12</wgt>
  <wgt id="469">7.8484e-12</wgt>
  <wgt id="470">7.72803e-12</wgt>
  <wgt id="471">7.75776e-12</wgt>
  <wgt id="472">7.93472e-12</wgt>
  <wgt id="473">7.60303e-12</wgt>
  <wgt id="474">5.79e-12</wgt>
  <wgt id="475">5.7794e-12</wgt>
  <wgt id="476">5.79173e-12</wgt>
  <wgt id="477">5.94375e-12</wgt>
  <wgt id="478">5.91794e-12</wgt>
  <wgt id="479">5.40501e-12</wgt>
  <wgt id="480">6.1671e-12</wgt>
  <wgt id="481">5.86408e-12</wgt>
  <wgt id="482">5.87452e-12</wgt>
  <wgt id="483">5.97703e-12</wgt>
  <wgt id="484">6.05582e-12</wgt>
  <wgt id="485">5.18152e-12</wgt>
  <wgt id="486">6.10923e-12</wgt>
  <wgt id="487">5.5581e-12</wgt>
  <wgt id="488">5.79916e-12</wgt>
  <wgt id="489">5.05429e-12</wgt>
  <wgt id="490">5.75827e-12</wgt>
  <wgt id="491">5.69395e-12</wgt>
  <wgt id="492">5.70426e-12</wgt>
  <wgt id="493">5.22954e-12</wgt>
  <wgt id="494">5.23519e-12</wgt>
  <wgt id="495">5.8559e-12</wgt>
  <wgt id="496">5.40333e-12</wgt>
  <wgt id="497">5.3488e-12</wgt>
  <wgt id="498">5.94983e-12</wgt>
  <wgt id="499">5.90072e-12</wgt>
  <wgt id="500">5.83628e-12</wgt>
  <wgt id="501">6.03028e-12</wgt>
  <wgt id="502">6.19657e-12</wgt>
  <wgt id="503">5.64483e-12</wgt>
  <wgt id="504">6.02037e-12</wgt>
  <wgt id="505">6.11986e-12</wgt>
  <wgt id="506">5.23273e-12</wgt>
  <wgt id="507">5.56355e-12</wgt>
  <wgt id="508">6.14866e-12</wgt>
  <wgt id="509">5.6318e-12</wgt>
  <wgt id="510">5.79282e-12</wgt>
  <wgt id="511">5.44328e-12</wgt>
  <wgt id="512">6.3013e-12</wgt>
  <wgt id="513">6.11384e-12</wgt>
  <wgt id="514">6.26436e-12</wgt>
  <wgt id="515">6.08459e-12</wgt>
  <wgt id="516">6.54685e-12</wgt>
  <wgt id="517">5.93421e-12</wgt>
  <wgt id="518">6.07074e-12</wgt>
  <wgt id="519">5.54786e-12</wgt>
  <wgt id="520">5.82024e-12</wgt>
  <wgt id="521">5.52752e-12</wgt>
  <wgt id="522">5.98761e-12</wgt>
  <wgt id="523">5.45019e-12</wgt>
  <wgt id="524">6.02418e-12</wgt>
  <wgt id="525">5.55071e-12</wgt>
  <wgt id="526">6.21301e-12</wgt>
  <wgt id="527">5.67944e-12</wgt>
  <wgt id="528">5.71915e-12</wgt>
  <wgt id="529">5.38387e-12</wgt>
  <wgt id="530">6.16519e-12</wgt>
  <wgt id="531">5.49133e-12</wgt>
  <wgt id="532">6.31836e-12</wgt>
  <wgt id="533">5.89177e-12</wgt>
  <wgt id="534">5.455e-12</wgt>
  <wgt id="535">5.9596e-12</wgt>
  <wgt id="536">6.07219e-12</wgt>
  <wgt id="537">5.36819e-12</wgt>
  <wgt id="538">5.7097e-12</wgt>
  <wgt id="539">5.64838e-12</wgt>
  <wgt id="540">6.10812e-12</wgt>
  <wgt id="541">5.75806e-12</wgt>
  <wgt id="542">5.59982e-12</wgt>
  <wgt id="543">5.49704e-12</wgt>
  <wgt id="544">5.7904e-12</wgt>
  <wgt id="545">5.38146e-12</wgt>
  <wgt id="546">5.20869e-12</wgt>
  <wgt id="547">5.5346e-12</wgt>
  <wgt id="548">5.65201e-12</wgt>
  <wgt id="549">5.6827e-12</wgt>
  <wgt id="550">5.48615e-12</wgt>
  <wgt id="551">5.75184e-12</wgt>
  <wgt id="552">5.31629e-12</wgt>
  <wgt id="553">5.27988e-12</wgt>
  <wgt id="554">6.02627e-12</wgt>
  <wgt id="555">5.90782e-12</wgt>
  <wgt id="556">5.75827e-12</wgt>
  <wgt id="557">5.86235e-12</wgt>
  <wgt id="558">5.76853e-12</wgt>
  <wgt id="559">5.90423e-12</wgt>
  <wgt id="560">6.40157e-12</wgt>
  <wgt id="561">6.081e-12</wgt>
  <wgt id="562">6.04194e-12</wgt>
  <wgt id="563">6.45085e-12</wgt>
  <wgt id="564">6.23255e-12</wgt>
  <wgt id="565">6.20279e-12</wgt>
  <wgt id="566">5.44854e-12</wgt>
  <wgt id="567">5.8351e-12</wgt>
  <wgt id="568">5.46984e-12</wgt>
  <wgt id="569">5.89988e-12</wgt>
  <wgt id="570">5.98315e-12</wgt>
  <wgt id="571">6.42113e-12</wgt>
  <wgt id="572">5.52653e-12</wgt>
  <wgt id="573">5.63679e-12</wgt>
  <wgt id="574">5.69592e-12</wgt>
  <wgt id="575">6.376e-12</wgt>
  <wgt id="576">7.16153e-12</wgt>
  <wgt id="577">6.59186e-12</wgt>
  <wgt id="578">6.35275e-12</wgt>
  <wgt id="579">6.65152e-12</wgt>
  <wgt id="580">6.81884e-12</wgt>
  <wgt id="581">7.08169e-12</wgt>
  <wgt id="582">6.97868e-12</wgt>
  <wgt id="583">6.5971e-12</wgt>
  <wgt id="584">6.30371e-12</wgt>
  <wgt id="585">5.77673e-12</wgt>
  <wgt id="586">5.92925e-12</wgt>
  <wgt id="587">6.52492e-12</wgt>
  <wgt id="588">7.30589e-12</wgt>
  <wgt id="589">7.18115e-12</wgt>
  <wgt id="590">6.3602e-12</wgt>
  <wgt id="591">6.55061e-12</wgt>
  <wgt id="592">5.98778e-12</wgt>
  <wgt id="593">6.11322e-12</wgt>
  <wgt id="594">6.07659e-12</wgt>
  <wgt id="595">6.89607e-12</wgt>
  <wgt id="596">7.67678e-12</wgt>
  <wgt id="597">6.54355e-12</wgt>
  <wgt id="598">6.59986e-12</wgt>
  <wgt id="599">6.92242e-12</wgt>
  <wgt id="600">7.11666e-12</wgt>
  <wgt id="601">6.07734e-12</wgt>
  <wgt id="602">6.08999e-12</wgt>
  <wgt id="603">5.82816e-12</wgt>
  <wgt id="604">6.61228e-12</wgt>
  <wgt id="605">6.33037e-12</wgt>
  <wgt id="606">6.48387e-12</wgt>
  <wgt id="607">6.82853e-12</wgt>
  <wgt id="608">6.64938e-12</wgt>
  <wgt id="609">6.34212e-12</wgt>
  <wgt id="610">6.01144e-12</wgt>
  <wgt id="611">5.93085e-12</wgt>
  <wgt id="612">6.43682e-12</wgt>
  <wgt id="613">5.98322e-12</wgt>
  <wgt id="614">6.33196e-12</wgt>
  <wgt id="615">6.62166e-12</wgt>
  <wgt id="616">5.84107e-12</wgt>
  <wgt id="617">6.68345e-12</wgt>
  <wgt id="618">7.08933e-12</wgt>
  <wgt id="619">6.23771e-12</wgt>
  <wgt id="620">6.55771e-12</wgt>
  <wgt id="621">6.26294e-12</wgt>
  <wgt id="622">6.52492e-12</wgt>
  <wgt id="623">6.32846e-12</wgt>
  <wgt id="624">6.39344e-12</wgt>
  <wgt id="625">6.00428e-12</wgt>
  <wgt id="626">5.35927e-12</wgt>
  <wgt id="627">5.60627e-12</wgt>
  <wgt id="628">6.30539e-12</wgt>
  <wgt id="629">6.87806e-12</wgt>
  <wgt id="630">6.16749e-12</wgt>
  <wgt id="631">6.6447e-12</wgt>
  <wgt id="632">5.73433e-12</wgt>
  <wgt id="633">6.33063e-12</wgt>
  <wgt id="634">5.9928e-12</wgt>
  <wgt id="635">5.82977e-12</wgt>
  <wgt id="636">6.3988e-12</wgt>
  <wgt id="637">6.33637e-12</wgt>
  <wgt id="638">6.01476e-12</wgt>
  <wgt id="639">5.98623e-12</wgt>
  <wgt id="640">6.11514e-12</wgt>
  <wgt id="641">6.77522e-12</wgt>
  <wgt id="642">5.52224e-12</wgt>
  <wgt id="643">6.13471e-12</wgt>
  <wgt id="644">5.70856e-12</wgt>
  <wgt id="645">6.3622e-12</wgt>
  <wgt id="646">5.57906e-12</wgt>
  <wgt id="647">6.58813e-12</wgt>
  <wgt id="648">6.81072e-12</wgt>
  <wgt id="649">6.41357e-12</wgt>
  <wgt id="650">6.11747e-12</wgt>
  <wgt id="651">6.86401e-12</wgt>
  <wgt id="652">6.00521e-12</wgt>
  <wgt id="653">6.05793e-12</wgt>
  <wgt id="654">6.5372e-12</wgt>
  <wgt id="655">5.99248e-12</wgt>
  <wgt id="656">6.44386e-12</wgt>
  <wgt id="657">7.10519e-12</wgt>
  <wgt id="658">6.27225e-12</wgt>
  <wgt id="659">6.11311e-12</wgt>
  <wgt id="660">6.00797e-12</wgt>
  <wgt id="661">6.15407e-12</wgt>
  <wgt id="662">6.27873e-12</wgt>
  <wgt id="663">6.56117e-12</wgt>
  <wgt id="664">6.57718e-12</wgt>
  <wgt id="665">6.23829e-12</wgt>
  <wgt id="666">6.17527e-12</wgt>
  <wgt id="667">6.77189e-12</wgt>
  <wgt id="668">6.23243e-12</wgt>
  <wgt id="669">6.26204e-12</wgt>
  <wgt id="670">6.76693e-12</wgt>
  <wgt id="671">6.52147e-12</wgt>
  <wgt id="672">6.36025e-12</wgt>
  <wgt id="673">6.96593e-12</wgt>
  <wgt id="674">6.13634e-12</wgt>
  <wgt id="675">6.04447e-12</wgt>
  <wgt id="676">8.2963e-12</wgt>
  <wgt id="677">8.36697e-12</wgt>
  <wgt id="678">9.29584e-12</wgt>
  <wgt id="679">8.93455e-12</wgt>
  <wgt id="680">8.43296e-12</wgt>
  <wgt id="681">7.9789e-12</wgt>
  <wgt id="682">8.8272e-12</wgt>
  <wgt id="683">7.33893e-12</wgt>
  <wgt id="684">8.85796e-12</wgt>
  <wgt id="685">8.41731e-12</wgt>
  <wgt id="686">8.68241e-12</wgt>
  <wgt id="687">8.44347e-12</wgt>
  <wgt id="688">8.03237e-12</wgt>
  <wgt id="689">8.75257e-12</wgt>
  <wgt id="690">8.50303e-12</wgt>
  <wgt id="691">8.48181e-12</wgt>
  <wgt id="692">8.01705e-12</wgt>
  <wgt id="693">1.1637e-11</wgt>
  <wgt id="694">9.31545e-12</wgt>
  <wgt id="695">7.58876e-12</wgt>
  <wgt id="696">7.84858e-12</wgt>
  <wgt id="697">7.22695e-12</wgt>
  <wgt id="698">6.50386e-12</wgt>
  <wgt id="699">6.88861e-12</wgt>
  <wgt id="700">7.32498e-12</wgt>
  <wgt id="701">8.28276e-12</wgt>
  <wgt id="702">7.82577e-12</wgt>
  <wgt id="703">1.07548e-11</wgt>
  <wgt id="704">9.43811e-12</wgt>
  <wgt id="705">9.46507e-12</wgt>
  <wgt id="706">7.61059e-12</wgt>
  <wgt id="707">7.65347e-12</wgt>
  <wgt id="708">7.7022e-12</wgt>
  <wgt id="709">7.92825e-12</wgt>
  <wgt id="710">6.45918e-12</wgt>
  <wgt id="711">9.16628e-12</wgt>
  <wgt id="712">7.65877e-12</wgt>
  <wgt id="713">8.96163e-12</wgt>
  <wgt id="714">7.16569e-12</wgt>
  <wgt id="715">7.76866e-12</wgt>
  <wgt id="716">7.91561e-12</wgt>
  <wgt id="717">6.90535e-12</wgt>
  <wgt id="718">8.53135e-12</wgt>
  <wgt id="719">7.60799e-12</wgt>
  <wgt id="720">8.75504e-12</wgt>
  <wgt id="721">6.93716e-12</wgt>
  <wgt id="722">6.09955e-12</wgt>
  <wgt id="723">9.62529e-12</wgt>
  <wgt id="724">9.16246e-12</wgt>
  <wgt id="725">8.69772e-12</wgt>
  <wgt id="726">8.20562e-12</wgt>
  <wgt id="727">8.42378e-12</wgt>
  <wgt id="728">8.2906e-12</wgt>
  <wgt id="729">7.21444e-12</wgt>
  <wgt id="730">9.39259e-12</wgt>
  <wgt id="731">8.18283e-12</wgt>
  <wgt id="732">9.88882e-12</wgt>
  <wgt id="733">7.5313e-12</wgt>
  <wgt id="734">8.63347e-12</wgt>
  <wgt id="735">8.18673e-12</wgt>
  <wgt id="736">7.50043e-12</wgt>
  <wgt id="737">7.17769e-12</wgt>
  <wgt id="738">7.83986e-12</wgt>
  <wgt id="739">8.70858e-12</wgt>
  <wgt id="740">1.01774e-11</wgt>
  <wgt id="741">9.15988e-12</wgt>
  <wgt id="742">7.6403e-12</wgt>
  <wgt id="743">7.48123e-12</wgt>
  <wgt id="744">8.08153e-12</wgt>
  <wgt id="745">9.31171e-12</wgt>
  <wgt id="746">9.5991e-12</wgt>
  <wgt id="747">6.65715e-12</wgt>
  <wgt id="748">7.89446e-12</wgt>
  <wgt id="749">8.67418e-12</wgt>
  <wgt id="750">9.10158e-12</wgt>
  <wgt id="751">8.36038e-12</wgt>
  <wgt id="752">7.35732e-12</wgt>
  <wgt id="753">7.24824e-12</wgt>
  <wgt id="754">8.71458e-12</wgt>
  <wgt id="755">7.98855e-12</wgt>
  <wgt id="756">7.93225e-12</wgt>
  <wgt id="757">6.91799e-12</wgt>
  <wgt id="758">7.98903e-12</wgt>
  <wgt id="759">9.16663e-12</wgt>
  <wgt id="760">7.7403e-12</wgt>
  <wgt id="761">9.46753e-12</wgt>
  <wgt id="762">9.52298e-12</wgt>
  <wgt id="763">8.7427e-12</wgt>
  <wgt id="764">9.05234e-12</wgt>
  <wgt id="765">8.49429e-12</wgt>
  <wgt id="766">8.50747e-12</wgt>
  <wgt id="767">8.51036e-12</wgt>
  <wgt id="768">7.38552e-12</wgt>
  <wgt id="769">8.68624e-12</wgt>
  <wgt id="770">7.48899e-12</wgt>
  <wgt id="771">1.04753e-11</wgt>
  <wgt id="772">8.07932e-12</wgt>
  <wgt id="773">8.43845e-12</wgt>
  <wgt id="774">6.3486e-12</wgt>
  <wgt id="775">8.7462e-12</wgt>
  <wgt id="776">1.00651e-11</wgt>
  <wgt id="777">6.98614e-12</wgt>
  <wgt id="778">5.04213e-12</wgt>
  <wgt id="779">2.52825e-12</wgt>
  <wgt id="780">9.56871e-13</wgt>
  <wgt id="781">5.63991e-12</wgt>
  <wgt id="782">6.35627e-12</wgt>
  <wgt id="783">1.86327e-12</wgt>
  <wgt id="784">2.92961e-12</wgt>
  <wgt id="785">8.07873e-12</wgt>
  <wgt id="786">1.76538e-12</wgt>
  <wgt id="787">7.10327e-12</wgt>
  <wgt id="788">2.07617e-20</wgt>
  <wgt id="789">2.88275e-12</wgt>
  <wgt id="790">2.02286e-12</wgt>
  <wgt id="791">6.25732e-12</wgt>
  <wgt id="792">7.03225e-12</wgt>
  <wgt id="793">4.40699e-12</wgt>
  <wgt id="794">1.65634e-12</wgt>
  <wgt id="795">7.68207e-12</wgt>
  <wgt id="796">7.77793e-12</wgt>
  <wgt id="797">6.82612e-12</wgt>
  <wgt id="798">3.37492e-12</wgt>
  <wgt id="799">7.0384e-12</wgt>
  <wgt id="800">3.51251e-12</wgt>
  <wgt id="801">5.39512e-12</wgt>
  <wgt id="802">1.59144e-12</wgt>
  <wgt id="803">8.58821e-12</wgt>
  <wgt id="804">7.83402e-12</wgt>
  <wgt id="805">7.42025e-12</wgt>
  <wgt id="806">5.84533e-12</wgt>
  <wgt id="807">5.10014e-12</wgt>
  <wgt id="808">4.97461e-12</wgt>
  <wgt id="809">4.38522e-12</wgt>
  <wgt id="810">7.28084e-12</wgt>
  <wgt id="811">5.35985e-12</wgt>
  <wgt id="812">2.06657e-12</wgt>
  <wgt id="813">2.34028e-12</wgt>
  <wgt id="814">3.03389e-12</wgt>
  <wgt id="815">2.0239e-12</wgt>
  <wgt id="816">2.71077e-12</wgt>
  <wgt id="817">5.23454e-12</wgt>
  <wgt id="818">7.6792e-12</wgt>
  <wgt id="819">2.42593e-12</wgt>
  <wgt id="820">4.55129e-12</wgt>
  <wgt id="821">6.49774e-12</wgt>
  <wgt id="822">3.89403e-12</wgt>
  <wgt id="823">7.07449e-12</wgt>
  <wgt id="824">7.9082e-12</wgt>
  <wgt id="825">1.21661e-12</wgt>
  <wgt id="826">7.18869e-12</wgt>
  <wgt id="827">1.31564e-12</wgt>
  <wgt id="828">6.75662e-12</wgt>
  <wgt id="829">5.27421e-12</wgt>
  <wgt id="830">1.22034e-12</wgt>
  <wgt id="831">6.48364e-12</wgt>
  <wgt id="832">1.00072e-11</wgt>
  <wgt id="833">3.65855e-12</wgt>
  <wgt id="834">9.94852e-12</wgt>
  <wgt id="835">2.92106e-12</wgt>
  <wgt id="836">3.61979e-12</wgt>
  <wgt id="837">6.31474e-12</wgt>
  <wgt id="838">3.51035e-12</wgt>
  <wgt id="839">6.57191e-12</wgt>
  <wgt id="840">4.12209e-12</wgt>
  <wgt id="841">7.76539e-12</wgt>
  <wgt id="842">5.40478e-12</wgt>
  <wgt id="843">5.57014e-12</wgt>
  <wgt id="844">6.04226e-12</wgt>
  <wgt id="845">1.04195e-11</wgt>
  <wgt id="846">4.62488e-12</wgt>
  <wgt id="847">5.7336e-12</wgt>
  <wgt id="848">2.10132e-12</wgt>
  <wgt id="849">5.95253e-12</wgt>
  <wgt id="850">8.86676e-12</wgt>
  <wgt id="851">6.46554e-12</wgt>
  <wgt id="852">1.35775e-12</wgt>
  <wgt id="853">6.85035e-12</wgt>
  <wgt id="854">7.99504e-12</wgt>
  <wgt id="855">6.62162e-12</wgt>
  <wgt id="856">1.17591e-12</wgt>
  <wgt id="857">3.94474e-12</wgt>
  <wgt id="858">4.9861e-12</wgt>
  <wgt id="859">4.93202e-12</wgt>
  <wgt id="860">7.04433e-12</wgt>
  <wgt id="861">3.80529e-12</wgt>
  <wgt id="862">5.36747e-12</wgt>
  <wgt id="863">6.30998e-12</wgt>
  <wgt id="864">5.19254e-12</wgt>
  <wgt id="865">9.14134e-12</wgt>
  <wgt id="866">1.00846e-11</wgt>
  <wgt id="867">5.12694e-12</wgt>
  <wgt id="868">5.62032e-12</wgt>
  <wgt id="869">1.96298e-12</wgt>
  <wgt id="870">2.97156e-12</wgt>
  <wgt id="871">3.32055e-12</wgt>
  <wgt id="872">8.42988e-12</wgt>
  <wgt id="873">3.72145e-12</wgt>
  <wgt id="874">5.97422e-12</wgt>
  <wgt id="875">3.39132e-12</wgt>
  <wgt id="876">7.86376e-12</wgt>
  <wgt id="877">6.04573e-12</wgt>
  <wgt id="878">3.93827e-12</wgt>
  <wgt id="879">8.2963e-12</wgt>
  <wgt id="880">8.36697e-12</wgt>
  <wgt id="881">9.29584e-12</wgt>
  <wgt id="882">8.93455e-12</wgt>
  <wgt id="883">8.43296e-12</wgt>
  <wgt id="884">7.9789e-12</wgt>
  <wgt id="885">8.8272e-12</wgt>
  <wgt id="886">7.33893e-12</wgt>
  <wgt id="887">8.85796e-12</wgt>
  <wgt id="888">8.41731e-12</wgt>
  <wgt id="889">8.68241e-12</wgt>
  <wgt id="890">8.44347e-12</wgt>
  <wgt id="891">8.03237e-12</wgt>
  <wgt id="892">8.75257e-12</wgt>
  <wgt id="893">8.50303e-12</wgt>
  <wgt id="894">8.48181e-12</wgt>
  <wgt id="895">8.01705e-12</wgt>
  <wgt id="896">1.1637e-11</wgt>
  <wgt id="897">9.31545e-12</wgt>
  <wgt id="898">7.58876e-12</wgt>
  <wgt id="899">7.84858e-12</wgt>
  <wgt id="900">7.22695e-12</wgt>
  <wgt id="901">6.50386e-12</wgt>
  <wgt id="902">6.88861e-12</wgt>
  <wgt id="903">7.32498e-12</wgt>
  <wgt id="904">8.28276e-12</wgt>
  <wgt id="905">7.82577e-12</wgt>
  <wgt id="906">1.07548e-11</wgt>
  <wgt id="907">9.43811e-12</wgt>
  <wgt id="908">9.46507e-12</wgt>
  <wgt id="909">7.61059e-12</wgt>
  <wgt id="910">7.65347e-12</wgt>
  <wgt id="911">7.7022e-12</wgt>
  <wgt id="912">7.92825e-12</wgt>
  <wgt id="913">6.45918e-12</wgt>
  <wgt id="914">9.16628e-12</wgt>
  <wgt id="915">7.65877e-12</wgt>
  <wgt id="916">8.96163e-12</wgt>
  <wgt id="917">7.16569e-12</wgt>
  <wgt id="918">7.76866e-12</wgt>
  <wgt id="919">7.91561e-12</wgt>
  <wgt id="920">6.90535e-12</wgt>
  <wgt id="921">8.53135e-12</wgt>
  <wgt id="922">7.60799e-12</wgt>
  <wgt id="923">8.75504e-12</wgt>
  <wgt id="924">6.93716e-12</wgt>
  <wgt id="925">6.09955e-12</wgt>
  <wgt id="926">9.62529e-12</wgt>
  <wgt id="927">9.16246e-12</wgt>
  <wgt id="928">8.69772e-12</wgt>
  <wgt id="929">8.20562e-12</wgt>
  <wgt id="930">8.42378e-12</wgt>
  <wgt id="931">8.2906e-12</wgt>
  <wgt id="932">7.21444e-12</wgt>
  <wgt id="933">9.39259e-12</wgt>
  <wgt id="934">8.18283e-12</wgt>
  <wgt id="935">9.88882e-12</wgt>
  <wgt id="936">7.5313e-12</wgt>
  <wgt id="937">8.63347e-12</wgt>
  <wgt id="938">8.18673e-12</wgt>
  <wgt id="939">7.50043e-12</wgt>
  <wgt id="940">7.17769e-12</wgt>
  <wgt id="941">7.83986e-12</wgt>
  <wgt id="942">8.70858e-12</wgt>
  <wgt id="943">1.01774e-11</wgt>
  <wgt id="944">9.15988e-12</wgt>
  <wgt id="945">7.6403e-12</wgt>
  <wgt id="946">7.48123e-12</wgt>
  <wgt id="947">8.08153e-12</wgt>
  <wgt id="948">9.31171e-12</wgt>
  <wgt id="949">9.5991e-12</wgt>
  <wgt id="950">6.65715e-12</wgt>
  <wgt id="951">7.89446e-12</wgt>
  <wgt id="952">8.67418e-12</wgt>
  <wgt id="953">9.10158e-12</wgt>
  <wgt id="954">8.36038e-12</wgt>
  <wgt id="955">7.35732e-12</wgt>
  <wgt id="956">7.24824e-12</wgt>
  <wgt id="957">8.71458e-12</wgt>
  <wgt id="958">7.98855e-12</wgt>
  <wgt id="959">7.93225e-12</wgt>
  <wgt id="960">6.91799e-12</wgt>
  <wgt id="961">7.98903e-12</wgt>
  <wgt id="962">9.16663e-12</wgt>
  <wgt id="963">7.7403e-12</wgt>
  <wgt id="964">9.46753e-12</wgt>
  <wgt id="965">9.52298e-12</wgt>
  <wgt id="966">8.7427e-12</wgt>
  <wgt id="967">9.05234e-12</wgt>
  <wgt id="968">8.49429e-12</wgt>
  <wgt id="969">8.50747e-12</wgt>
  <wgt id="970">8.51036e-12</wgt>
  <wgt id="971">7.38552e-12</wgt>
  <wgt id="972">8.68624e-12</wgt>
  <wgt id="973">7.48899e-12</wgt>
  <wgt id="974">1.04753e-11</wgt>
  <wgt id="975">8.07932e-12</wgt>
  <wgt id="976">8.43845e-12</wgt>
  <wgt id="977">6.3486e-12</wgt>
  <wgt id="978">8.7462e-12</wgt>
  <wgt id="979">1.00651e-11</wgt>
  <wgt id="980">8.22579e-12</wgt>
  <wgt id="981">8.56873e-12</wgt>
  <wgt id="982">8.06601e-12</wgt>
</rwgt>
</event>
<event>
 5   1  0.5790000E-11  0.2250683E+04  0.7818608E-02  0.7730044E-01
       21   -1    0    0  502  501  0.00000000000E+00  0.00000000000E+00  0.66417127637E+03  0.66417127637E+03  0.00000000000E+00 0.  1.
       21   -1    0    0  501  502 -0.00000000000E+00 -0.00000000000E+00 -0.19067264651E+04  0.19067264651E+04  0.00000000000E+00 0. -1.
       39    2    1    2    0    0  0.00000000000E+00  0.00000000000E+00 -0.12425551887E+04  0.25708977415E+04  0.22506825187E+04 0.  0.
       25    1    3    3    0    0  0.10572762466E+03  0.89613046740E+03 -0.13759917398E+04  0.16502140507E+04  0.12500000000E+03 0.  0.
       25    1    3    3    0    0 -0.10572762466E+03 -0.89613046740E+03  0.13343655109E+03  0.92068369073E+03  0.12500000000E+03 0.  0.
<mgrwt>
<rscale>  0 0.22506825E+04</rscale>
<asrwt>0</asrwt>
<pdfrwt beam="1">  1       21 0.10218020E+00 0.22506825E+04</pdfrwt>
<pdfrwt beam="2">  1       21 0.29334253E+00 0.22506825E+04</pdfrwt>
<totfact> 0.10470685E+01</totfact>
</mgrwt>
<rwgt>
  <wgt id="1">5.79e-12</wgt>
  <wgt id="2">5.02074e-12</wgt>
  <wgt id="3">6.74872e-12</wgt>
  <wgt id="4">5.79e-12</wgt>
  <wgt id="5">5.02074e-12</wgt>
  <wgt id="6">6.74872e-12</wgt>
  <wgt id="7">5.79e-12</wgt>
  <wgt id="8">5.02074e-12</wgt>
  <wgt id="9">6.74872e-12</wgt>
  <wgt id="10">6.05149e-12</wgt>
  <wgt id="11">6.04842e-12</wgt>
  <wgt id="12">6.04007e-12</wgt>
  <wgt id="13">6.0367e-12</wgt>
  <wgt id="14">6.0729e-12</wgt>
  <wgt id="15">6.06185e-12</wgt>
  <wgt id="16">6.04081e-12</wgt>
  <wgt id="17">6.07778e-12</wgt>
  <wgt id="18">6.0432e-12</wgt>
  <wgt id="19">6.07091e-12</wgt>
  <wgt id="20">6.04491e-12</wgt>
  <wgt id="21">6.00406e-12</wgt>
  <wgt id="22">6.01115e-12</wgt>
  <wgt id="23">5.96796e-12</wgt>
  <wgt id="24">6.00931e-12</wgt>
  <wgt id="25">6.02902e-12</wgt>
  <wgt id="26">6.06959e-12</wgt>
  <wgt id="27">6.04225e-12</wgt>
  <wgt id="28">6.01414e-12</wgt>
  <wgt id="29">6.05438e-12</wgt>
  <wgt id="30">6.00783e-12</wgt>
  <wgt id="31">6.07889e-12</wgt>
  <wgt id="32">6.0158e-12</wgt>
  <wgt id="33">6.06097e-12</wgt>
  <wgt id="34">6.01545e-12</wgt>
  <wgt id="35">6.02146e-12</wgt>
  <wgt id="36">6.0786e-12</wgt>
  <wgt id="37">6.03253e-12</wgt>
  <wgt id="38">6.02819e-12</wgt>
  <wgt id="39">6.14809e-12</wgt>
  <wgt id="40">6.05578e-12</wgt>
  <wgt id="41">6.04779e-12</wgt>
  <wgt id="42">6.06164e-12</wgt>
  <wgt id="43">6.05247e-12</wgt>
  <wgt id="44">6.07176e-12</wgt>
  <wgt id="45">6.06032e-12</wgt>
  <wgt id="46">6.03588e-12</wgt>
  <wgt id="47">6.08767e-12</wgt>
  <wgt id="48">6.07063e-12</wgt>
  <wgt id="49">6.02102e-12</wgt>
  <wgt id="50">6.01817e-12</wgt>
  <wgt id="51">6.02746e-12</wgt>
  <wgt id="52">6.06795e-12</wgt>
  <wgt id="53">6.07165e-12</wgt>
  <wgt id="54">6.06993e-12</wgt>
  <wgt id="55">6.05072e-12</wgt>
  <wgt id="56">6.04995e-12</wgt>
  <wgt id="57">6.03707e-12</wgt>
  <wgt id="58">6.04115e-12</wgt>
  <wgt id="59">6.0516e-12</wgt>
  <wgt id="60">6.02806e-12</wgt>
  <wgt id="61">6.01348e-12</wgt>
  <wgt id="62">6.03075e-12</wgt>
  <wgt id="63">6.04337e-12</wgt>
  <wgt id="64">6.04903e-12</wgt>
  <wgt id="65">6.04286e-12</wgt>
  <wgt id="66">6.0502e-12</wgt>
  <wgt id="67">6.02846e-12</wgt>
  <wgt id="68">6.05072e-12</wgt>
  <wgt id="69">6.04598e-12</wgt>
  <wgt id="70">6.04496e-12</wgt>
  <wgt id="71">6.04554e-12</wgt>
  <wgt id="72">6.02064e-12</wgt>
  <wgt id="73">6.07243e-12</wgt>
  <wgt id="74">6.0642e-12</wgt>
  <wgt id="75">6.05202e-12</wgt>
  <wgt id="76">6.08185e-12</wgt>
  <wgt id="77">6.04368e-12</wgt>
  <wgt id="78">6.04635e-12</wgt>
  <wgt id="79">6.06793e-12</wgt>
  <wgt id="80">6.0114e-12</wgt>
  <wgt id="81">6.05103e-12</wgt>
  <wgt id="82">6.05513e-12</wgt>
  <wgt id="83">6.02117e-12</wgt>
  <wgt id="84">6.03926e-12</wgt>
  <wgt id="85">6.03248e-12</wgt>
  <wgt id="86">6.07055e-12</wgt>
  <wgt id="87">6.0066e-12</wgt>
  <wgt id="88">6.06285e-12</wgt>
  <wgt id="89">6.05791e-12</wgt>
  <wgt id="90">6.07049e-12</wgt>
  <wgt id="91">6.0583e-12</wgt>
  <wgt id="92">6.0652e-12</wgt>
  <wgt id="93">6.05935e-12</wgt>
  <wgt id="94">6.04045e-12</wgt>
  <wgt id="95">6.07077e-12</wgt>
  <wgt id="96">6.0624e-12</wgt>
  <wgt id="97">6.03266e-12</wgt>
  <wgt id="98">6.0517e-12</wgt>
  <wgt id="99">6.03874e-12</wgt>
  <wgt id="100">6.06581e-12</wgt>
  <wgt id="101">6.04974e-12</wgt>
  <wgt id="102">6.04555e-12</wgt>
  <wgt id="103">6.0688e-12</wgt>
  <wgt id="104">6.04184e-12</wgt>
  <wgt id="105">6.06149e-12</wgt>
  <wgt id="106">6.03855e-12</wgt>
  <wgt id="107">6.08064e-12</wgt>
  <wgt id="108">6.04126e-12</wgt>
  <wgt id="109">6.05893e-12</wgt>
  <wgt id="110">6.04847e-12</wgt>
  <wgt id="111">6.0776e-12</wgt>
  <wgt id="112">6.10596e-12</wgt>
  <wgt id="113">8.46363e-12</wgt>
  <wgt id="114">8.17408e-12</wgt>
  <wgt id="115">8.02917e-12</wgt>
  <wgt id="116">1.10271e-11</wgt>
  <wgt id="117">6.67064e-12</wgt>
  <wgt id="118">6.69434e-12</wgt>
  <wgt id="119">6.65719e-12</wgt>
  <wgt id="120">6.67105e-12</wgt>
  <wgt id="121">6.67042e-12</wgt>
  <wgt id="122">6.65965e-12</wgt>
  <wgt id="123">6.68586e-12</wgt>
  <wgt id="124">6.66147e-12</wgt>
  <wgt id="125">6.67654e-12</wgt>
  <wgt id="126">6.68076e-12</wgt>
  <wgt id="127">6.66393e-12</wgt>
  <wgt id="128">6.69113e-12</wgt>
  <wgt id="129">6.65026e-12</wgt>
  <wgt id="130">6.70524e-12</wgt>
  <wgt id="131">6.63489e-12</wgt>
  <wgt id="132">6.49145e-12</wgt>
  <wgt id="133">6.8833e-12</wgt>
  <wgt id="134">6.59967e-12</wgt>
  <wgt id="135">6.72628e-12</wgt>
  <wgt id="136">6.76572e-12</wgt>
  <wgt id="137">6.55615e-12</wgt>
  <wgt id="138">6.95451e-12</wgt>
  <wgt id="139">6.39941e-12</wgt>
  <wgt id="140">6.63417e-12</wgt>
  <wgt id="141">6.69857e-12</wgt>
  <wgt id="142">6.6698e-12</wgt>
  <wgt id="143">6.68752e-12</wgt>
  <wgt id="144">6.43058e-12</wgt>
  <wgt id="145">6.9001e-12</wgt>
  <wgt id="146">6.74679e-12</wgt>
  <wgt id="147">6.60898e-12</wgt>
  <wgt id="148">6.69361e-12</wgt>
  <wgt id="149">6.66898e-12</wgt>
  <wgt id="150">6.72696e-12</wgt>
  <wgt id="151">6.64435e-12</wgt>
  <wgt id="152">6.67284e-12</wgt>
  <wgt id="153">6.66984e-12</wgt>
  <wgt id="154">6.70021e-12</wgt>
  <wgt id="155">6.62705e-12</wgt>
  <wgt id="156">6.85804e-12</wgt>
  <wgt id="157">6.49172e-12</wgt>
  <wgt id="158">8.00884e-12</wgt>
  <wgt id="159">8.04267e-12</wgt>
  <wgt id="160">7.98157e-12</wgt>
  <wgt id="161">7.98903e-12</wgt>
  <wgt id="162">8.03095e-12</wgt>
  <wgt id="163">8.00006e-12</wgt>
  <wgt id="164">8.02178e-12</wgt>
  <wgt id="165">8.01197e-12</wgt>
  <wgt id="166">8.00646e-12</wgt>
  <wgt id="167">8.00308e-12</wgt>
  <wgt id="168">8.01682e-12</wgt>
  <wgt id="169">7.97537e-12</wgt>
  <wgt id="170">8.0297e-12</wgt>
  <wgt id="171">8.00211e-12</wgt>
  <wgt id="172">8.01837e-12</wgt>
  <wgt id="173">7.99923e-12</wgt>
  <wgt id="174">8.01206e-12</wgt>
  <wgt id="175">7.78157e-12</wgt>
  <wgt id="176">8.30606e-12</wgt>
  <wgt id="177">8.04748e-12</wgt>
  <wgt id="178">7.97348e-12</wgt>
  <wgt id="179">8.3857e-12</wgt>
  <wgt id="180">7.42281e-12</wgt>
  <wgt id="181">7.75669e-12</wgt>
  <wgt id="182">8.17635e-12</wgt>
  <wgt id="183">7.85558e-12</wgt>
  <wgt id="184">8.0849e-12</wgt>
  <wgt id="185">7.9285e-12</wgt>
  <wgt id="186">8.10541e-12</wgt>
  <wgt id="187">7.92528e-12</wgt>
  <wgt id="188">8.15678e-12</wgt>
  <wgt id="189">7.9507e-12</wgt>
  <wgt id="190">8.03244e-12</wgt>
  <wgt id="191">8.03498e-12</wgt>
  <wgt id="192">7.99348e-12</wgt>
  <wgt id="193">8.13409e-12</wgt>
  <wgt id="194">7.94603e-12</wgt>
  <wgt id="195">7.76043e-12</wgt>
  <wgt id="196">8.42688e-12</wgt>
  <wgt id="197">8.05034e-12</wgt>
  <wgt id="198">7.99883e-12</wgt>
  <wgt id="199">8.00884e-12</wgt>
  <wgt id="200">8.08282e-12</wgt>
  <wgt id="201">8.05708e-12</wgt>
  <wgt id="202">8.03211e-12</wgt>
  <wgt id="203">7.99578e-12</wgt>
  <wgt id="204">7.97777e-12</wgt>
  <wgt id="205">7.96296e-12</wgt>
  <wgt id="206">7.82069e-12</wgt>
  <wgt id="207">7.86704e-12</wgt>
  <wgt id="208">7.77481e-12</wgt>
  <wgt id="209">7.84331e-12</wgt>
  <wgt id="210">7.80412e-12</wgt>
  <wgt id="211">7.81811e-12</wgt>
  <wgt id="212">7.82268e-12</wgt>
  <wgt id="213">7.82e-12</wgt>
  <wgt id="214">7.82174e-12</wgt>
  <wgt id="215">7.82625e-12</wgt>
  <wgt id="216">7.81679e-12</wgt>
  <wgt id="217">7.83977e-12</wgt>
  <wgt id="218">7.80596e-12</wgt>
  <wgt id="219">7.81069e-12</wgt>
  <wgt id="220">7.82676e-12</wgt>
  <wgt id="221">7.82151e-12</wgt>
  <wgt id="222">7.8173e-12</wgt>
  <wgt id="223">7.39236e-12</wgt>
  <wgt id="224">8.21241e-12</wgt>
  <wgt id="225">7.72603e-12</wgt>
  <wgt id="226">7.94054e-12</wgt>
  <wgt id="227">7.74685e-12</wgt>
  <wgt id="228">7.85306e-12</wgt>
  <wgt id="229">7.71121e-12</wgt>
  <wgt id="230">7.875e-12</wgt>
  <wgt id="231">8.06859e-12</wgt>
  <wgt id="232">7.61752e-12</wgt>
  <wgt id="233">7.77508e-12</wgt>
  <wgt id="234">7.89563e-12</wgt>
  <wgt id="235">7.56223e-12</wgt>
  <wgt id="236">8.03804e-12</wgt>
  <wgt id="237">7.66451e-12</wgt>
  <wgt id="238">7.87294e-12</wgt>
  <wgt id="239">7.75633e-12</wgt>
  <wgt id="240">7.93626e-12</wgt>
  <wgt id="241">7.73222e-12</wgt>
  <wgt id="242">7.92587e-12</wgt>
  <wgt id="243">7.93733e-12</wgt>
  <wgt id="244">7.83621e-12</wgt>
  <wgt id="245">7.81653e-12</wgt>
  <wgt id="246">7.86892e-12</wgt>
  <wgt id="247">7.82069e-12</wgt>
  <wgt id="248">7.89854e-12</wgt>
  <wgt id="249">7.87096e-12</wgt>
  <wgt id="250">7.84313e-12</wgt>
  <wgt id="251">7.8043e-12</wgt>
  <wgt id="252">7.78504e-12</wgt>
  <wgt id="253">7.77146e-12</wgt>
  <wgt id="254">7.57879e-12</wgt>
  <wgt id="255">7.58559e-12</wgt>
  <wgt id="256">7.57139e-12</wgt>
  <wgt id="257">7.58473e-12</wgt>
  <wgt id="258">7.57437e-12</wgt>
  <wgt id="259">7.62936e-12</wgt>
  <wgt id="260">7.5299e-12</wgt>
  <wgt id="261">7.5896e-12</wgt>
  <wgt id="262">7.566e-12</wgt>
  <wgt id="263">7.57408e-12</wgt>
  <wgt id="264">7.58419e-12</wgt>
  <wgt id="265">7.57e-12</wgt>
  <wgt id="266">7.59635e-12</wgt>
  <wgt id="267">7.58119e-12</wgt>
  <wgt id="268">7.57515e-12</wgt>
  <wgt id="269">7.60183e-12</wgt>
  <wgt id="270">7.56309e-12</wgt>
  <wgt id="271">7.56074e-12</wgt>
  <wgt id="272">7.59885e-12</wgt>
  <wgt id="273">7.55793e-12</wgt>
  <wgt id="274">7.59461e-12</wgt>
  <wgt id="275">7.53844e-12</wgt>
  <wgt id="276">7.62045e-12</wgt>
  <wgt id="277">7.53503e-12</wgt>
  <wgt id="278">7.61884e-12</wgt>
  <wgt id="279">7.43911e-12</wgt>
  <wgt id="280">7.75439e-12</wgt>
  <wgt id="281">7.5449e-12</wgt>
  <wgt id="282">7.58521e-12</wgt>
  <wgt id="283">7.34563e-12</wgt>
  <wgt id="284">7.86828e-12</wgt>
  <wgt id="285">7.19228e-12</wgt>
  <wgt id="286">7.90276e-12</wgt>
  <wgt id="287">7.60441e-12</wgt>
  <wgt id="288">7.54588e-12</wgt>
  <wgt id="289">7.63653e-12</wgt>
  <wgt id="290">7.44899e-12</wgt>
  <wgt id="291">7.55268e-12</wgt>
  <wgt id="292">7.58122e-12</wgt>
  <wgt id="293">7.51583e-12</wgt>
  <wgt id="294">7.64119e-12</wgt>
  <wgt id="295">7.42567e-12</wgt>
  <wgt id="296">7.766e-12</wgt>
  <wgt id="297">7.56765e-12</wgt>
  <wgt id="298">7.6126e-12</wgt>
  <wgt id="299">7.55382e-12</wgt>
  <wgt id="300">7.6448e-12</wgt>
  <wgt id="301">7.44751e-12</wgt>
  <wgt id="302">7.89112e-12</wgt>
  <wgt id="303">7.50655e-12</wgt>
  <wgt id="304">7.61952e-12</wgt>
  <wgt id="305">7.54561e-12</wgt>
  <wgt id="306">7.55271e-12</wgt>
  <wgt id="307">7.53789e-12</wgt>
  <wgt id="308">7.5521e-12</wgt>
  <wgt id="309">7.54118e-12</wgt>
  <wgt id="310">7.5975e-12</wgt>
  <wgt id="311">7.49756e-12</wgt>
  <wgt id="312">7.55474e-12</wgt>
  <wgt id="313">7.53586e-12</wgt>
  <wgt id="314">7.5407e-12</wgt>
  <wgt id="315">7.55013e-12</wgt>
  <wgt id="316">7.53688e-12</wgt>
  <wgt id="317">7.56444e-12</wgt>
  <wgt id="318">7.55097e-12</wgt>
  <wgt id="319">7.536e-12</wgt>
  <wgt id="320">7.57021e-12</wgt>
  <wgt id="321">7.53182e-12</wgt>
  <wgt id="322">7.52497e-12</wgt>
  <wgt id="323">7.56955e-12</wgt>
  <wgt id="324">7.52957e-12</wgt>
  <wgt id="325">7.55945e-12</wgt>
  <wgt id="326">7.51255e-12</wgt>
  <wgt id="327">7.58787e-12</wgt>
  <wgt id="328">7.50603e-12</wgt>
  <wgt id="329">7.56792e-12</wgt>
  <wgt id="330">7.75989e-12</wgt>
  <wgt id="331">7.34147e-12</wgt>
  <wgt id="332">7.51746e-12</wgt>
  <wgt id="333">7.54939e-12</wgt>
  <wgt id="334">7.36618e-12</wgt>
  <wgt id="335">7.76975e-12</wgt>
  <wgt id="336">7.26929e-12</wgt>
  <wgt id="337">7.8857e-12</wgt>
  <wgt id="338">7.6349e-12</wgt>
  <wgt id="339">7.46305e-12</wgt>
  <wgt id="340">7.59862e-12</wgt>
  <wgt id="341">7.41322e-12</wgt>
  <wgt id="342">7.52698e-12</wgt>
  <wgt id="343">7.53431e-12</wgt>
  <wgt id="344">7.48986e-12</wgt>
  <wgt id="345">7.61037e-12</wgt>
  <wgt id="346">7.38823e-12</wgt>
  <wgt id="347">7.72626e-12</wgt>
  <wgt id="348">7.53671e-12</wgt>
  <wgt id="349">7.57497e-12</wgt>
  <wgt id="350">7.51458e-12</wgt>
  <wgt id="351">7.62418e-12</wgt>
  <wgt id="352">7.40939e-12</wgt>
  <wgt id="353">7.85716e-12</wgt>
  <wgt id="354">7.441e-12</wgt>
  <wgt id="355">7.60837e-12</wgt>
  <wgt id="356">7.57879e-12</wgt>
  <wgt id="357">7.56071e-12</wgt>
  <wgt id="358">7.54561e-12</wgt>
  <wgt id="359">7.58812e-12</wgt>
  <wgt id="360">7.67896e-12</wgt>
  <wgt id="361">7.61217e-12</wgt>
  <wgt id="362">7.7548e-12</wgt>
  <wgt id="363">7.73589e-12</wgt>
  <wgt id="364">7.7025e-12</wgt>
  <wgt id="365">7.67484e-12</wgt>
  <wgt id="366">7.64562e-12</wgt>
  <wgt id="367">7.58865e-12</wgt>
  <wgt id="368">7.55398e-12</wgt>
  <wgt id="369">7.5166e-12</wgt>
  <wgt id="370">7.61217e-12</wgt>
  <wgt id="371">7.64444e-12</wgt>
  <wgt id="372">7.62641e-12</wgt>
  <wgt id="373">7.60064e-12</wgt>
  <wgt id="374">7.60582e-12</wgt>
  <wgt id="375">8.47199e-12</wgt>
  <wgt id="376">8.47275e-12</wgt>
  <wgt id="377">8.47118e-12</wgt>
  <wgt id="378">8.50362e-12</wgt>
  <wgt id="379">8.44068e-12</wgt>
  <wgt id="380">8.49607e-12</wgt>
  <wgt id="381">8.46244e-12</wgt>
  <wgt id="382">8.51205e-12</wgt>
  <wgt id="383">8.43246e-12</wgt>
  <wgt id="384">8.47751e-12</wgt>
  <wgt id="385">8.46693e-12</wgt>
  <wgt id="386">8.50112e-12</wgt>
  <wgt id="387">8.45953e-12</wgt>
  <wgt id="388">8.46468e-12</wgt>
  <wgt id="389">8.48119e-12</wgt>
  <wgt id="390">8.49216e-12</wgt>
  <wgt id="391">8.45054e-12</wgt>
  <wgt id="392">8.4016e-12</wgt>
  <wgt id="393">8.51194e-12</wgt>
  <wgt id="394">8.47987e-12</wgt>
  <wgt id="395">8.46102e-12</wgt>
  <wgt id="396">8.48346e-12</wgt>
  <wgt id="397">8.4638e-12</wgt>
  <wgt id="398">8.45171e-12</wgt>
  <wgt id="399">8.49171e-12</wgt>
  <wgt id="400">8.45948e-12</wgt>
  <wgt id="401">8.49996e-12</wgt>
  <wgt id="402">8.39886e-12</wgt>
  <wgt id="403">8.51322e-12</wgt>
  <wgt id="404">8.6962e-12</wgt>
  <wgt id="405">7.93661e-12</wgt>
  <wgt id="406">8.31021e-12</wgt>
  <wgt id="407">8.82895e-12</wgt>
  <wgt id="408">8.55616e-12</wgt>
  <wgt id="409">8.31544e-12</wgt>
  <wgt id="410">8.20897e-12</wgt>
  <wgt id="411">8.59728e-12</wgt>
  <wgt id="412">8.45395e-12</wgt>
  <wgt id="413">8.49871e-12</wgt>
  <wgt id="414">8.36688e-12</wgt>
  <wgt id="415">8.5538e-12</wgt>
  <wgt id="416">8.73381e-12</wgt>
  <wgt id="417">8.11154e-12</wgt>
  <wgt id="418">8.48722e-12</wgt>
  <wgt id="419">8.39058e-12</wgt>
  <wgt id="420">8.64407e-12</wgt>
  <wgt id="421">8.3617e-12</wgt>
  <wgt id="422">8.43615e-12</wgt>
  <wgt id="423">8.48949e-12</wgt>
  <wgt id="424">8.69006e-12</wgt>
  <wgt id="425">8.32669e-12</wgt>
  <wgt id="426">8.47199e-12</wgt>
  <wgt id="427">8.33946e-12</wgt>
  <wgt id="428">8.7924e-12</wgt>
  <wgt id="429">8.57161e-12</wgt>
  <wgt id="430">8.83441e-12</wgt>
  <wgt id="431">8.78151e-12</wgt>
  <wgt id="432">8.73268e-12</wgt>
  <wgt id="433">8.6849e-12</wgt>
  <wgt id="434">8.62484e-12</wgt>
  <wgt id="435">8.50494e-12</wgt>
  <wgt id="436">8.44389e-12</wgt>
  <wgt id="437">8.38505e-12</wgt>
  <wgt id="438">8.57161e-12</wgt>
  <wgt id="439">8.59834e-12</wgt>
  <wgt id="440">8.58201e-12</wgt>
  <wgt id="441">8.56407e-12</wgt>
  <wgt id="442">8.55798e-12</wgt>
  <wgt id="443">7.94601e-12</wgt>
  <wgt id="444">8.01698e-12</wgt>
  <wgt id="445">7.99476e-12</wgt>
  <wgt id="446">7.8879e-12</wgt>
  <wgt id="447">7.94355e-12</wgt>
  <wgt id="448">7.74876e-12</wgt>
  <wgt id="449">8.09484e-12</wgt>
  <wgt id="450">8.01226e-12</wgt>
  <wgt id="451">7.92594e-12</wgt>
  <wgt id="452">8.12095e-12</wgt>
  <wgt id="453">8.03241e-12</wgt>
  <wgt id="454">7.56637e-12</wgt>
  <wgt id="455">7.99494e-12</wgt>
  <wgt id="456">8.03374e-12</wgt>
  <wgt id="457">7.9726e-12</wgt>
  <wgt id="458">8.07505e-12</wgt>
  <wgt id="459">8.01537e-12</wgt>
  <wgt id="460">8.07152e-12</wgt>
  <wgt id="461">7.76847e-12</wgt>
  <wgt id="462">7.89023e-12</wgt>
  <wgt id="463">7.82924e-12</wgt>
  <wgt id="464">7.90695e-12</wgt>
  <wgt id="465">8.0313e-12</wgt>
  <wgt id="466">7.79144e-12</wgt>
  <wgt id="467">7.87868e-12</wgt>
  <wgt id="468">7.93363e-12</wgt>
  <wgt id="469">7.92829e-12</wgt>
  <wgt id="470">7.83812e-12</wgt>
  <wgt id="471">7.85738e-12</wgt>
  <wgt id="472">7.99321e-12</wgt>
  <wgt id="473">7.69483e-12</wgt>
  <wgt id="474">5.79e-12</wgt>
  <wgt id="475">5.8297e-12</wgt>
  <wgt id="476">5.72638e-12</wgt>
  <wgt id="477">5.78721e-12</wgt>
  <wgt id="478">5.84851e-12</wgt>
  <wgt id="479">5.57675e-12</wgt>
  <wgt id="480">6.06775e-12</wgt>
  <wgt id="481">5.80795e-12</wgt>
  <wgt id="482">5.75925e-12</wgt>
  <wgt id="483">5.72112e-12</wgt>
  <wgt id="484">6.01252e-12</wgt>
  <wgt id="485">5.44585e-12</wgt>
  <wgt id="486">6.08173e-12</wgt>
  <wgt id="487">5.70389e-12</wgt>
  <wgt id="488">5.88145e-12</wgt>
  <wgt id="489">5.33723e-12</wgt>
  <wgt id="490">5.62667e-12</wgt>
  <wgt id="491">5.74162e-12</wgt>
  <wgt id="492">5.69879e-12</wgt>
  <wgt id="493">5.43925e-12</wgt>
  <wgt id="494">5.48158e-12</wgt>
  <wgt id="495">5.79711e-12</wgt>
  <wgt id="496">5.549e-12</wgt>
  <wgt id="497">5.46577e-12</wgt>
  <wgt id="498">5.96176e-12</wgt>
  <wgt id="499">5.78916e-12</wgt>
  <wgt id="500">5.66428e-12</wgt>
  <wgt id="501">6.00379e-12</wgt>
  <wgt id="502">5.90216e-12</wgt>
  <wgt id="503">5.73952e-12</wgt>
  <wgt id="504">5.95968e-12</wgt>
  <wgt id="505">5.89835e-12</wgt>
  <wgt id="506">5.55158e-12</wgt>
  <wgt id="507">5.76642e-12</wgt>
  <wgt id="508">6.06063e-12</wgt>
  <wgt id="509">5.47932e-12</wgt>
  <wgt id="510">5.87027e-12</wgt>
  <wgt id="511">5.5322e-12</wgt>
  <wgt id="512">6.08886e-12</wgt>
  <wgt id="513">6.00169e-12</wgt>
  <wgt id="514">5.99994e-12</wgt>
  <wgt id="515">5.86018e-12</wgt>
  <wgt id="516">6.27586e-12</wgt>
  <wgt id="517">5.92611e-12</wgt>
  <wgt id="518">5.97339e-12</wgt>
  <wgt id="519">5.57966e-12</wgt>
  <wgt id="520">5.91174e-12</wgt>
  <wgt id="521">5.77345e-12</wgt>
  <wgt id="522">6.0383e-12</wgt>
  <wgt id="523">5.58114e-12</wgt>
  <wgt id="524">5.80151e-12</wgt>
  <wgt id="525">5.80323e-12</wgt>
  <wgt id="526">5.98936e-12</wgt>
  <wgt id="527">5.75406e-12</wgt>
  <wgt id="528">5.80589e-12</wgt>
  <wgt id="529">5.62513e-12</wgt>
  <wgt id="530">6.02703e-12</wgt>
  <wgt id="531">5.6069e-12</wgt>
  <wgt id="532">6.22638e-12</wgt>
  <wgt id="533">5.6712e-12</wgt>
  <wgt id="534">5.6551e-12</wgt>
  <wgt id="535">5.79517e-12</wgt>
  <wgt id="536">5.89645e-12</wgt>
  <wgt id="537">5.6153e-12</wgt>
  <wgt id="538">5.784e-12</wgt>
  <wgt id="539">5.67059e-12</wgt>
  <wgt id="540">6.01873e-12</wgt>
  <wgt id="541">5.73598e-12</wgt>
  <wgt id="542">5.71147e-12</wgt>
  <wgt id="543">5.67319e-12</wgt>
  <wgt id="544">5.91383e-12</wgt>
  <wgt id="545">5.55652e-12</wgt>
  <wgt id="546">5.43104e-12</wgt>
  <wgt id="547">5.62893e-12</wgt>
  <wgt id="548">5.56593e-12</wgt>
  <wgt id="549">5.68708e-12</wgt>
  <wgt id="550">5.67287e-12</wgt>
  <wgt id="551">5.84682e-12</wgt>
  <wgt id="552">5.40635e-12</wgt>
  <wgt id="553">5.55983e-12</wgt>
  <wgt id="554">6.12695e-12</wgt>
  <wgt id="555">5.93777e-12</wgt>
  <wgt id="556">5.62667e-12</wgt>
  <wgt id="557">5.94255e-12</wgt>
  <wgt id="558">5.70422e-12</wgt>
  <wgt id="559">5.7556e-12</wgt>
  <wgt id="560">6.39287e-12</wgt>
  <wgt id="561">5.84333e-12</wgt>
  <wgt id="562">6.00073e-12</wgt>
  <wgt id="563">6.21348e-12</wgt>
  <wgt id="564">6.06771e-12</wgt>
  <wgt id="565">5.83723e-12</wgt>
  <wgt id="566">5.73529e-12</wgt>
  <wgt id="567">5.76863e-12</wgt>
  <wgt id="568">5.66334e-12</wgt>
  <wgt id="569">5.86251e-12</wgt>
  <wgt id="570">5.61186e-12</wgt>
  <wgt id="571">6.39372e-12</wgt>
  <wgt id="572">5.65047e-12</wgt>
  <wgt id="573">5.61938e-12</wgt>
  <wgt id="574">5.63997e-12</wgt>
  <wgt id="575">6.38652e-12</wgt>
  <wgt id="576">6.77582e-12</wgt>
  <wgt id="577">6.65656e-12</wgt>
  <wgt id="578">6.55046e-12</wgt>
  <wgt id="579">6.62352e-12</wgt>
  <wgt id="580">6.75058e-12</wgt>
  <wgt id="581">6.99927e-12</wgt>
  <wgt id="582">6.70819e-12</wgt>
  <wgt id="583">6.47266e-12</wgt>
  <wgt id="584">6.32666e-12</wgt>
  <wgt id="585">6.03893e-12</wgt>
  <wgt id="586">6.07087e-12</wgt>
  <wgt id="587">6.50547e-12</wgt>
  <wgt id="588">6.73691e-12</wgt>
  <wgt id="589">6.82625e-12</wgt>
  <wgt id="590">6.33856e-12</wgt>
  <wgt id="591">6.58443e-12</wgt>
  <wgt id="592">5.90656e-12</wgt>
  <wgt id="593">6.24235e-12</wgt>
  <wgt id="594">6.35954e-12</wgt>
  <wgt id="595">6.58924e-12</wgt>
  <wgt id="596">7.24007e-12</wgt>
  <wgt id="597">6.41688e-12</wgt>
  <wgt id="598">6.3233e-12</wgt>
  <wgt id="599">6.74161e-12</wgt>
  <wgt id="600">6.63322e-12</wgt>
  <wgt id="601">6.15283e-12</wgt>
  <wgt id="602">6.19966e-12</wgt>
  <wgt id="603">6.06849e-12</wgt>
  <wgt id="604">6.52085e-12</wgt>
  <wgt id="605">6.5169e-12</wgt>
  <wgt id="606">6.48582e-12</wgt>
  <wgt id="607">6.56399e-12</wgt>
  <wgt id="608">6.60015e-12</wgt>
  <wgt id="609">6.25995e-12</wgt>
  <wgt id="610">6.13526e-12</wgt>
  <wgt id="611">6.18274e-12</wgt>
  <wgt id="612">6.65904e-12</wgt>
  <wgt id="613">6.17799e-12</wgt>
  <wgt id="614">6.34576e-12</wgt>
  <wgt id="615">6.42303e-12</wgt>
  <wgt id="616">6.32289e-12</wgt>
  <wgt id="617">6.602e-12</wgt>
  <wgt id="618">6.97912e-12</wgt>
  <wgt id="619">6.27305e-12</wgt>
  <wgt id="620">6.61215e-12</wgt>
  <wgt id="621">6.33341e-12</wgt>
  <wgt id="622">6.50547e-12</wgt>
  <wgt id="623">6.46763e-12</wgt>
  <wgt id="624">6.42774e-12</wgt>
  <wgt id="625">6.14968e-12</wgt>
  <wgt id="626">5.86774e-12</wgt>
  <wgt id="627">5.89793e-12</wgt>
  <wgt id="628">6.39032e-12</wgt>
  <wgt id="629">6.40072e-12</wgt>
  <wgt id="630">6.16988e-12</wgt>
  <wgt id="631">6.50076e-12</wgt>
  <wgt id="632">5.91204e-12</wgt>
  <wgt id="633">6.35901e-12</wgt>
  <wgt id="634">6.16328e-12</wgt>
  <wgt id="635">5.93702e-12</wgt>
  <wgt id="636">6.47932e-12</wgt>
  <wgt id="637">6.35405e-12</wgt>
  <wgt id="638">6.12966e-12</wgt>
  <wgt id="639">6.1818e-12</wgt>
  <wgt id="640">6.29517e-12</wgt>
  <wgt id="641">6.63878e-12</wgt>
  <wgt id="642">5.94661e-12</wgt>
  <wgt id="643">6.26431e-12</wgt>
  <wgt id="644">5.75419e-12</wgt>
  <wgt id="645">6.38821e-12</wgt>
  <wgt id="646">6.02401e-12</wgt>
  <wgt id="647">6.40465e-12</wgt>
  <wgt id="648">6.61491e-12</wgt>
  <wgt id="649">6.41638e-12</wgt>
  <wgt id="650">6.12096e-12</wgt>
  <wgt id="651">6.7743e-12</wgt>
  <wgt id="652">6.17741e-12</wgt>
  <wgt id="653">6.15017e-12</wgt>
  <wgt id="654">6.35464e-12</wgt>
  <wgt id="655">6.21429e-12</wgt>
  <wgt id="656">6.39955e-12</wgt>
  <wgt id="657">6.94937e-12</wgt>
  <wgt id="658">6.40431e-12</wgt>
  <wgt id="659">6.11524e-12</wgt>
  <wgt id="660">6.29013e-12</wgt>
  <wgt id="661">6.25577e-12</wgt>
  <wgt id="662">6.30499e-12</wgt>
  <wgt id="663">6.47593e-12</wgt>
  <wgt id="664">6.4177e-12</wgt>
  <wgt id="665">6.35133e-12</wgt>
  <wgt id="666">6.26339e-12</wgt>
  <wgt id="667">6.69881e-12</wgt>
  <wgt id="668">6.3371e-12</wgt>
  <wgt id="669">6.4337e-12</wgt>
  <wgt id="670">6.66031e-12</wgt>
  <wgt id="671">6.4283e-12</wgt>
  <wgt id="672">6.16773e-12</wgt>
  <wgt id="673">6.67744e-12</wgt>
  <wgt id="674">6.20443e-12</wgt>
  <wgt id="675">6.23089e-12</wgt>
  <wgt id="676">8.20909e-12</wgt>
  <wgt id="677">8.3091e-12</wgt>
  <wgt id="678">8.86548e-12</wgt>
  <wgt id="679">8.14913e-12</wgt>
  <wgt id="680">8.22739e-12</wgt>
  <wgt id="681">8.11385e-12</wgt>
  <wgt id="682">8.5793e-12</wgt>
  <wgt id="683">7.75198e-12</wgt>
  <wgt id="684">8.59418e-12</wgt>
  <wgt id="685">8.1122e-12</wgt>
  <wgt id="686">8.14251e-12</wgt>
  <wgt id="687">8.48705e-12</wgt>
  <wgt id="688">7.99657e-12</wgt>
  <wgt id="689">8.58042e-12</wgt>
  <wgt id="690">8.4358e-12</wgt>
  <wgt id="691">8.48061e-12</wgt>
  <wgt id="692">8.05379e-12</wgt>
  <wgt id="693">1.04313e-11</wgt>
  <wgt id="694">8.93089e-12</wgt>
  <wgt id="695">7.80648e-12</wgt>
  <wgt id="696">7.91908e-12</wgt>
  <wgt id="697">7.6033e-12</wgt>
  <wgt id="698">6.99646e-12</wgt>
  <wgt id="699">7.07146e-12</wgt>
  <wgt id="700">7.24424e-12</wgt>
  <wgt id="701">8.20049e-12</wgt>
  <wgt id="702">8.00982e-12</wgt>
  <wgt id="703">9.88545e-12</wgt>
  <wgt id="704">9.1798e-12</wgt>
  <wgt id="705">9.09617e-12</wgt>
  <wgt id="706">7.74691e-12</wgt>
  <wgt id="707">7.75334e-12</wgt>
  <wgt id="708">7.93623e-12</wgt>
  <wgt id="709">7.97797e-12</wgt>
  <wgt id="710">7.20414e-12</wgt>
  <wgt id="711">8.47483e-12</wgt>
  <wgt id="712">7.78192e-12</wgt>
  <wgt id="713">8.84993e-12</wgt>
  <wgt id="714">7.57805e-12</wgt>
  <wgt id="715">7.93733e-12</wgt>
  <wgt id="716">7.91252e-12</wgt>
  <wgt id="717">7.35586e-12</wgt>
  <wgt id="718">8.38265e-12</wgt>
  <wgt id="719">7.46422e-12</wgt>
  <wgt id="720">8.20428e-12</wgt>
  <wgt id="721">7.11432e-12</wgt>
  <wgt id="722">6.75123e-12</wgt>
  <wgt id="723">9.05935e-12</wgt>
  <wgt id="724">8.80721e-12</wgt>
  <wgt id="725">8.57458e-12</wgt>
  <wgt id="726">8.18213e-12</wgt>
  <wgt id="727">8.17371e-12</wgt>
  <wgt id="728">7.97021e-12</wgt>
  <wgt id="729">7.77162e-12</wgt>
  <wgt id="730">8.97903e-12</wgt>
  <wgt id="731">8.05489e-12</wgt>
  <wgt id="732">9.38379e-12</wgt>
  <wgt id="733">7.771e-12</wgt>
  <wgt id="734">8.44512e-12</wgt>
  <wgt id="735">8.28792e-12</wgt>
  <wgt id="736">7.73433e-12</wgt>
  <wgt id="737">7.94217e-12</wgt>
  <wgt id="738">7.83473e-12</wgt>
  <wgt id="739">8.73244e-12</wgt>
  <wgt id="740">9.48267e-12</wgt>
  <wgt id="741">8.13328e-12</wgt>
  <wgt id="742">8.0207e-12</wgt>
  <wgt id="743">7.57971e-12</wgt>
  <wgt id="744">8.04809e-12</wgt>
  <wgt id="745">8.8111e-12</wgt>
  <wgt id="746">9.04029e-12</wgt>
  <wgt id="747">6.98326e-12</wgt>
  <wgt id="748">8.00453e-12</wgt>
  <wgt id="749">8.51442e-12</wgt>
  <wgt id="750">8.8124e-12</wgt>
  <wgt id="751">8.28211e-12</wgt>
  <wgt id="752">7.44028e-12</wgt>
  <wgt id="753">7.47836e-12</wgt>
  <wgt id="754">8.57824e-12</wgt>
  <wgt id="755">8.08552e-12</wgt>
  <wgt id="756">8.03581e-12</wgt>
  <wgt id="757">7.25376e-12</wgt>
  <wgt id="758">8.03633e-12</wgt>
  <wgt id="759">8.98258e-12</wgt>
  <wgt id="760">7.98795e-12</wgt>
  <wgt id="761">8.92789e-12</wgt>
  <wgt id="762">8.96624e-12</wgt>
  <wgt id="763">8.28452e-12</wgt>
  <wgt id="764">8.67608e-12</wgt>
  <wgt id="765">8.3233e-12</wgt>
  <wgt id="766">8.26739e-12</wgt>
  <wgt id="767">8.36566e-12</wgt>
  <wgt id="768">7.55006e-12</wgt>
  <wgt id="769">8.67318e-12</wgt>
  <wgt id="770">7.87673e-12</wgt>
  <wgt id="771">9.90918e-12</wgt>
  <wgt id="772">7.95117e-12</wgt>
  <wgt id="773">8.18643e-12</wgt>
  <wgt id="774">6.68778e-12</wgt>
  <wgt id="775">8.59909e-12</wgt>
  <wgt id="776">9.17663e-12</wgt>
  <wgt id="777">7.45858e-12</wgt>
  <wgt id="778">5.61461e-12</wgt>
  <wgt id="779">3.82554e-12</wgt>
  <wgt id="780">2.56826e-12</wgt>
  <wgt id="781">6.45734e-12</wgt>
  <wgt id="782">6.62451e-12</wgt>
  <wgt id="783">3.62912e-12</wgt>
  <wgt id="784">4.26897e-12</wgt>
  <wgt id="785">7.98883e-12</wgt>
  <wgt id="786">3.59535e-12</wgt>
  <wgt id="787">6.97544e-12</wgt>
  <wgt id="788">1.9166e-12</wgt>
  <wgt id="789">4.25319e-12</wgt>
  <wgt id="790">3.54802e-12</wgt>
  <wgt id="791">6.18079e-12</wgt>
  <wgt id="792">7.57492e-12</wgt>
  <wgt id="793">5.42851e-12</wgt>
  <wgt id="794">3.32388e-12</wgt>
  <wgt id="795">7.37671e-12</wgt>
  <wgt id="796">7.73907e-12</wgt>
  <wgt id="797">7.16454e-12</wgt>
  <wgt id="798">4.52541e-12</wgt>
  <wgt id="799">6.83223e-12</wgt>
  <wgt id="800">4.4714e-12</wgt>
  <wgt id="801">5.26363e-12</wgt>
  <wgt id="802">3.23827e-12</wgt>
  <wgt id="803">8.72403e-12</wgt>
  <wgt id="804">7.38526e-12</wgt>
  <wgt id="805">7.23786e-12</wgt>
  <wgt id="806">6.12861e-12</wgt>
  <wgt id="807">5.43561e-12</wgt>
  <wgt id="808">5.34816e-12</wgt>
  <wgt id="809">5.12667e-12</wgt>
  <wgt id="810">6.34217e-12</wgt>
  <wgt id="811">5.93657e-12</wgt>
  <wgt id="812">3.58478e-12</wgt>
  <wgt id="813">3.81002e-12</wgt>
  <wgt id="814">4.1366e-12</wgt>
  <wgt id="815">3.67446e-12</wgt>
  <wgt id="816">3.78955e-12</wgt>
  <wgt id="817">5.68748e-12</wgt>
  <wgt id="818">6.91187e-12</wgt>
  <wgt id="819">3.79559e-12</wgt>
  <wgt id="820">5.38392e-12</wgt>
  <wgt id="821">6.69364e-12</wgt>
  <wgt id="822">4.51418e-12</wgt>
  <wgt id="823">6.982e-12</wgt>
  <wgt id="824">8.39589e-12</wgt>
  <wgt id="825">3.13636e-12</wgt>
  <wgt id="826">6.72097e-12</wgt>
  <wgt id="827">2.72993e-12</wgt>
  <wgt id="828">7.23087e-12</wgt>
  <wgt id="829">5.79341e-12</wgt>
  <wgt id="830">2.97031e-12</wgt>
  <wgt id="831">6.46048e-12</wgt>
  <wgt id="832">9.85245e-12</wgt>
  <wgt id="833">4.6628e-12</wgt>
  <wgt id="834">9.5564e-12</wgt>
  <wgt id="835">4.15412e-12</wgt>
  <wgt id="836">4.84299e-12</wgt>
  <wgt id="837">6.5524e-12</wgt>
  <wgt id="838">4.71627e-12</wgt>
  <wgt id="839">6.42239e-12</wgt>
  <wgt id="840">4.88083e-12</wgt>
  <wgt id="841">7.68796e-12</wgt>
  <wgt id="842">5.43019e-12</wgt>
  <wgt id="843">5.98268e-12</wgt>
  <wgt id="844">6.13705e-12</wgt>
  <wgt id="845">9.5322e-12</wgt>
  <wgt id="846">5.80545e-12</wgt>
  <wgt id="847">5.94158e-12</wgt>
  <wgt id="848">3.82503e-12</wgt>
  <wgt id="849">6.01392e-12</wgt>
  <wgt id="850">8.2775e-12</wgt>
  <wgt id="851">6.52385e-12</wgt>
  <wgt id="852">3.40868e-12</wgt>
  <wgt id="853">6.75989e-12</wgt>
  <wgt id="854">7.58864e-12</wgt>
  <wgt id="855">6.81832e-12</wgt>
  <wgt id="856">2.96225e-12</wgt>
  <wgt id="857">5.0902e-12</wgt>
  <wgt id="858">5.23499e-12</wgt>
  <wgt id="859">5.37641e-12</wgt>
  <wgt id="860">6.96713e-12</wgt>
  <wgt id="861">4.74739e-12</wgt>
  <wgt id="862">5.71474e-12</wgt>
  <wgt id="863">6.37357e-12</wgt>
  <wgt id="864">5.85653e-12</wgt>
  <wgt id="865">8.80686e-12</wgt>
  <wgt id="866">9.77625e-12</wgt>
  <wgt id="867">5.72302e-12</wgt>
  <wgt id="868">5.72285e-12</wgt>
  <wgt id="869">3.52387e-12</wgt>
  <wgt id="870">4.01311e-12</wgt>
  <wgt id="871">3.96025e-12</wgt>
  <wgt id="872">7.71354e-12</wgt>
  <wgt id="873">4.53747e-12</wgt>
  <wgt id="874">6.16271e-12</wgt>
  <wgt id="875">4.50106e-12</wgt>
  <wgt id="876">7.45086e-12</wgt>
  <wgt id="877">6.40881e-12</wgt>
  <wgt id="878">4.50941e-12</wgt>
  <wgt id="879">8.20909e-12</wgt>
  <wgt id="880">8.3091e-12</wgt>
  <wgt id="881">8.86548e-12</wgt>
  <wgt id="882">8.14913e-12</wgt>
  <wgt id="883">8.22739e-12</wgt>
  <wgt id="884">8.11385e-12</wgt>
  <wgt id="885">8.5793e-12</wgt>
  <wgt id="886">7.75198e-12</wgt>
  <wgt id="887">8.59418e-12</wgt>
  <wgt id="888">8.1122e-12</wgt>
  <wgt id="889">8.14251e-12</wgt>
  <wgt id="890">8.48705e-12</wgt>
  <wgt id="891">7.99657e-12</wgt>
  <wgt id="892">8.58042e-12</wgt>
  <wgt id="893">8.4358e-12</wgt>
  <wgt id="894">8.48061e-12</wgt>
  <wgt id="895">8.05379e-12</wgt>
  <wgt id="896">1.04313e-11</wgt>
  <wgt id="897">8.93089e-12</wgt>
  <wgt id="898">7.80648e-12</wgt>
  <wgt id="899">7.91908e-12</wgt>
  <wgt id="900">7.6033e-12</wgt>
  <wgt id="901">6.99646e-12</wgt>
  <wgt id="902">7.07146e-12</wgt>
  <wgt id="903">7.24424e-12</wgt>
  <wgt id="904">8.20049e-12</wgt>
  <wgt id="905">8.00982e-12</wgt>
  <wgt id="906">9.88545e-12</wgt>
  <wgt id="907">9.1798e-12</wgt>
  <wgt id="908">9.09617e-12</wgt>
  <wgt id="909">7.74691e-12</wgt>
  <wgt id="910">7.75334e-12</wgt>
  <wgt id="911">7.93623e-12</wgt>
  <wgt id="912">7.97797e-12</wgt>
  <wgt id="913">7.20414e-12</wgt>
  <wgt id="914">8.47483e-12</wgt>
  <wgt id="915">7.78192e-12</wgt>
  <wgt id="916">8.84993e-12</wgt>
  <wgt id="917">7.57805e-12</wgt>
  <wgt id="918">7.93733e-12</wgt>
  <wgt id="919">7.91252e-12</wgt>
  <wgt id="920">7.35586e-12</wgt>
  <wgt id="921">8.38265e-12</wgt>
  <wgt id="922">7.46422e-12</wgt>
  <wgt id="923">8.20428e-12</wgt>
  <wgt id="924">7.11432e-12</wgt>
  <wgt id="925">6.75123e-12</wgt>
  <wgt id="926">9.05935e-12</wgt>
  <wgt id="927">8.80721e-12</wgt>
  <wgt id="928">8.57458e-12</wgt>
  <wgt id="929">8.18213e-12</wgt>
  <wgt id="930">8.17371e-12</wgt>
  <wgt id="931">7.97021e-12</wgt>
  <wgt id="932">7.77162e-12</wgt>
  <wgt id="933">8.97903e-12</wgt>
  <wgt id="934">8.05489e-12</wgt>
  <wgt id="935">9.38379e-12</wgt>
  <wgt id="936">7.771e-12</wgt>
  <wgt id="937">8.44512e-12</wgt>
  <wgt id="938">8.28792e-12</wgt>
  <wgt id="939">7.73433e-12</wgt>
  <wgt id="940">7.94217e-12</wgt>
  <wgt id="941">7.83473e-12</wgt>
  <wgt id="942">8.73244e-12</wgt>
  <wgt id="943">9.48267e-12</wgt>
  <wgt id="944">8.13328e-12</wgt>
  <wgt id="945">8.0207e-12</wgt>
  <wgt id="946">7.57971e-12</wgt>
  <wgt id="947">8.04809e-12</wgt>
  <wgt id="948">8.8111e-12</wgt>
  <wgt id="949">9.04029e-12</wgt>
  <wgt id="950">6.98326e-12</wgt>
  <wgt id="951">8.00453e-12</wgt>
  <wgt id="952">8.51442e-12</wgt>
  <wgt id="953">8.8124e-12</wgt>
  <wgt id="954">8.28211e-12</wgt>
  <wgt id="955">7.44028e-12</wgt>
  <wgt id="956">7.47836e-12</wgt>
  <wgt id="957">8.57824e-12</wgt>
  <wgt id="958">8.08552e-12</wgt>
  <wgt id="959">8.03581e-12</wgt>
  <wgt id="960">7.25376e-12</wgt>
  <wgt id="961">8.03633e-12</wgt>
  <wgt id="962">8.98258e-12</wgt>
  <wgt id="963">7.98795e-12</wgt>
  <wgt id="964">8.92789e-12</wgt>
  <wgt id="965">8.96624e-12</wgt>
  <wgt id="966">8.28452e-12</wgt>
  <wgt id="967">8.67608e-12</wgt>
  <wgt id="968">8.3233e-12</wgt>
  <wgt id="969">8.26739e-12</wgt>
  <wgt id="970">8.36566e-12</wgt>
  <wgt id="971">7.55006e-12</wgt>
  <wgt id="972">8.67318e-12</wgt>
  <wgt id="973">7.87673e-12</wgt>
  <wgt id="974">9.90918e-12</wgt>
  <wgt id="975">7.95117e-12</wgt>
  <wgt id="976">8.18643e-12</wgt>
  <wgt id="977">6.68778e-12</wgt>
  <wgt id="978">8.59909e-12</wgt>
  <wgt id="979">9.17663e-12</wgt>
  <wgt id="980">8.16163e-12</wgt>
  <wgt id="981">8.33859e-12</wgt>
  <wgt id="982">7.94841e-12</wgt>
</rwgt>
</event>
<event>
 5   1  0.5790000E-11  0.1436772E+04  0.7818608E-02  0.8118965E-01
       21   -1    0    0  502  501  0.00000000000E+00  0.00000000000E+00  0.10853464057E+04  0.10853464057E+04  0.00000000000E+00 0.  1.
       21   -1    0    0  501  502 -0.00000000000E+00 -0.00000000000E+00 -0.47549674186E+03  0.47549674186E+03  0.00000000000E+00 0. -1.
       39    2    1    2    0    0  0.00000000000E+00  0.00000000000E+00  0.60984966385E+03  0.15608431476E+04  0.14367723267E+04 0.  0.
       25    1    3    3    0    0  0.38400764305E+02 -0.68934349408E+03  0.47246513943E+03  0.84588260385E+03  0.12500000000E+03 0.  0.
       25    1    3    3    0    0 -0.38400764305E+02  0.68934349408E+03  0.13738452443E+03  0.71496054372E+03  0.12500000000E+03 0.  0.
<mgrwt>
<rscale>  0 0.14367723E+04</rscale>
<asrwt>0</asrwt>
<pdfrwt beam="1">  1       21 0.16697637E+00 0.14367723E+04</pdfrwt>
<pdfrwt beam="2">  1       21 0.73153345E-01 0.14367723E+04</pdfrwt>
<totfact> 0.22844986E+02</totfact>
</mgrwt>
<rwgt>
  <wgt id="1">5.79e-12</wgt>
  <wgt id="2">5.15418e-12</wgt>
  <wgt id="3">6.55984e-12</wgt>
  <wgt id="4">5.79e-12</wgt>
  <wgt id="5">5.15418e-12</wgt>
  <wgt id="6">6.55984e-12</wgt>
  <wgt id="7">5.79e-12</wgt>
  <wgt id="8">5.15418e-12</wgt>
  <wgt id="9">6.55984e-12</wgt>
  <wgt id="10">5.79181e-12</wgt>
  <wgt id="11">5.78756e-12</wgt>
  <wgt id="12">5.78423e-12</wgt>
  <wgt id="13">5.77693e-12</wgt>
  <wgt id="14">5.81086e-12</wgt>
  <wgt id="15">5.79824e-12</wgt>
  <wgt id="16">5.78042e-12</wgt>
  <wgt id="17">5.80164e-12</wgt>
  <wgt id="18">5.78789e-12</wgt>
  <wgt id="19">5.79973e-12</wgt>
  <wgt id="20">5.78013e-12</wgt>
  <wgt id="21">5.76348e-12</wgt>
  <wgt id="22">5.77327e-12</wgt>
  <wgt id="23">5.74579e-12</wgt>
  <wgt id="24">5.76807e-12</wgt>
  <wgt id="25">5.77793e-12</wgt>
  <wgt id="26">5.81097e-12</wgt>
  <wgt id="27">5.7889e-12</wgt>
  <wgt id="28">5.76389e-12</wgt>
  <wgt id="29">5.7979e-12</wgt>
  <wgt id="30">5.77169e-12</wgt>
  <wgt id="31">5.807e-12</wgt>
  <wgt id="32">5.77291e-12</wgt>
  <wgt id="33">5.79837e-12</wgt>
  <wgt id="34">5.77341e-12</wgt>
  <wgt id="35">5.77927e-12</wgt>
  <wgt id="36">5.80167e-12</wgt>
  <wgt id="37">5.77834e-12</wgt>
  <wgt id="38">5.78021e-12</wgt>
  <wgt id="39">5.84874e-12</wgt>
  <wgt id="40">5.80155e-12</wgt>
  <wgt id="41">5.79309e-12</wgt>
  <wgt id="42">5.80602e-12</wgt>
  <wgt id="43">5.79862e-12</wgt>
  <wgt id="44">5.78417e-12</wgt>
  <wgt id="45">5.79257e-12</wgt>
  <wgt id="46">5.79205e-12</wgt>
  <wgt id="47">5.78317e-12</wgt>
  <wgt id="48">5.79031e-12</wgt>
  <wgt id="49">5.80229e-12</wgt>
  <wgt id="50">5.81236e-12</wgt>
  <wgt id="51">5.80164e-12</wgt>
  <wgt id="52">5.76961e-12</wgt>
  <wgt id="53">5.77456e-12</wgt>
  <wgt id="54">5.79051e-12</wgt>
  <wgt id="55">5.78742e-12</wgt>
  <wgt id="56">5.80691e-12</wgt>
  <wgt id="57">5.80935e-12</wgt>
  <wgt id="58">5.76516e-12</wgt>
  <wgt id="59">5.77978e-12</wgt>
  <wgt id="60">5.79555e-12</wgt>
  <wgt id="61">5.79725e-12</wgt>
  <wgt id="62">5.79284e-12</wgt>
  <wgt id="63">5.79945e-12</wgt>
  <wgt id="64">5.79821e-12</wgt>
  <wgt id="65">5.79442e-12</wgt>
  <wgt id="66">5.7883e-12</wgt>
  <wgt id="67">5.79173e-12</wgt>
  <wgt id="68">5.78883e-12</wgt>
  <wgt id="69">5.7889e-12</wgt>
  <wgt id="70">5.78975e-12</wgt>
  <wgt id="71">5.7883e-12</wgt>
  <wgt id="72">5.79016e-12</wgt>
  <wgt id="73">5.7937e-12</wgt>
  <wgt id="74">5.79228e-12</wgt>
  <wgt id="75">5.7953e-12</wgt>
  <wgt id="76">5.79888e-12</wgt>
  <wgt id="77">5.79188e-12</wgt>
  <wgt id="78">5.79413e-12</wgt>
  <wgt id="79">5.79641e-12</wgt>
  <wgt id="80">5.77844e-12</wgt>
  <wgt id="81">5.78571e-12</wgt>
  <wgt id="82">5.79203e-12</wgt>
  <wgt id="83">5.78205e-12</wgt>
  <wgt id="84">5.78381e-12</wgt>
  <wgt id="85">5.78847e-12</wgt>
  <wgt id="86">5.79577e-12</wgt>
  <wgt id="87">5.77919e-12</wgt>
  <wgt id="88">5.79494e-12</wgt>
  <wgt id="89">5.79517e-12</wgt>
  <wgt id="90">5.79438e-12</wgt>
  <wgt id="91">5.79419e-12</wgt>
  <wgt id="92">5.79728e-12</wgt>
  <wgt id="93">5.79143e-12</wgt>
  <wgt id="94">5.78982e-12</wgt>
  <wgt id="95">5.79256e-12</wgt>
  <wgt id="96">5.79363e-12</wgt>
  <wgt id="97">5.78861e-12</wgt>
  <wgt id="98">5.79406e-12</wgt>
  <wgt id="99">5.79113e-12</wgt>
  <wgt id="100">5.79517e-12</wgt>
  <wgt id="101">5.79103e-12</wgt>
  <wgt id="102">5.78975e-12</wgt>
  <wgt id="103">5.79502e-12</wgt>
  <wgt id="104">5.78954e-12</wgt>
  <wgt id="105">5.79393e-12</wgt>
  <wgt id="106">5.7883e-12</wgt>
  <wgt id="107">5.79976e-12</wgt>
  <wgt id="108">5.78833e-12</wgt>
  <wgt id="109">5.79424e-12</wgt>
  <wgt id="110">5.79061e-12</wgt>
  <wgt id="111">5.8565e-12</wgt>
  <wgt id="112">5.76805e-12</wgt>
  <wgt id="113">7.03713e-12</wgt>
  <wgt id="114">7.38091e-12</wgt>
  <wgt id="115">7.26534e-12</wgt>
  <wgt id="116">8.58822e-12</wgt>
  <wgt id="117">5.97289e-12</wgt>
  <wgt id="118">5.98351e-12</wgt>
  <wgt id="119">5.96679e-12</wgt>
  <wgt id="120">5.974e-12</wgt>
  <wgt id="121">5.97206e-12</wgt>
  <wgt id="122">5.96121e-12</wgt>
  <wgt id="123">5.98867e-12</wgt>
  <wgt id="124">5.96321e-12</wgt>
  <wgt id="125">5.97886e-12</wgt>
  <wgt id="126">5.97702e-12</wgt>
  <wgt id="127">5.97008e-12</wgt>
  <wgt id="128">5.99119e-12</wgt>
  <wgt id="129">5.95458e-12</wgt>
  <wgt id="130">6.00086e-12</wgt>
  <wgt id="131">5.9438e-12</wgt>
  <wgt id="132">5.84801e-12</wgt>
  <wgt id="133">6.11624e-12</wgt>
  <wgt id="134">5.92595e-12</wgt>
  <wgt id="135">6.00888e-12</wgt>
  <wgt id="136">6.02526e-12</wgt>
  <wgt id="137">5.90899e-12</wgt>
  <wgt id="138">6.13432e-12</wgt>
  <wgt id="139">5.81284e-12</wgt>
  <wgt id="140">5.9303e-12</wgt>
  <wgt id="141">6.00589e-12</wgt>
  <wgt id="142">5.97339e-12</wgt>
  <wgt id="143">5.97756e-12</wgt>
  <wgt id="144">5.91127e-12</wgt>
  <wgt id="145">6.02217e-12</wgt>
  <wgt id="146">5.98951e-12</wgt>
  <wgt id="147">5.96159e-12</wgt>
  <wgt id="148">5.98456e-12</wgt>
  <wgt id="149">5.97205e-12</wgt>
  <wgt id="150">6.01466e-12</wgt>
  <wgt id="151">5.95332e-12</wgt>
  <wgt id="152">5.97342e-12</wgt>
  <wgt id="153">5.97269e-12</wgt>
  <wgt id="154">6.03503e-12</wgt>
  <wgt id="155">5.90025e-12</wgt>
  <wgt id="156">5.9973e-12</wgt>
  <wgt id="157">5.91877e-12</wgt>
  <wgt id="158">7.21201e-12</wgt>
  <wgt id="159">7.24144e-12</wgt>
  <wgt id="160">7.18813e-12</wgt>
  <wgt id="161">7.20179e-12</wgt>
  <wgt id="162">7.22294e-12</wgt>
  <wgt id="163">7.20759e-12</wgt>
  <wgt id="164">7.21807e-12</wgt>
  <wgt id="165">7.21523e-12</wgt>
  <wgt id="166">7.2094e-12</wgt>
  <wgt id="167">7.20628e-12</wgt>
  <wgt id="168">7.2197e-12</wgt>
  <wgt id="169">7.17891e-12</wgt>
  <wgt id="170">7.23228e-12</wgt>
  <wgt id="171">7.20852e-12</wgt>
  <wgt id="172">7.21655e-12</wgt>
  <wgt id="173">7.21436e-12</wgt>
  <wgt id="174">7.21091e-12</wgt>
  <wgt id="175">7.06609e-12</wgt>
  <wgt id="176">7.39835e-12</wgt>
  <wgt id="177">7.23438e-12</wgt>
  <wgt id="178">7.19024e-12</wgt>
  <wgt id="179">7.41265e-12</wgt>
  <wgt id="180">6.88648e-12</wgt>
  <wgt id="181">7.06821e-12</wgt>
  <wgt id="182">7.30549e-12</wgt>
  <wgt id="183">7.12316e-12</wgt>
  <wgt id="184">7.2557e-12</wgt>
  <wgt id="185">7.16727e-12</wgt>
  <wgt id="186">7.2583e-12</wgt>
  <wgt id="187">7.15663e-12</wgt>
  <wgt id="188">7.3089e-12</wgt>
  <wgt id="189">7.18168e-12</wgt>
  <wgt id="190">7.22386e-12</wgt>
  <wgt id="191">7.22596e-12</wgt>
  <wgt id="192">7.20319e-12</wgt>
  <wgt id="193">7.27505e-12</wgt>
  <wgt id="194">7.18005e-12</wgt>
  <wgt id="195">7.18513e-12</wgt>
  <wgt id="196">7.32584e-12</wgt>
  <wgt id="197">7.23607e-12</wgt>
  <wgt id="198">7.20605e-12</wgt>
  <wgt id="199">7.21201e-12</wgt>
  <wgt id="200">7.25889e-12</wgt>
  <wgt id="201">7.24078e-12</wgt>
  <wgt id="202">7.2242e-12</wgt>
  <wgt id="203">7.19723e-12</wgt>
  <wgt id="204">7.18548e-12</wgt>
  <wgt id="205">7.17528e-12</wgt>
  <wgt id="206">7.16427e-12</wgt>
  <wgt id="207">7.20315e-12</wgt>
  <wgt id="208">7.12595e-12</wgt>
  <wgt id="209">7.17059e-12</wgt>
  <wgt id="210">7.16011e-12</wgt>
  <wgt id="211">7.16456e-12</wgt>
  <wgt id="212">7.16403e-12</wgt>
  <wgt id="213">7.16402e-12</wgt>
  <wgt id="214">7.16543e-12</wgt>
  <wgt id="215">7.16553e-12</wgt>
  <wgt id="216">7.1632e-12</wgt>
  <wgt id="217">7.17734e-12</wgt>
  <wgt id="218">7.15426e-12</wgt>
  <wgt id="219">7.14462e-12</wgt>
  <wgt id="220">7.17602e-12</wgt>
  <wgt id="221">7.1625e-12</wgt>
  <wgt id="222">7.16798e-12</wgt>
  <wgt id="223">6.8866e-12</wgt>
  <wgt id="224">7.41396e-12</wgt>
  <wgt id="225">7.10757e-12</wgt>
  <wgt id="226">7.23468e-12</wgt>
  <wgt id="227">7.11522e-12</wgt>
  <wgt id="228">7.18573e-12</wgt>
  <wgt id="229">7.09e-12</wgt>
  <wgt id="230">7.20055e-12</wgt>
  <wgt id="231">7.31557e-12</wgt>
  <wgt id="232">7.03774e-12</wgt>
  <wgt id="233">7.13732e-12</wgt>
  <wgt id="234">7.2015e-12</wgt>
  <wgt id="235">7.13328e-12</wgt>
  <wgt id="236">7.22074e-12</wgt>
  <wgt id="237">7.12664e-12</wgt>
  <wgt id="238">7.17827e-12</wgt>
  <wgt id="239">7.14418e-12</wgt>
  <wgt id="240">7.20265e-12</wgt>
  <wgt id="241">7.11631e-12</wgt>
  <wgt id="242">7.22066e-12</wgt>
  <wgt id="243">7.16131e-12</wgt>
  <wgt id="244">7.2279e-12</wgt>
  <wgt id="245">7.15637e-12</wgt>
  <wgt id="246">7.21882e-12</wgt>
  <wgt id="247">7.16427e-12</wgt>
  <wgt id="248">7.21283e-12</wgt>
  <wgt id="249">7.19414e-12</wgt>
  <wgt id="250">7.17674e-12</wgt>
  <wgt id="251">7.14988e-12</wgt>
  <wgt id="252">7.13804e-12</wgt>
  <wgt id="253">7.12849e-12</wgt>
  <wgt id="254">6.9923e-12</wgt>
  <wgt id="255">6.99828e-12</wgt>
  <wgt id="256">6.98618e-12</wgt>
  <wgt id="257">6.99882e-12</wgt>
  <wgt id="258">6.98745e-12</wgt>
  <wgt id="259">7.0366e-12</wgt>
  <wgt id="260">6.94924e-12</wgt>
  <wgt id="261">6.98924e-12</wgt>
  <wgt id="262">6.99661e-12</wgt>
  <wgt id="263">6.99204e-12</wgt>
  <wgt id="264">6.99237e-12</wgt>
  <wgt id="265">6.98928e-12</wgt>
  <wgt id="266">6.99891e-12</wgt>
  <wgt id="267">6.99336e-12</wgt>
  <wgt id="268">6.9906e-12</wgt>
  <wgt id="269">7.00332e-12</wgt>
  <wgt id="270">6.98519e-12</wgt>
  <wgt id="271">6.98002e-12</wgt>
  <wgt id="272">7.00631e-12</wgt>
  <wgt id="273">6.97798e-12</wgt>
  <wgt id="274">7.00316e-12</wgt>
  <wgt id="275">6.97397e-12</wgt>
  <wgt id="276">7.0111e-12</wgt>
  <wgt id="277">6.96059e-12</wgt>
  <wgt id="278">7.02226e-12</wgt>
  <wgt id="279">6.90698e-12</wgt>
  <wgt id="280">7.09834e-12</wgt>
  <wgt id="281">6.97482e-12</wgt>
  <wgt id="282">6.98982e-12</wgt>
  <wgt id="283">6.85812e-12</wgt>
  <wgt id="284">7.15499e-12</wgt>
  <wgt id="285">6.75624e-12</wgt>
  <wgt id="286">7.1824e-12</wgt>
  <wgt id="287">7.00861e-12</wgt>
  <wgt id="288">6.97112e-12</wgt>
  <wgt id="289">7.02577e-12</wgt>
  <wgt id="290">6.90993e-12</wgt>
  <wgt id="291">6.98327e-12</wgt>
  <wgt id="292">6.9948e-12</wgt>
  <wgt id="293">6.95547e-12</wgt>
  <wgt id="294">7.029e-12</wgt>
  <wgt id="295">6.89456e-12</wgt>
  <wgt id="296">7.11015e-12</wgt>
  <wgt id="297">7.00872e-12</wgt>
  <wgt id="298">6.99717e-12</wgt>
  <wgt id="299">6.97787e-12</wgt>
  <wgt id="300">7.03031e-12</wgt>
  <wgt id="301">6.99057e-12</wgt>
  <wgt id="302">7.05975e-12</wgt>
  <wgt id="303">6.98034e-12</wgt>
  <wgt id="304">7.00077e-12</wgt>
  <wgt id="305">7.06136e-12</wgt>
  <wgt id="306">7.06765e-12</wgt>
  <wgt id="307">7.05438e-12</wgt>
  <wgt id="308">7.06872e-12</wgt>
  <wgt id="309">7.05668e-12</wgt>
  <wgt id="310">7.10788e-12</wgt>
  <wgt id="311">7.01808e-12</wgt>
  <wgt id="312">7.05507e-12</wgt>
  <wgt id="313">7.06824e-12</wgt>
  <wgt id="314">7.06091e-12</wgt>
  <wgt id="315">7.06143e-12</wgt>
  <wgt id="316">7.0587e-12</wgt>
  <wgt id="317">7.06728e-12</wgt>
  <wgt id="318">7.06363e-12</wgt>
  <wgt id="319">7.05698e-12</wgt>
  <wgt id="320">7.07207e-12</wgt>
  <wgt id="321">7.05572e-12</wgt>
  <wgt id="322">7.0451e-12</wgt>
  <wgt id="323">7.08068e-12</wgt>
  <wgt id="324">7.0504e-12</wgt>
  <wgt id="325">7.07058e-12</wgt>
  <wgt id="326">7.0456e-12</wgt>
  <wgt id="327">7.08118e-12</wgt>
  <wgt id="328">7.02818e-12</wgt>
  <wgt id="329">7.08163e-12</wgt>
  <wgt id="330">7.20643e-12</wgt>
  <wgt id="331">6.9214e-12</wgt>
  <wgt id="332">7.0472e-12</wgt>
  <wgt id="333">7.0591e-12</wgt>
  <wgt id="334">6.95465e-12</wgt>
  <wgt id="335">7.19232e-12</wgt>
  <wgt id="336">6.88787e-12</wgt>
  <wgt id="337">7.26701e-12</wgt>
  <wgt id="338">7.11848e-12</wgt>
  <wgt id="339">7.00783e-12</wgt>
  <wgt id="340">7.09404e-12</wgt>
  <wgt id="341">6.97381e-12</wgt>
  <wgt id="342">7.05706e-12</wgt>
  <wgt id="343">7.05689e-12</wgt>
  <wgt id="344">7.02638e-12</wgt>
  <wgt id="345">7.10166e-12</wgt>
  <wgt id="346">6.95976e-12</wgt>
  <wgt id="347">7.17726e-12</wgt>
  <wgt id="348">7.08413e-12</wgt>
  <wgt id="349">7.06023e-12</wgt>
  <wgt id="350">7.042e-12</wgt>
  <wgt id="351">7.10952e-12</wgt>
  <wgt id="352">7.06034e-12</wgt>
  <wgt id="353">7.13739e-12</wgt>
  <wgt id="354">7.04348e-12</wgt>
  <wgt id="355">7.07599e-12</wgt>
  <wgt id="356">6.9923e-12</wgt>
  <wgt id="357">7.1036e-12</wgt>
  <wgt id="358">7.06136e-12</wgt>
  <wgt id="359">7.03025e-12</wgt>
  <wgt id="360">6.98672e-12</wgt>
  <wgt id="361">7.00132e-12</wgt>
  <wgt id="362">7.07973e-12</wgt>
  <wgt id="363">7.06937e-12</wgt>
  <wgt id="364">7.05668e-12</wgt>
  <wgt id="365">7.04152e-12</wgt>
  <wgt id="366">7.02245e-12</wgt>
  <wgt id="367">6.98194e-12</wgt>
  <wgt id="368">6.95975e-12</wgt>
  <wgt id="369">6.93552e-12</wgt>
  <wgt id="370">7.00132e-12</wgt>
  <wgt id="371">7.02898e-12</wgt>
  <wgt id="372">7.0141e-12</wgt>
  <wgt id="373">6.99098e-12</wgt>
  <wgt id="374">6.98484e-12</wgt>
  <wgt id="375">7.22887e-12</wgt>
  <wgt id="376">7.22838e-12</wgt>
  <wgt id="377">7.22899e-12</wgt>
  <wgt id="378">7.25346e-12</wgt>
  <wgt id="379">7.20435e-12</wgt>
  <wgt id="380">7.24976e-12</wgt>
  <wgt id="381">7.22002e-12</wgt>
  <wgt id="382">7.25072e-12</wgt>
  <wgt id="383">7.20698e-12</wgt>
  <wgt id="384">7.2326e-12</wgt>
  <wgt id="385">7.22494e-12</wgt>
  <wgt id="386">7.2436e-12</wgt>
  <wgt id="387">7.22255e-12</wgt>
  <wgt id="388">7.22452e-12</wgt>
  <wgt id="389">7.23396e-12</wgt>
  <wgt id="390">7.24133e-12</wgt>
  <wgt id="391">7.21515e-12</wgt>
  <wgt id="392">7.2038e-12</wgt>
  <wgt id="393">7.2428e-12</wgt>
  <wgt id="394">7.23695e-12</wgt>
  <wgt id="395">7.21736e-12</wgt>
  <wgt id="396">7.22357e-12</wgt>
  <wgt id="397">7.2321e-12</wgt>
  <wgt id="398">7.22329e-12</wgt>
  <wgt id="399">7.23374e-12</wgt>
  <wgt id="400">7.22574e-12</wgt>
  <wgt id="401">7.23413e-12</wgt>
  <wgt id="402">7.19452e-12</wgt>
  <wgt id="403">7.23748e-12</wgt>
  <wgt id="404">7.33335e-12</wgt>
  <wgt id="405">6.97298e-12</wgt>
  <wgt id="406">7.14887e-12</wgt>
  <wgt id="407">7.39756e-12</wgt>
  <wgt id="408">7.2682e-12</wgt>
  <wgt id="409">7.15083e-12</wgt>
  <wgt id="410">7.09661e-12</wgt>
  <wgt id="411">7.2866e-12</wgt>
  <wgt id="412">7.2203e-12</wgt>
  <wgt id="413">7.23661e-12</wgt>
  <wgt id="414">7.17483e-12</wgt>
  <wgt id="415">7.27009e-12</wgt>
  <wgt id="416">7.33136e-12</wgt>
  <wgt id="417">7.08503e-12</wgt>
  <wgt id="418">7.23592e-12</wgt>
  <wgt id="419">7.1892e-12</wgt>
  <wgt id="420">7.22788e-12</wgt>
  <wgt id="421">7.24368e-12</wgt>
  <wgt id="422">7.2525e-12</wgt>
  <wgt id="423">7.21991e-12</wgt>
  <wgt id="424">7.27104e-12</wgt>
  <wgt id="425">7.20822e-12</wgt>
  <wgt id="426">7.22887e-12</wgt>
  <wgt id="427">7.21838e-12</wgt>
  <wgt id="428">7.28665e-12</wgt>
  <wgt id="429">7.25289e-12</wgt>
  <wgt id="430">7.38867e-12</wgt>
  <wgt id="431">7.36296e-12</wgt>
  <wgt id="432">7.33663e-12</wgt>
  <wgt id="433">7.3112e-12</wgt>
  <wgt id="434">7.28232e-12</wgt>
  <wgt id="435">7.21592e-12</wgt>
  <wgt id="436">7.17956e-12</wgt>
  <wgt id="437">7.14683e-12</wgt>
  <wgt id="438">7.25289e-12</wgt>
  <wgt id="439">7.2752e-12</wgt>
  <wgt id="440">7.26262e-12</wgt>
  <wgt id="441">7.24496e-12</wgt>
  <wgt id="442">7.23806e-12</wgt>
  <wgt id="443">7.25448e-12</wgt>
  <wgt id="444">7.27484e-12</wgt>
  <wgt id="445">7.274e-12</wgt>
  <wgt id="446">7.21084e-12</wgt>
  <wgt id="447">7.25321e-12</wgt>
  <wgt id="448">7.13319e-12</wgt>
  <wgt id="449">7.32567e-12</wgt>
  <wgt id="450">7.26055e-12</wgt>
  <wgt id="451">7.24749e-12</wgt>
  <wgt id="452">7.34171e-12</wgt>
  <wgt id="453">7.27462e-12</wgt>
  <wgt id="454">7.04077e-12</wgt>
  <wgt id="455">7.27311e-12</wgt>
  <wgt id="456">7.14709e-12</wgt>
  <wgt id="457">7.25976e-12</wgt>
  <wgt id="458">7.33258e-12</wgt>
  <wgt id="459">7.29361e-12</wgt>
  <wgt id="460">7.31442e-12</wgt>
  <wgt id="461">7.18986e-12</wgt>
  <wgt id="462">7.2469e-12</wgt>
  <wgt id="463">7.20349e-12</wgt>
  <wgt id="464">7.24553e-12</wgt>
  <wgt id="465">7.28443e-12</wgt>
  <wgt id="466">7.21046e-12</wgt>
  <wgt id="467">7.22637e-12</wgt>
  <wgt id="468">7.24756e-12</wgt>
  <wgt id="469">7.26041e-12</wgt>
  <wgt id="470">7.20791e-12</wgt>
  <wgt id="471">7.22853e-12</wgt>
  <wgt id="472">7.26554e-12</wgt>
  <wgt id="473">7.1804e-12</wgt>
  <wgt id="474">5.79e-12</wgt>
  <wgt id="475">6.04938e-12</wgt>
  <wgt id="476">5.68648e-12</wgt>
  <wgt id="477">5.68399e-12</wgt>
  <wgt id="478">5.83994e-12</wgt>
  <wgt id="479">5.78075e-12</wgt>
  <wgt id="480">5.9562e-12</wgt>
  <wgt id="481">5.67867e-12</wgt>
  <wgt id="482">5.62685e-12</wgt>
  <wgt id="483">5.66524e-12</wgt>
  <wgt id="484">6.09954e-12</wgt>
  <wgt id="485">5.79066e-12</wgt>
  <wgt id="486">5.87525e-12</wgt>
  <wgt id="487">5.79206e-12</wgt>
  <wgt id="488">5.85582e-12</wgt>
  <wgt id="489">5.56971e-12</wgt>
  <wgt id="490">5.6736e-12</wgt>
  <wgt id="491">5.78613e-12</wgt>
  <wgt id="492">5.68852e-12</wgt>
  <wgt id="493">5.62124e-12</wgt>
  <wgt id="494">5.63548e-12</wgt>
  <wgt id="495">5.79645e-12</wgt>
  <wgt id="496">5.59176e-12</wgt>
  <wgt id="497">5.63321e-12</wgt>
  <wgt id="498">5.84768e-12</wgt>
  <wgt id="499">5.68218e-12</wgt>
  <wgt id="500">5.67876e-12</wgt>
  <wgt id="501">5.87001e-12</wgt>
  <wgt id="502">5.69206e-12</wgt>
  <wgt id="503">5.78923e-12</wgt>
  <wgt id="504">5.77202e-12</wgt>
  <wgt id="505">5.88585e-12</wgt>
  <wgt id="506">5.83793e-12</wgt>
  <wgt id="507">5.73793e-12</wgt>
  <wgt id="508">5.93703e-12</wgt>
  <wgt id="509">5.74216e-12</wgt>
  <wgt id="510">5.8513e-12</wgt>
  <wgt id="511">5.64142e-12</wgt>
  <wgt id="512">5.82137e-12</wgt>
  <wgt id="513">5.85549e-12</wgt>
  <wgt id="514">5.77817e-12</wgt>
  <wgt id="515">5.75454e-12</wgt>
  <wgt id="516">5.95664e-12</wgt>
  <wgt id="517">5.90674e-12</wgt>
  <wgt id="518">5.95114e-12</wgt>
  <wgt id="519">5.73561e-12</wgt>
  <wgt id="520">5.80826e-12</wgt>
  <wgt id="521">5.95459e-12</wgt>
  <wgt id="522">5.95966e-12</wgt>
  <wgt id="523">5.77721e-12</wgt>
  <wgt id="524">5.84486e-12</wgt>
  <wgt id="525">5.85712e-12</wgt>
  <wgt id="526">5.74619e-12</wgt>
  <wgt id="527">5.8574e-12</wgt>
  <wgt id="528">5.74319e-12</wgt>
  <wgt id="529">5.79161e-12</wgt>
  <wgt id="530">5.81063e-12</wgt>
  <wgt id="531">5.70638e-12</wgt>
  <wgt id="532">5.97786e-12</wgt>
  <wgt id="533">5.54283e-12</wgt>
  <wgt id="534">5.77206e-12</wgt>
  <wgt id="535">5.81906e-12</wgt>
  <wgt id="536">5.81163e-12</wgt>
  <wgt id="537">5.78931e-12</wgt>
  <wgt id="538">5.90992e-12</wgt>
  <wgt id="539">5.67369e-12</wgt>
  <wgt id="540">5.82682e-12</wgt>
  <wgt id="541">5.76448e-12</wgt>
  <wgt id="542">5.66774e-12</wgt>
  <wgt id="543">5.81482e-12</wgt>
  <wgt id="544">5.99878e-12</wgt>
  <wgt id="545">5.69786e-12</wgt>
  <wgt id="546">5.6459e-12</wgt>
  <wgt id="547">5.69175e-12</wgt>
  <wgt id="548">5.58077e-12</wgt>
  <wgt id="549">5.76467e-12</wgt>
  <wgt id="550">5.85429e-12</wgt>
  <wgt id="551">5.86513e-12</wgt>
  <wgt id="552">5.68753e-12</wgt>
  <wgt id="553">5.76425e-12</wgt>
  <wgt id="554">6.14773e-12</wgt>
  <wgt id="555">5.93725e-12</wgt>
  <wgt id="556">5.6736e-12</wgt>
  <wgt id="557">5.87319e-12</wgt>
  <wgt id="558">5.65642e-12</wgt>
  <wgt id="559">5.66294e-12</wgt>
  <wgt id="560">6.13938e-12</wgt>
  <wgt id="561">5.66985e-12</wgt>
  <wgt id="562">5.89876e-12</wgt>
  <wgt id="563">5.77716e-12</wgt>
  <wgt id="564">5.87317e-12</wgt>
  <wgt id="565">5.71866e-12</wgt>
  <wgt id="566">5.81312e-12</wgt>
  <wgt id="567">5.7206e-12</wgt>
  <wgt id="568">5.8366e-12</wgt>
  <wgt id="569">5.84226e-12</wgt>
  <wgt id="570">5.7061e-12</wgt>
  <wgt id="571">6.23768e-12</wgt>
  <wgt id="572">5.74715e-12</wgt>
  <wgt id="573">5.59616e-12</wgt>
  <wgt id="574">5.64358e-12</wgt>
  <wgt id="575">6.1871e-12</wgt>
  <wgt id="576">6.10491e-12</wgt>
  <wgt id="577">6.48932e-12</wgt>
  <wgt id="578">6.27989e-12</wgt>
  <wgt id="579">6.2304e-12</wgt>
  <wgt id="580">6.29043e-12</wgt>
  <wgt id="581">6.50761e-12</wgt>
  <wgt id="582">6.13049e-12</wgt>
  <wgt id="583">6.24651e-12</wgt>
  <wgt id="584">6.16706e-12</wgt>
  <wgt id="585">6.17463e-12</wgt>
  <wgt id="586">6.0496e-12</wgt>
  <wgt id="587">6.2571e-12</wgt>
  <wgt id="588">6.16034e-12</wgt>
  <wgt id="589">6.1967e-12</wgt>
  <wgt id="590">6.21892e-12</wgt>
  <wgt id="591">6.42709e-12</wgt>
  <wgt id="592">5.97187e-12</wgt>
  <wgt id="593">6.12502e-12</wgt>
  <wgt id="594">6.50781e-12</wgt>
  <wgt id="595">6.1525e-12</wgt>
  <wgt id="596">6.37765e-12</wgt>
  <wgt id="597">5.98419e-12</wgt>
  <wgt id="598">6.20177e-12</wgt>
  <wgt id="599">6.45473e-12</wgt>
  <wgt id="600">6.17631e-12</wgt>
  <wgt id="601">6.03079e-12</wgt>
  <wgt id="602">6.08411e-12</wgt>
  <wgt id="603">6.11222e-12</wgt>
  <wgt id="604">6.24522e-12</wgt>
  <wgt id="605">6.39196e-12</wgt>
  <wgt id="606">6.12548e-12</wgt>
  <wgt id="607">6.12422e-12</wgt>
  <wgt id="608">6.1197e-12</wgt>
  <wgt id="609">5.91408e-12</wgt>
  <wgt id="610">5.93773e-12</wgt>
  <wgt id="611">6.23449e-12</wgt>
  <wgt id="612">6.52596e-12</wgt>
  <wgt id="613">6.24935e-12</wgt>
  <wgt id="614">6.24098e-12</wgt>
  <wgt id="615">6.12327e-12</wgt>
  <wgt id="616">6.57245e-12</wgt>
  <wgt id="617">6.31639e-12</wgt>
  <wgt id="618">6.20668e-12</wgt>
  <wgt id="619">6.21148e-12</wgt>
  <wgt id="620">6.29591e-12</wgt>
  <wgt id="621">6.24512e-12</wgt>
  <wgt id="622">6.2571e-12</wgt>
  <wgt id="623">6.32193e-12</wgt>
  <wgt id="624">6.15053e-12</wgt>
  <wgt id="625">6.12433e-12</wgt>
  <wgt id="626">6.04436e-12</wgt>
  <wgt id="627">6.02173e-12</wgt>
  <wgt id="628">6.2971e-12</wgt>
  <wgt id="629">6.1449e-12</wgt>
  <wgt id="630">5.99931e-12</wgt>
  <wgt id="631">6.15787e-12</wgt>
  <wgt id="632">6.06955e-12</wgt>
  <wgt id="633">6.1355e-12</wgt>
  <wgt id="634">6.18967e-12</wgt>
  <wgt id="635">6.17067e-12</wgt>
  <wgt id="636">6.25829e-12</wgt>
  <wgt id="637">6.17238e-12</wgt>
  <wgt id="638">6.05548e-12</wgt>
  <wgt id="639">6.16245e-12</wgt>
  <wgt id="640">6.22218e-12</wgt>
  <wgt id="641">6.2136e-12</wgt>
  <wgt id="642">6.02921e-12</wgt>
  <wgt id="643">6.1728e-12</wgt>
  <wgt id="644">5.96049e-12</wgt>
  <wgt id="645">6.17458e-12</wgt>
  <wgt id="646">6.22029e-12</wgt>
  <wgt id="647">6.09899e-12</wgt>
  <wgt id="648">6.23321e-12</wgt>
  <wgt id="649">6.22886e-12</wgt>
  <wgt id="650">6.08352e-12</wgt>
  <wgt id="651">6.3657e-12</wgt>
  <wgt id="652">6.17538e-12</wgt>
  <wgt id="653">6.00003e-12</wgt>
  <wgt id="654">6.09262e-12</wgt>
  <wgt id="655">6.10802e-12</wgt>
  <wgt id="656">6.13824e-12</wgt>
  <wgt id="657">6.34155e-12</wgt>
  <wgt id="658">6.21048e-12</wgt>
  <wgt id="659">6.02322e-12</wgt>
  <wgt id="660">6.29106e-12</wgt>
  <wgt id="661">6.14891e-12</wgt>
  <wgt id="662">6.16768e-12</wgt>
  <wgt id="663">6.19469e-12</wgt>
  <wgt id="664">6.13778e-12</wgt>
  <wgt id="665">6.18532e-12</wgt>
  <wgt id="666">6.20752e-12</wgt>
  <wgt id="667">6.36805e-12</wgt>
  <wgt id="668">6.14155e-12</wgt>
  <wgt id="669">6.31843e-12</wgt>
  <wgt id="670">6.21468e-12</wgt>
  <wgt id="671">6.09453e-12</wgt>
  <wgt id="672">5.97689e-12</wgt>
  <wgt id="673">6.15995e-12</wgt>
  <wgt id="674">6.05559e-12</wgt>
  <wgt id="675">6.0829e-12</wgt>
  <wgt id="676">7.38643e-12</wgt>
  <wgt id="677">7.55828e-12</wgt>
  <wgt id="678">7.62781e-12</wgt>
  <wgt id="679">7.30521e-12</wgt>
  <wgt id="680">7.11268e-12</wgt>
  <wgt id="681">7.63833e-12</wgt>
  <wgt id="682">7.44224e-12</wgt>
  <wgt id="683">7.35699e-12</wgt>
  <wgt id="684">7.58369e-12</wgt>
  <wgt id="685">7.19204e-12</wgt>
  <wgt id="686">7.49077e-12</wgt>
  <wgt id="687">7.39966e-12</wgt>
  <wgt id="688">7.37878e-12</wgt>
  <wgt id="689">7.58252e-12</wgt>
  <wgt id="690">7.65359e-12</wgt>
  <wgt id="691">7.69371e-12</wgt>
  <wgt id="692">7.45514e-12</wgt>
  <wgt id="693">8.0533e-12</wgt>
  <wgt id="694">7.71189e-12</wgt>
  <wgt id="695">7.23697e-12</wgt>
  <wgt id="696">7.35895e-12</wgt>
  <wgt id="697">7.23421e-12</wgt>
  <wgt id="698">7.14935e-12</wgt>
  <wgt id="699">7.15537e-12</wgt>
  <wgt id="700">6.94921e-12</wgt>
  <wgt id="701">7.3442e-12</wgt>
  <wgt id="702">7.18019e-12</wgt>
  <wgt id="703">7.95031e-12</wgt>
  <wgt id="704">7.64987e-12</wgt>
  <wgt id="705">7.65534e-12</wgt>
  <wgt id="706">7.18326e-12</wgt>
  <wgt id="707">7.17784e-12</wgt>
  <wgt id="708">7.24209e-12</wgt>
  <wgt id="709">7.2296e-12</wgt>
  <wgt id="710">6.89866e-12</wgt>
  <wgt id="711">7.38232e-12</wgt>
  <wgt id="712">7.28704e-12</wgt>
  <wgt id="713">7.69586e-12</wgt>
  <wgt id="714">7.39247e-12</wgt>
  <wgt id="715">7.35594e-12</wgt>
  <wgt id="716">7.1594e-12</wgt>
  <wgt id="717">7.24677e-12</wgt>
  <wgt id="718">7.23369e-12</wgt>
  <wgt id="719">6.9651e-12</wgt>
  <wgt id="720">7.21373e-12</wgt>
  <wgt id="721">7.25051e-12</wgt>
  <wgt id="722">7.05291e-12</wgt>
  <wgt id="723">7.59885e-12</wgt>
  <wgt id="724">7.5545e-12</wgt>
  <wgt id="725">7.65492e-12</wgt>
  <wgt id="726">7.39952e-12</wgt>
  <wgt id="727">7.25415e-12</wgt>
  <wgt id="728">7.37273e-12</wgt>
  <wgt id="729">7.02047e-12</wgt>
  <wgt id="730">7.52454e-12</wgt>
  <wgt id="731">7.27439e-12</wgt>
  <wgt id="732">7.80817e-12</wgt>
  <wgt id="733">7.3426e-12</wgt>
  <wgt id="734">7.44263e-12</wgt>
  <wgt id="735">7.4894e-12</wgt>
  <wgt id="736">7.33674e-12</wgt>
  <wgt id="737">7.43974e-12</wgt>
  <wgt id="738">7.34173e-12</wgt>
  <wgt id="739">7.2038e-12</wgt>
  <wgt id="740">7.87611e-12</wgt>
  <wgt id="741">6.74465e-12</wgt>
  <wgt id="742">7.30374e-12</wgt>
  <wgt id="743">7.48755e-12</wgt>
  <wgt id="744">7.23954e-12</wgt>
  <wgt id="745">7.4099e-12</wgt>
  <wgt id="746">7.45271e-12</wgt>
  <wgt id="747">7.02994e-12</wgt>
  <wgt id="748">7.32835e-12</wgt>
  <wgt id="749">7.636e-12</wgt>
  <wgt id="750">7.33137e-12</wgt>
  <wgt id="751">7.56051e-12</wgt>
  <wgt id="752">7.0078e-12</wgt>
  <wgt id="753">7.12008e-12</wgt>
  <wgt id="754">7.43755e-12</wgt>
  <wgt id="755">7.41487e-12</wgt>
  <wgt id="756">7.35367e-12</wgt>
  <wgt id="757">7.05597e-12</wgt>
  <wgt id="758">7.38519e-12</wgt>
  <wgt id="759">7.4388e-12</wgt>
  <wgt id="760">7.47684e-12</wgt>
  <wgt id="761">7.66516e-12</wgt>
  <wgt id="762">7.58433e-12</wgt>
  <wgt id="763">7.43282e-12</wgt>
  <wgt id="764">7.50881e-12</wgt>
  <wgt id="765">7.49231e-12</wgt>
  <wgt id="766">7.3238e-12</wgt>
  <wgt id="767">7.45363e-12</wgt>
  <wgt id="768">7.14244e-12</wgt>
  <wgt id="769">7.66955e-12</wgt>
  <wgt id="770">7.3517e-12</wgt>
  <wgt id="771">8.1119e-12</wgt>
  <wgt id="772">7.06061e-12</wgt>
  <wgt id="773">7.39615e-12</wgt>
  <wgt id="774">6.9361e-12</wgt>
  <wgt id="775">7.55723e-12</wgt>
  <wgt id="776">7.84766e-12</wgt>
  <wgt id="777">7.3788e-12</wgt>
  <wgt id="778">5.8497e-12</wgt>
  <wgt id="779">5.28916e-12</wgt>
  <wgt id="780">4.90469e-12</wgt>
  <wgt id="781">5.92791e-12</wgt>
  <wgt id="782">6.07995e-12</wgt>
  <wgt id="783">5.38719e-12</wgt>
  <wgt id="784">5.43779e-12</wgt>
  <wgt id="785">6.60562e-12</wgt>
  <wgt id="786">4.97889e-12</wgt>
  <wgt id="787">6.17299e-12</wgt>
  <wgt id="788">4.59396e-12</wgt>
  <wgt id="789">5.37123e-12</wgt>
  <wgt id="790">4.98976e-12</wgt>
  <wgt id="791">5.57195e-12</wgt>
  <wgt id="792">7.29551e-12</wgt>
  <wgt id="793">5.64187e-12</wgt>
  <wgt id="794">5.07263e-12</wgt>
  <wgt id="795">6.12747e-12</wgt>
  <wgt id="796">7.30476e-12</wgt>
  <wgt id="797">6.34504e-12</wgt>
  <wgt id="798">5.47982e-12</wgt>
  <wgt id="799">6.17796e-12</wgt>
  <wgt id="800">5.22325e-12</wgt>
  <wgt id="801">5.62872e-12</wgt>
  <wgt id="802">5.21054e-12</wgt>
  <wgt id="803">7.38075e-12</wgt>
  <wgt id="804">6.35977e-12</wgt>
  <wgt id="805">6.1326e-12</wgt>
  <wgt id="806">6.6066e-12</wgt>
  <wgt id="807">5.75183e-12</wgt>
  <wgt id="808">5.66802e-12</wgt>
  <wgt id="809">5.65405e-12</wgt>
  <wgt id="810">6.43025e-12</wgt>
  <wgt id="811">6.06751e-12</wgt>
  <wgt id="812">5.13372e-12</wgt>
  <wgt id="813">5.07209e-12</wgt>
  <wgt id="814">5.01692e-12</wgt>
  <wgt id="815">5.3e-12</wgt>
  <wgt id="816">5.06754e-12</wgt>
  <wgt id="817">6.02726e-12</wgt>
  <wgt id="818">5.61804e-12</wgt>
  <wgt id="819">5.36167e-12</wgt>
  <wgt id="820">5.84591e-12</wgt>
  <wgt id="821">6.1039e-12</wgt>
  <wgt id="822">5.48993e-12</wgt>
  <wgt id="823">6.19241e-12</wgt>
  <wgt id="824">7.12728e-12</wgt>
  <wgt id="825">4.95966e-12</wgt>
  <wgt id="826">5.82378e-12</wgt>
  <wgt id="827">4.60238e-12</wgt>
  <wgt id="828">7.2452e-12</wgt>
  <wgt id="829">5.80974e-12</wgt>
  <wgt id="830">4.85431e-12</wgt>
  <wgt id="831">6.00847e-12</wgt>
  <wgt id="832">8.4691e-12</wgt>
  <wgt id="833">5.72431e-12</wgt>
  <wgt id="834">8.10487e-12</wgt>
  <wgt id="835">5.19284e-12</wgt>
  <wgt id="836">6.02731e-12</wgt>
  <wgt id="837">6.0971e-12</wgt>
  <wgt id="838">5.61305e-12</wgt>
  <wgt id="839">6.01014e-12</wgt>
  <wgt id="840">5.75167e-12</wgt>
  <wgt id="841">6.41225e-12</wgt>
  <wgt id="842">5.67098e-12</wgt>
  <wgt id="843">5.6665e-12</wgt>
  <wgt id="844">5.84411e-12</wgt>
  <wgt id="845">7.58107e-12</wgt>
  <wgt id="846">5.68927e-12</wgt>
  <wgt id="847">5.71853e-12</wgt>
  <wgt id="848">5.51637e-12</wgt>
  <wgt id="849">5.88166e-12</wgt>
  <wgt id="850">6.66185e-12</wgt>
  <wgt id="851">6.15228e-12</wgt>
  <wgt id="852">5.39742e-12</wgt>
  <wgt id="853">6.06914e-12</wgt>
  <wgt id="854">6.58197e-12</wgt>
  <wgt id="855">5.92499e-12</wgt>
  <wgt id="856">4.90543e-12</wgt>
  <wgt id="857">5.88716e-12</wgt>
  <wgt id="858">5.70444e-12</wgt>
  <wgt id="859">5.62869e-12</wgt>
  <wgt id="860">5.84814e-12</wgt>
  <wgt id="861">5.62888e-12</wgt>
  <wgt id="862">5.77382e-12</wgt>
  <wgt id="863">5.88574e-12</wgt>
  <wgt id="864">5.96916e-12</wgt>
  <wgt id="865">7.02529e-12</wgt>
  <wgt id="866">7.90284e-12</wgt>
  <wgt id="867">5.66531e-12</wgt>
  <wgt id="868">5.45838e-12</wgt>
  <wgt id="869">5.0915e-12</wgt>
  <wgt id="870">5.28683e-12</wgt>
  <wgt id="871">5.22441e-12</wgt>
  <wgt id="872">6.25441e-12</wgt>
  <wgt id="873">5.29196e-12</wgt>
  <wgt id="874">5.87413e-12</wgt>
  <wgt id="875">5.30681e-12</wgt>
  <wgt id="876">6.18969e-12</wgt>
  <wgt id="877">6.04832e-12</wgt>
  <wgt id="878">5.48483e-12</wgt>
  <wgt id="879">7.38643e-12</wgt>
  <wgt id="880">7.55828e-12</wgt>
  <wgt id="881">7.62781e-12</wgt>
  <wgt id="882">7.30521e-12</wgt>
  <wgt id="883">7.11268e-12</wgt>
  <wgt id="884">7.63833e-12</wgt>
  <wgt id="885">7.44224e-12</wgt>
  <wgt id="886">7.35699e-12</wgt>
  <wgt id="887">7.58369e-12</wgt>
  <wgt id="888">7.19204e-12</wgt>
  <wgt id="889">7.49077e-12</wgt>
  <wgt id="890">7.39966e-12</wgt>
  <wgt id="891">7.37878e-12</wgt>
  <wgt id="892">7.58252e-12</wgt>
  <wgt id="893">7.65359e-12</wgt>
  <wgt id="894">7.69371e-12</wgt>
  <wgt id="895">7.45514e-12</wgt>
  <wgt id="896">8.0533e-12</wgt>
  <wgt id="897">7.71189e-12</wgt>
  <wgt id="898">7.23697e-12</wgt>
  <wgt id="899">7.35895e-12</wgt>
  <wgt id="900">7.23421e-12</wgt>
  <wgt id="901">7.14935e-12</wgt>
  <wgt id="902">7.15537e-12</wgt>
  <wgt id="903">6.94921e-12</wgt>
  <wgt id="904">7.3442e-12</wgt>
  <wgt id="905">7.18019e-12</wgt>
  <wgt id="906">7.95031e-12</wgt>
  <wgt id="907">7.64987e-12</wgt>
  <wgt id="908">7.65534e-12</wgt>
  <wgt id="909">7.18326e-12</wgt>
  <wgt id="910">7.17784e-12</wgt>
  <wgt id="911">7.24209e-12</wgt>
  <wgt id="912">7.2296e-12</wgt>
  <wgt id="913">6.89866e-12</wgt>
  <wgt id="914">7.38232e-12</wgt>
  <wgt id="915">7.28704e-12</wgt>
  <wgt id="916">7.69586e-12</wgt>
  <wgt id="917">7.39247e-12</wgt>
  <wgt id="918">7.35594e-12</wgt>
  <wgt id="919">7.1594e-12</wgt>
  <wgt id="920">7.24677e-12</wgt>
  <wgt id="921">7.23369e-12</wgt>
  <wgt id="922">6.9651e-12</wgt>
  <wgt id="923">7.21373e-12</wgt>
  <wgt id="924">7.25051e-12</wgt>
  <wgt id="925">7.05291e-12</wgt>
  <wgt id="926">7.59885e-12</wgt>
  <wgt id="927">7.5545e-12</wgt>
  <wgt id="928">7.65492e-12</wgt>
  <wgt id="929">7.39952e-12</wgt>
  <wgt id="930">7.25415e-12</wgt>
  <wgt id="931">7.37273e-12</wgt>
  <wgt id="932">7.02047e-12</wgt>
  <wgt id="933">7.52454e-12</wgt>
  <wgt id="934">7.27439e-12</wgt>
  <wgt id="935">7.80817e-12</wgt>
  <wgt id="936">7.3426e-12</wgt>
  <wgt id="937">7.44263e-12</wgt>
  <wgt id="938">7.4894e-12</wgt>
  <wgt id="939">7.33674e-12</wgt>
  <wgt id="940">7.43974e-12</wgt>
  <wgt id="941">7.34173e-12</wgt>
  <wgt id="942">7.2038e-12</wgt>
  <wgt id="943">7.87611e-12</wgt>
  <wgt id="944">6.74465e-12</wgt>
  <wgt id="945">7.30374e-12</wgt>
  <wgt id="946">7.48755e-12</wgt>
  <wgt id="947">7.23954e-12</wgt>
  <wgt id="948">7.4099e-12</wgt>
  <wgt id="949">7.45271e-12</wgt>
  <wgt id="950">7.02994e-12</wgt>
  <wgt id="951">7.32835e-12</wgt>
  <wgt id="952">7.636e-12</wgt>
  <wgt id="953">7.33137e-12</wgt>
  <wgt id="954">7.56051e-12</wgt>
  <wgt id="955">7.0078e-12</wgt>
  <wgt id="956">7.12008e-12</wgt>
  <wgt id="957">7.43755e-12</wgt>
  <wgt id="958">7.41487e-12</wgt>
  <wgt id="959">7.35367e-12</wgt>
  <wgt id="960">7.05597e-12</wgt>
  <wgt id="961">7.38519e-12</wgt>
  <wgt id="962">7.4388e-12</wgt>
  <wgt id="963">7.47684e-12</wgt>
  <wgt id="964">7.66516e-12</wgt>
  <wgt id="965">7.58433e-12</wgt>
  <wgt id="966">7.43282e-12</wgt>
  <wgt id="967">7.50881e-12</wgt>
  <wgt id="968">7.49231e-12</wgt>
  <wgt id="969">7.3238e-12</wgt>
  <wgt id="970">7.45363e-12</wgt>
  <wgt id="971">7.14244e-12</wgt>
  <wgt id="972">7.66955e-12</wgt>
  <wgt id="973">7.3517e-12</wgt>
  <wgt id="974">8.1119e-12</wgt>
  <wgt id="975">7.06061e-12</wgt>
  <wgt id="976">7.39615e-12</wgt>
  <wgt id="977">6.9361e-12</wgt>
  <wgt id="978">7.55723e-12</wgt>
  <wgt id="979">7.84766e-12</wgt>
  <wgt id="980">7.41858e-12</wgt>
  <wgt id="981">7.36441e-12</wgt>
  <wgt id="982">7.19154e-12</wgt>
</rwgt>
</event>
<event>
 5   1  0.5790000E-11  0.2212511E+04  0.7818608E-02  0.7744173E-01
       21   -1    0    0  502  501  0.00000000000E+00  0.00000000000E+00  0.14600086253E+04  0.14600086253E+04  0.00000000000E+00 0. -1.
       21   -1    0    0  501  502 -0.00000000000E+00 -0.00000000000E+00 -0.83821477676E+03  0.83821477676E+03  0.00000000000E+00 0.  1.
       39    2    1    2    0    0  0.00000000000E+00  0.00000000000E+00  0.62179384856E+03  0.22982234021E+04  0.22125106137E+04 0.  0.
       25    1    3    3    0    0 -0.10022215397E+04 -0.44911811078E+03  0.26420314008E+03  0.11364785046E+04  0.12500000000E+03 0.  0.
       25    1    3    3    0    0  0.10022215397E+04  0.44911811078E+03  0.35759070848E+03  0.11617448975E+04  0.12500000000E+03 0.  0.
<mgrwt>
<rscale>  0 0.22125106E+04</rscale>
<asrwt>0</asrwt>
<pdfrwt beam="1">  1       21 0.22461671E+00 0.22125106E+04</pdfrwt>
<pdfrwt beam="2">  1       21 0.12895612E+00 0.22125106E+04</pdfrwt>
<totfact> 0.16303608E+01</totfact>
</mgrwt>
<rwgt>
  <wgt id="1">5.79e-12</wgt>
  <wgt id="2">5.04889e-12</wgt>
  <wgt id="3">6.70822e-12</wgt>
  <wgt id="4">5.79e-12</wgt>
  <wgt id="5">5.04889e-12</wgt>
  <wgt id="6">6.70822e-12</wgt>
  <wgt id="7">5.79e-12</wgt>
  <wgt id="8">5.04889e-12</wgt>
  <wgt id="9">6.70822e-12</wgt>
  <wgt id="10">5.98227e-12</wgt>
  <wgt id="11">5.97766e-12</wgt>
  <wgt id="12">5.97193e-12</wgt>
  <wgt id="13">5.96278e-12</wgt>
  <wgt id="14">6.00383e-12</wgt>
  <wgt id="15">5.99192e-12</wgt>
  <wgt id="16">5.97188e-12</wgt>
  <wgt id="17">5.99666e-12</wgt>
  <wgt id="18">5.97306e-12</wgt>
  <wgt id="19">5.99488e-12</wgt>
  <wgt id="20">5.96655e-12</wgt>
  <wgt id="21">5.94464e-12</wgt>
  <wgt id="22">5.95737e-12</wgt>
  <wgt id="23">5.92551e-12</wgt>
  <wgt id="24">5.95251e-12</wgt>
  <wgt id="25">5.96694e-12</wgt>
  <wgt id="26">6.0038e-12</wgt>
  <wgt id="27">5.98028e-12</wgt>
  <wgt id="28">5.95328e-12</wgt>
  <wgt id="29">5.98701e-12</wgt>
  <wgt id="30">5.96065e-12</wgt>
  <wgt id="31">6.00177e-12</wgt>
  <wgt id="32">5.96695e-12</wgt>
  <wgt id="33">5.9949e-12</wgt>
  <wgt id="34">5.96075e-12</wgt>
  <wgt id="35">5.97196e-12</wgt>
  <wgt id="36">5.99978e-12</wgt>
  <wgt id="37">5.96656e-12</wgt>
  <wgt id="38">5.96603e-12</wgt>
  <wgt id="39">6.04947e-12</wgt>
  <wgt id="40">5.99254e-12</wgt>
  <wgt id="41">5.98012e-12</wgt>
  <wgt id="42">5.99535e-12</wgt>
  <wgt id="43">5.98339e-12</wgt>
  <wgt id="44">5.96913e-12</wgt>
  <wgt id="45">5.99279e-12</wgt>
  <wgt id="46">5.98597e-12</wgt>
  <wgt id="47">5.96943e-12</wgt>
  <wgt id="48">5.98261e-12</wgt>
  <wgt id="49">5.98537e-12</wgt>
  <wgt id="50">6.00206e-12</wgt>
  <wgt id="51">5.99688e-12</wgt>
  <wgt id="52">5.97817e-12</wgt>
  <wgt id="53">5.9508e-12</wgt>
  <wgt id="54">5.97456e-12</wgt>
  <wgt id="55">5.9813e-12</wgt>
  <wgt id="56">6.00478e-12</wgt>
  <wgt id="57">5.99914e-12</wgt>
  <wgt id="58">5.94962e-12</wgt>
  <wgt id="59">5.96518e-12</wgt>
  <wgt id="60">5.98658e-12</wgt>
  <wgt id="61">5.9613e-12</wgt>
  <wgt id="62">5.97172e-12</wgt>
  <wgt id="63">5.98111e-12</wgt>
  <wgt id="64">5.987e-12</wgt>
  <wgt id="65">5.9906e-12</wgt>
  <wgt id="66">5.97496e-12</wgt>
  <wgt id="67">5.96231e-12</wgt>
  <wgt id="68">5.97804e-12</wgt>
  <wgt id="69">5.98311e-12</wgt>
  <wgt id="70">5.98182e-12</wgt>
  <wgt id="71">5.9807e-12</wgt>
  <wgt id="72">5.97154e-12</wgt>
  <wgt id="73">5.98674e-12</wgt>
  <wgt id="74">5.98444e-12</wgt>
  <wgt id="75">5.97587e-12</wgt>
  <wgt id="76">5.99568e-12</wgt>
  <wgt id="77">5.98076e-12</wgt>
  <wgt id="78">5.98263e-12</wgt>
  <wgt id="79">5.99519e-12</wgt>
  <wgt id="80">5.96013e-12</wgt>
  <wgt id="81">5.97706e-12</wgt>
  <wgt id="82">5.9824e-12</wgt>
  <wgt id="83">5.96096e-12</wgt>
  <wgt id="84">5.97403e-12</wgt>
  <wgt id="85">5.96957e-12</wgt>
  <wgt id="86">5.99903e-12</wgt>
  <wgt id="87">5.95221e-12</wgt>
  <wgt id="88">5.98822e-12</wgt>
  <wgt id="89">5.98737e-12</wgt>
  <wgt id="90">5.99374e-12</wgt>
  <wgt id="91">5.98798e-12</wgt>
  <wgt id="92">5.99348e-12</wgt>
  <wgt id="93">5.98432e-12</wgt>
  <wgt id="94">5.97706e-12</wgt>
  <wgt id="95">5.98966e-12</wgt>
  <wgt id="96">5.98607e-12</wgt>
  <wgt id="97">5.97226e-12</wgt>
  <wgt id="98">5.98477e-12</wgt>
  <wgt id="99">5.9745e-12</wgt>
  <wgt id="100">5.9877e-12</wgt>
  <wgt id="101">5.98274e-12</wgt>
  <wgt id="102">5.97757e-12</wgt>
  <wgt id="103">5.98985e-12</wgt>
  <wgt id="104">5.98025e-12</wgt>
  <wgt id="105">5.99004e-12</wgt>
  <wgt id="106">5.97372e-12</wgt>
  <wgt id="107">5.99847e-12</wgt>
  <wgt id="108">5.97637e-12</wgt>
  <wgt id="109">5.98227e-12</wgt>
  <wgt id="110">5.9829e-12</wgt>
  <wgt id="111">6.03987e-12</wgt>
  <wgt id="112">5.98751e-12</wgt>
  <wgt id="113">8.00703e-12</wgt>
  <wgt id="114">8.20279e-12</wgt>
  <wgt id="115">8.08254e-12</wgt>
  <wgt id="116">1.10952e-11</wgt>
  <wgt id="117">6.60315e-12</wgt>
  <wgt id="118">6.62509e-12</wgt>
  <wgt id="119">6.59035e-12</wgt>
  <wgt id="120">6.6038e-12</wgt>
  <wgt id="121">6.60287e-12</wgt>
  <wgt id="122">6.59122e-12</wgt>
  <wgt id="123">6.61908e-12</wgt>
  <wgt id="124">6.59348e-12</wgt>
  <wgt id="125">6.60902e-12</wgt>
  <wgt id="126">6.61403e-12</wgt>
  <wgt id="127">6.59573e-12</wgt>
  <wgt id="128">6.62373e-12</wgt>
  <wgt id="129">6.58268e-12</wgt>
  <wgt id="130">6.6405e-12</wgt>
  <wgt id="131">6.56487e-12</wgt>
  <wgt id="132">6.43386e-12</wgt>
  <wgt id="133">6.80281e-12</wgt>
  <wgt id="134">6.53415e-12</wgt>
  <wgt id="135">6.657e-12</wgt>
  <wgt id="136">6.68589e-12</wgt>
  <wgt id="137">6.50261e-12</wgt>
  <wgt id="138">6.85372e-12</wgt>
  <wgt id="139">6.36057e-12</wgt>
  <wgt id="140">6.5598e-12</wgt>
  <wgt id="141">6.63675e-12</wgt>
  <wgt id="142">6.60374e-12</wgt>
  <wgt id="143">6.61281e-12</wgt>
  <wgt id="144">6.42438e-12</wgt>
  <wgt id="145">6.76841e-12</wgt>
  <wgt id="146">6.6594e-12</wgt>
  <wgt id="147">6.55836e-12</wgt>
  <wgt id="148">6.62292e-12</wgt>
  <wgt id="149">6.60161e-12</wgt>
  <wgt id="150">6.65899e-12</wgt>
  <wgt id="151">6.5771e-12</wgt>
  <wgt id="152">6.60588e-12</wgt>
  <wgt id="153">6.60199e-12</wgt>
  <wgt id="154">6.65511e-12</wgt>
  <wgt id="155">6.5402e-12</wgt>
  <wgt id="156">6.72867e-12</wgt>
  <wgt id="157">6.46937e-12</wgt>
  <wgt id="158">7.94416e-12</wgt>
  <wgt id="159">7.97751e-12</wgt>
  <wgt id="160">7.91758e-12</wgt>
  <wgt id="161">7.9254e-12</wgt>
  <wgt id="162">7.96565e-12</wgt>
  <wgt id="163">7.93587e-12</wgt>
  <wgt id="164">7.95656e-12</wgt>
  <wgt id="165">7.94752e-12</wgt>
  <wgt id="166">7.94169e-12</wgt>
  <wgt id="167">7.93833e-12</wgt>
  <wgt id="168">7.95262e-12</wgt>
  <wgt id="169">7.91002e-12</wgt>
  <wgt id="170">7.96532e-12</wgt>
  <wgt id="171">7.93612e-12</wgt>
  <wgt id="172">7.9555e-12</wgt>
  <wgt id="173">7.94326e-12</wgt>
  <wgt id="174">7.94449e-12</wgt>
  <wgt id="175">7.72697e-12</wgt>
  <wgt id="176">8.22719e-12</wgt>
  <wgt id="177">7.9844e-12</wgt>
  <wgt id="178">7.90732e-12</wgt>
  <wgt id="179">8.26985e-12</wgt>
  <wgt id="180">7.42994e-12</wgt>
  <wgt id="181">7.71834e-12</wgt>
  <wgt id="182">8.09308e-12</wgt>
  <wgt id="183">7.80623e-12</wgt>
  <wgt id="184">8.01255e-12</wgt>
  <wgt id="185">7.87955e-12</wgt>
  <wgt id="186">8.02124e-12</wgt>
  <wgt id="187">7.87261e-12</wgt>
  <wgt id="188">8.07228e-12</wgt>
  <wgt id="189">7.8941e-12</wgt>
  <wgt id="190">7.96454e-12</wgt>
  <wgt id="191">7.96542e-12</wgt>
  <wgt id="192">7.93148e-12</wgt>
  <wgt id="193">8.05392e-12</wgt>
  <wgt id="194">7.88988e-12</wgt>
  <wgt id="195">7.76131e-12</wgt>
  <wgt id="196">8.27631e-12</wgt>
  <wgt id="197">7.98269e-12</wgt>
  <wgt id="198">7.93509e-12</wgt>
  <wgt id="199">7.94416e-12</wgt>
  <wgt id="200">8.01085e-12</wgt>
  <wgt id="201">7.98673e-12</wgt>
  <wgt id="202">7.96294e-12</wgt>
  <wgt id="203">7.92747e-12</wgt>
  <wgt id="204">7.91056e-12</wgt>
  <wgt id="205">7.89667e-12</wgt>
  <wgt id="206">7.73399e-12</wgt>
  <wgt id="207">7.77895e-12</wgt>
  <wgt id="208">7.68995e-12</wgt>
  <wgt id="209">7.75627e-12</wgt>
  <wgt id="210">7.71852e-12</wgt>
  <wgt id="211">7.73197e-12</wgt>
  <wgt id="212">7.73594e-12</wgt>
  <wgt id="213">7.7336e-12</wgt>
  <wgt id="214">7.73506e-12</wgt>
  <wgt id="215">7.7395e-12</wgt>
  <wgt id="216">7.7306e-12</wgt>
  <wgt id="217">7.75491e-12</wgt>
  <wgt id="218">7.71807e-12</wgt>
  <wgt id="219">7.72484e-12</wgt>
  <wgt id="220">7.74014e-12</wgt>
  <wgt id="221">7.73155e-12</wgt>
  <wgt id="222">7.74061e-12</wgt>
  <wgt id="223">7.33531e-12</wgt>
  <wgt id="224">8.09695e-12</wgt>
  <wgt id="225">7.64505e-12</wgt>
  <wgt id="226">7.84636e-12</wgt>
  <wgt id="227">7.66348e-12</wgt>
  <wgt id="228">7.76527e-12</wgt>
  <wgt id="229">7.62986e-12</wgt>
  <wgt id="230">7.7862e-12</wgt>
  <wgt id="231">7.95116e-12</wgt>
  <wgt id="232">7.55555e-12</wgt>
  <wgt id="233">7.69511e-12</wgt>
  <wgt id="234">7.7957e-12</wgt>
  <wgt id="235">7.58037e-12</wgt>
  <wgt id="236">7.87847e-12</wgt>
  <wgt id="237">7.6298e-12</wgt>
  <wgt id="238">7.76997e-12</wgt>
  <wgt id="239">7.68911e-12</wgt>
  <wgt id="240">7.81657e-12</wgt>
  <wgt id="241">7.65761e-12</wgt>
  <wgt id="242">7.82612e-12</wgt>
  <wgt id="243">7.81932e-12</wgt>
  <wgt id="244">7.77636e-12</wgt>
  <wgt id="245">7.72847e-12</wgt>
  <wgt id="246">7.79119e-12</wgt>
  <wgt id="247">7.73399e-12</wgt>
  <wgt id="248">7.80077e-12</wgt>
  <wgt id="249">7.77538e-12</wgt>
  <wgt id="250">7.75168e-12</wgt>
  <wgt id="251">7.71656e-12</wgt>
  <wgt id="252">7.6998e-12</wgt>
  <wgt id="253">7.68787e-12</wgt>
  <wgt id="254">7.56149e-12</wgt>
  <wgt id="255">7.56837e-12</wgt>
  <wgt id="256">7.55378e-12</wgt>
  <wgt id="257">7.56716e-12</wgt>
  <wgt id="258">7.55719e-12</wgt>
  <wgt id="259">7.61152e-12</wgt>
  <wgt id="260">7.51287e-12</wgt>
  <wgt id="261">7.5704e-12</wgt>
  <wgt id="262">7.55054e-12</wgt>
  <wgt id="263">7.55803e-12</wgt>
  <wgt id="264">7.56503e-12</wgt>
  <wgt id="265">7.55325e-12</wgt>
  <wgt id="266">7.57801e-12</wgt>
  <wgt id="267">7.56355e-12</wgt>
  <wgt id="268">7.55812e-12</wgt>
  <wgt id="269">7.58401e-12</wgt>
  <wgt id="270">7.54597e-12</wgt>
  <wgt id="271">7.54819e-12</wgt>
  <wgt id="272">7.57648e-12</wgt>
  <wgt id="273">7.53901e-12</wgt>
  <wgt id="274">7.57836e-12</wgt>
  <wgt id="275">7.5308e-12</wgt>
  <wgt id="276">7.59312e-12</wgt>
  <wgt id="277">7.51939e-12</wgt>
  <wgt id="278">7.6002e-12</wgt>
  <wgt id="279">7.42265e-12</wgt>
  <wgt id="280">7.73543e-12</wgt>
  <wgt id="281">7.53006e-12</wgt>
  <wgt id="282">7.56288e-12</wgt>
  <wgt id="283">7.35222e-12</wgt>
  <wgt id="284">7.8186e-12</wgt>
  <wgt id="285">7.21317e-12</wgt>
  <wgt id="286">7.84868e-12</wgt>
  <wgt id="287">7.58451e-12</wgt>
  <wgt id="288">7.53191e-12</wgt>
  <wgt id="289">7.61265e-12</wgt>
  <wgt id="290">7.44195e-12</wgt>
  <wgt id="291">7.54148e-12</wgt>
  <wgt id="292">7.56584e-12</wgt>
  <wgt id="293">7.50534e-12</wgt>
  <wgt id="294">7.61723e-12</wgt>
  <wgt id="295">7.42293e-12</wgt>
  <wgt id="296">7.73013e-12</wgt>
  <wgt id="297">7.5619e-12</wgt>
  <wgt id="298">7.58712e-12</wgt>
  <wgt id="299">7.53826e-12</wgt>
  <wgt id="300">7.62264e-12</wgt>
  <wgt id="301">7.46775e-12</wgt>
  <wgt id="302">7.80539e-12</wgt>
  <wgt id="303">7.50838e-12</wgt>
  <wgt id="304">7.59186e-12</wgt>
  <wgt id="305">7.58597e-12</wgt>
  <wgt id="306">7.59358e-12</wgt>
  <wgt id="307">7.57741e-12</wgt>
  <wgt id="308">7.59265e-12</wgt>
  <wgt id="309">7.58168e-12</wgt>
  <wgt id="310">7.63831e-12</wgt>
  <wgt id="311">7.5373e-12</wgt>
  <wgt id="312">7.59276e-12</wgt>
  <wgt id="313">7.579e-12</wgt>
  <wgt id="314">7.5825e-12</wgt>
  <wgt id="315">7.58882e-12</wgt>
  <wgt id="316">7.57786e-12</wgt>
  <wgt id="317">7.6029e-12</wgt>
  <wgt id="318">7.59101e-12</wgt>
  <wgt id="319">7.57677e-12</wgt>
  <wgt id="320">7.60966e-12</wgt>
  <wgt id="321">7.57247e-12</wgt>
  <wgt id="322">7.56853e-12</wgt>
  <wgt id="323">7.60562e-12</wgt>
  <wgt id="324">7.5674e-12</wgt>
  <wgt id="325">7.60179e-12</wgt>
  <wgt id="326">7.56101e-12</wgt>
  <wgt id="327">7.61769e-12</wgt>
  <wgt id="328">7.54709e-12</wgt>
  <wgt id="329">7.60771e-12</wgt>
  <wgt id="330">7.801e-12</wgt>
  <wgt id="331">7.38042e-12</wgt>
  <wgt id="332">7.55957e-12</wgt>
  <wgt id="333">7.58616e-12</wgt>
  <wgt id="334">7.42166e-12</wgt>
  <wgt id="335">7.78948e-12</wgt>
  <wgt id="336">7.33274e-12</wgt>
  <wgt id="337">7.89303e-12</wgt>
  <wgt id="338">7.66738e-12</wgt>
  <wgt id="339">7.5102e-12</wgt>
  <wgt id="340">7.63396e-12</wgt>
  <wgt id="341">7.46086e-12</wgt>
  <wgt id="342">7.57236e-12</wgt>
  <wgt id="343">7.57839e-12</wgt>
  <wgt id="344">7.53494e-12</wgt>
  <wgt id="345">7.64481e-12</wgt>
  <wgt id="346">7.44192e-12</wgt>
  <wgt id="347">7.75121e-12</wgt>
  <wgt id="348">7.58992e-12</wgt>
  <wgt id="349">7.6069e-12</wgt>
  <wgt id="350">7.55655e-12</wgt>
  <wgt id="351">7.65996e-12</wgt>
  <wgt id="352">7.48297e-12</wgt>
  <wgt id="353">7.84082e-12</wgt>
  <wgt id="354">7.50552e-12</wgt>
  <wgt id="355">7.63555e-12</wgt>
  <wgt id="356">7.56149e-12</wgt>
  <wgt id="357">7.61718e-12</wgt>
  <wgt id="358">7.58597e-12</wgt>
  <wgt id="359">7.58812e-12</wgt>
  <wgt id="360">7.60954e-12</wgt>
  <wgt id="361">7.58428e-12</wgt>
  <wgt id="362">7.71108e-12</wgt>
  <wgt id="363">7.6935e-12</wgt>
  <wgt id="364">7.66797e-12</wgt>
  <wgt id="365">7.6433e-12</wgt>
  <wgt id="366">7.61519e-12</wgt>
  <wgt id="367">7.55834e-12</wgt>
  <wgt id="368">7.5264e-12</wgt>
  <wgt id="369">7.49187e-12</wgt>
  <wgt id="370">7.58428e-12</wgt>
  <wgt id="371">7.61795e-12</wgt>
  <wgt id="372">7.59958e-12</wgt>
  <wgt id="373">7.57198e-12</wgt>
  <wgt id="374">7.56988e-12</wgt>
  <wgt id="375">8.09276e-12</wgt>
  <wgt id="376">8.0937e-12</wgt>
  <wgt id="377">8.09139e-12</wgt>
  <wgt id="378">8.12213e-12</wgt>
  <wgt id="379">8.06364e-12</wgt>
  <wgt id="380">8.11474e-12</wgt>
  <wgt id="381">8.08416e-12</wgt>
  <wgt id="382">8.1323e-12</wgt>
  <wgt id="383">8.05347e-12</wgt>
  <wgt id="384">8.098e-12</wgt>
  <wgt id="385">8.08772e-12</wgt>
  <wgt id="386">8.12294e-12</wgt>
  <wgt id="387">8.07967e-12</wgt>
  <wgt id="388">8.08528e-12</wgt>
  <wgt id="389">8.10148e-12</wgt>
  <wgt id="390">8.11342e-12</wgt>
  <wgt id="391">8.07101e-12</wgt>
  <wgt id="392">8.03455e-12</wgt>
  <wgt id="393">8.12599e-12</wgt>
  <wgt id="394">8.10367e-12</wgt>
  <wgt id="395">8.07793e-12</wgt>
  <wgt id="396">8.09723e-12</wgt>
  <wgt id="397">8.0896e-12</wgt>
  <wgt id="398">8.06247e-12</wgt>
  <wgt id="399">8.1222e-12</wgt>
  <wgt id="400">8.08047e-12</wgt>
  <wgt id="401">8.12041e-12</wgt>
  <wgt id="402">8.02978e-12</wgt>
  <wgt id="403">8.12025e-12</wgt>
  <wgt id="404">8.27295e-12</wgt>
  <wgt id="405">7.65717e-12</wgt>
  <wgt id="406">7.96247e-12</wgt>
  <wgt id="407">8.37488e-12</wgt>
  <wgt id="408">8.15936e-12</wgt>
  <wgt id="409">7.96497e-12</wgt>
  <wgt id="410">7.87923e-12</wgt>
  <wgt id="411">8.19162e-12</wgt>
  <wgt id="412">8.07856e-12</wgt>
  <wgt id="413">8.11263e-12</wgt>
  <wgt id="414">8.00742e-12</wgt>
  <wgt id="415">8.1593e-12</wgt>
  <wgt id="416">8.29645e-12</wgt>
  <wgt id="417">7.81099e-12</wgt>
  <wgt id="418">8.10335e-12</wgt>
  <wgt id="419">8.03484e-12</wgt>
  <wgt id="420">8.20139e-12</wgt>
  <wgt id="421">8.03239e-12</wgt>
  <wgt id="422">8.08349e-12</wgt>
  <wgt id="423">8.09882e-12</wgt>
  <wgt id="424">8.24474e-12</wgt>
  <wgt id="425">7.99766e-12</wgt>
  <wgt id="426">8.09276e-12</wgt>
  <wgt id="427">8.02316e-12</wgt>
  <wgt id="428">8.29341e-12</wgt>
  <wgt id="429">8.16135e-12</wgt>
  <wgt id="430">8.38158e-12</wgt>
  <wgt id="431">8.33775e-12</wgt>
  <wgt id="432">8.29624e-12</wgt>
  <wgt id="433">8.25598e-12</wgt>
  <wgt id="434">8.20716e-12</wgt>
  <wgt id="435">8.10453e-12</wgt>
  <wgt id="436">8.05173e-12</wgt>
  <wgt id="437">8.0015e-12</wgt>
  <wgt id="438">8.16135e-12</wgt>
  <wgt id="439">8.18807e-12</wgt>
  <wgt id="440">8.17247e-12</wgt>
  <wgt id="441">8.15319e-12</wgt>
  <wgt id="442">8.14628e-12</wgt>
  <wgt id="443">7.90648e-12</wgt>
  <wgt id="444">7.94991e-12</wgt>
  <wgt id="445">7.89156e-12</wgt>
  <wgt id="446">7.85605e-12</wgt>
  <wgt id="447">7.8861e-12</wgt>
  <wgt id="448">7.70997e-12</wgt>
  <wgt id="449">8.02521e-12</wgt>
  <wgt id="450">7.89406e-12</wgt>
  <wgt id="451">7.89363e-12</wgt>
  <wgt id="452">8.07209e-12</wgt>
  <wgt id="453">7.97293e-12</wgt>
  <wgt id="454">7.59364e-12</wgt>
  <wgt id="455">7.92287e-12</wgt>
  <wgt id="456">7.84543e-12</wgt>
  <wgt id="457">7.93425e-12</wgt>
  <wgt id="458">7.99937e-12</wgt>
  <wgt id="459">7.96034e-12</wgt>
  <wgt id="460">7.96342e-12</wgt>
  <wgt id="461">7.76807e-12</wgt>
  <wgt id="462">7.85112e-12</wgt>
  <wgt id="463">7.82097e-12</wgt>
  <wgt id="464">7.86819e-12</wgt>
  <wgt id="465">7.98233e-12</wgt>
  <wgt id="466">7.81525e-12</wgt>
  <wgt id="467">7.83779e-12</wgt>
  <wgt id="468">7.88771e-12</wgt>
  <wgt id="469">7.88932e-12</wgt>
  <wgt id="470">7.83417e-12</wgt>
  <wgt id="471">7.84093e-12</wgt>
  <wgt id="472">7.94002e-12</wgt>
  <wgt id="473">7.67959e-12</wgt>
  <wgt id="474">5.79e-12</wgt>
  <wgt id="475">6.06631e-12</wgt>
  <wgt id="476">5.68577e-12</wgt>
  <wgt id="477">5.63031e-12</wgt>
  <wgt id="478">5.83188e-12</wgt>
  <wgt id="479">5.69519e-12</wgt>
  <wgt id="480">5.99635e-12</wgt>
  <wgt id="481">5.7005e-12</wgt>
  <wgt id="482">5.62346e-12</wgt>
  <wgt id="483">5.6482e-12</wgt>
  <wgt id="484">6.0832e-12</wgt>
  <wgt id="485">5.73983e-12</wgt>
  <wgt id="486">5.96405e-12</wgt>
  <wgt id="487">5.84398e-12</wgt>
  <wgt id="488">5.88417e-12</wgt>
  <wgt id="489">5.53776e-12</wgt>
  <wgt id="490">5.59979e-12</wgt>
  <wgt id="491">5.74878e-12</wgt>
  <wgt id="492">5.64756e-12</wgt>
  <wgt id="493">5.57535e-12</wgt>
  <wgt id="494">5.61352e-12</wgt>
  <wgt id="495">5.84797e-12</wgt>
  <wgt id="496">5.60312e-12</wgt>
  <wgt id="497">5.57031e-12</wgt>
  <wgt id="498">5.90079e-12</wgt>
  <wgt id="499">5.68208e-12</wgt>
  <wgt id="500">5.67965e-12</wgt>
  <wgt id="501">6.02987e-12</wgt>
  <wgt id="502">5.69003e-12</wgt>
  <wgt id="503">5.78912e-12</wgt>
  <wgt id="504">5.85009e-12</wgt>
  <wgt id="505">5.72005e-12</wgt>
  <wgt id="506">5.82023e-12</wgt>
  <wgt id="507">5.76213e-12</wgt>
  <wgt id="508">5.92909e-12</wgt>
  <wgt id="509">5.56029e-12</wgt>
  <wgt id="510">5.92581e-12</wgt>
  <wgt id="511">5.64186e-12</wgt>
  <wgt id="512">5.9073e-12</wgt>
  <wgt id="513">5.99219e-12</wgt>
  <wgt id="514">5.79795e-12</wgt>
  <wgt id="515">5.74426e-12</wgt>
  <wgt id="516">6.01362e-12</wgt>
  <wgt id="517">5.92354e-12</wgt>
  <wgt id="518">5.94562e-12</wgt>
  <wgt id="519">5.64391e-12</wgt>
  <wgt id="520">5.86474e-12</wgt>
  <wgt id="521">5.96747e-12</wgt>
  <wgt id="522">6.02664e-12</wgt>
  <wgt id="523">5.82869e-12</wgt>
  <wgt id="524">5.82371e-12</wgt>
  <wgt id="525">5.9436e-12</wgt>
  <wgt id="526">5.82803e-12</wgt>
  <wgt id="527">5.86652e-12</wgt>
  <wgt id="528">5.80915e-12</wgt>
  <wgt id="529">5.7191e-12</wgt>
  <wgt id="530">5.87938e-12</wgt>
  <wgt id="531">5.70583e-12</wgt>
  <wgt id="532">6.12349e-12</wgt>
  <wgt id="533">5.49642e-12</wgt>
  <wgt id="534">5.78419e-12</wgt>
  <wgt id="535">5.84238e-12</wgt>
  <wgt id="536">5.75942e-12</wgt>
  <wgt id="537">5.79339e-12</wgt>
  <wgt id="538">5.86902e-12</wgt>
  <wgt id="539">5.67895e-12</wgt>
  <wgt id="540">5.73778e-12</wgt>
  <wgt id="541">5.63931e-12</wgt>
  <wgt id="542">5.7005e-12</wgt>
  <wgt id="543">5.77647e-12</wgt>
  <wgt id="544">6.05475e-12</wgt>
  <wgt id="545">5.6941e-12</wgt>
  <wgt id="546">5.67137e-12</wgt>
  <wgt id="547">5.6403e-12</wgt>
  <wgt id="548">5.55807e-12</wgt>
  <wgt id="549">5.70143e-12</wgt>
  <wgt id="550">5.71601e-12</wgt>
  <wgt id="551">5.86822e-12</wgt>
  <wgt id="552">5.66879e-12</wgt>
  <wgt id="553">5.75221e-12</wgt>
  <wgt id="554">6.2051e-12</wgt>
  <wgt id="555">5.95195e-12</wgt>
  <wgt id="556">5.59979e-12</wgt>
  <wgt id="557">5.91035e-12</wgt>
  <wgt id="558">5.63298e-12</wgt>
  <wgt id="559">5.68958e-12</wgt>
  <wgt id="560">6.30084e-12</wgt>
  <wgt id="561">5.69621e-12</wgt>
  <wgt id="562">5.91431e-12</wgt>
  <wgt id="563">5.71825e-12</wgt>
  <wgt id="564">5.86577e-12</wgt>
  <wgt id="565">5.63312e-12</wgt>
  <wgt id="566">5.8626e-12</wgt>
  <wgt id="567">5.72631e-12</wgt>
  <wgt id="568">5.77867e-12</wgt>
  <wgt id="569">5.86775e-12</wgt>
  <wgt id="570">5.60081e-12</wgt>
  <wgt id="571">6.40154e-12</wgt>
  <wgt id="572">5.6828e-12</wgt>
  <wgt id="573">5.56627e-12</wgt>
  <wgt id="574">5.60707e-12</wgt>
  <wgt id="575">6.35819e-12</wgt>
  <wgt id="576">6.36012e-12</wgt>
  <wgt id="577">6.56062e-12</wgt>
  <wgt id="578">6.52215e-12</wgt>
  <wgt id="579">6.47801e-12</wgt>
  <wgt id="580">6.51916e-12</wgt>
  <wgt id="581">6.79459e-12</wgt>
  <wgt id="582">6.3499e-12</wgt>
  <wgt id="583">6.41435e-12</wgt>
  <wgt id="584">6.34918e-12</wgt>
  <wgt id="585">6.31419e-12</wgt>
  <wgt id="586">6.18453e-12</wgt>
  <wgt id="587">6.444e-12</wgt>
  <wgt id="588">6.35656e-12</wgt>
  <wgt id="589">6.50682e-12</wgt>
  <wgt id="590">6.41478e-12</wgt>
  <wgt id="591">6.60037e-12</wgt>
  <wgt id="592">6.13951e-12</wgt>
  <wgt id="593">6.31351e-12</wgt>
  <wgt id="594">6.55559e-12</wgt>
  <wgt id="595">6.36033e-12</wgt>
  <wgt id="596">6.50616e-12</wgt>
  <wgt id="597">6.19652e-12</wgt>
  <wgt id="598">6.18566e-12</wgt>
  <wgt id="599">6.61343e-12</wgt>
  <wgt id="600">6.34023e-12</wgt>
  <wgt id="601">6.17596e-12</wgt>
  <wgt id="602">6.19993e-12</wgt>
  <wgt id="603">6.22902e-12</wgt>
  <wgt id="604">6.45145e-12</wgt>
  <wgt id="605">6.60079e-12</wgt>
  <wgt id="606">6.27598e-12</wgt>
  <wgt id="607">6.32029e-12</wgt>
  <wgt id="608">6.41305e-12</wgt>
  <wgt id="609">6.0497e-12</wgt>
  <wgt id="610">6.12961e-12</wgt>
  <wgt id="611">6.39624e-12</wgt>
  <wgt id="612">6.82566e-12</wgt>
  <wgt id="613">6.33083e-12</wgt>
  <wgt id="614">6.40661e-12</wgt>
  <wgt id="615">6.26324e-12</wgt>
  <wgt id="616">6.68222e-12</wgt>
  <wgt id="617">6.53445e-12</wgt>
  <wgt id="618">6.60283e-12</wgt>
  <wgt id="619">6.30298e-12</wgt>
  <wgt id="620">6.5725e-12</wgt>
  <wgt id="621">6.40355e-12</wgt>
  <wgt id="622">6.444e-12</wgt>
  <wgt id="623">6.51756e-12</wgt>
  <wgt id="624">6.33878e-12</wgt>
  <wgt id="625">6.2588e-12</wgt>
  <wgt id="626">6.16212e-12</wgt>
  <wgt id="627">6.09734e-12</wgt>
  <wgt id="628">6.57305e-12</wgt>
  <wgt id="629">6.2561e-12</wgt>
  <wgt id="630">6.16615e-12</wgt>
  <wgt id="631">6.38498e-12</wgt>
  <wgt id="632">6.11046e-12</wgt>
  <wgt id="633">6.30345e-12</wgt>
  <wgt id="634">6.32337e-12</wgt>
  <wgt id="635">6.18935e-12</wgt>
  <wgt id="636">6.41919e-12</wgt>
  <wgt id="637">6.37514e-12</wgt>
  <wgt id="638">6.14526e-12</wgt>
  <wgt id="639">6.27465e-12</wgt>
  <wgt id="640">6.36307e-12</wgt>
  <wgt id="641">6.43181e-12</wgt>
  <wgt id="642">6.14868e-12</wgt>
  <wgt id="643">6.32397e-12</wgt>
  <wgt id="644">6.02881e-12</wgt>
  <wgt id="645">6.39552e-12</wgt>
  <wgt id="646">6.38746e-12</wgt>
  <wgt id="647">6.2781e-12</wgt>
  <wgt id="648">6.42635e-12</wgt>
  <wgt id="649">6.4311e-12</wgt>
  <wgt id="650">6.21507e-12</wgt>
  <wgt id="651">6.47543e-12</wgt>
  <wgt id="652">6.30844e-12</wgt>
  <wgt id="653">6.1815e-12</wgt>
  <wgt id="654">6.28898e-12</wgt>
  <wgt id="655">6.24929e-12</wgt>
  <wgt id="656">6.34748e-12</wgt>
  <wgt id="657">6.63209e-12</wgt>
  <wgt id="658">6.39759e-12</wgt>
  <wgt id="659">6.10999e-12</wgt>
  <wgt id="660">6.44862e-12</wgt>
  <wgt id="661">6.26878e-12</wgt>
  <wgt id="662">6.32882e-12</wgt>
  <wgt id="663">6.36776e-12</wgt>
  <wgt id="664">6.28651e-12</wgt>
  <wgt id="665">6.34809e-12</wgt>
  <wgt id="666">6.31526e-12</wgt>
  <wgt id="667">6.57894e-12</wgt>
  <wgt id="668">6.34425e-12</wgt>
  <wgt id="669">6.50395e-12</wgt>
  <wgt id="670">6.49097e-12</wgt>
  <wgt id="671">6.29944e-12</wgt>
  <wgt id="672">6.09969e-12</wgt>
  <wgt id="673">6.40142e-12</wgt>
  <wgt id="674">6.22188e-12</wgt>
  <wgt id="675">6.25658e-12</wgt>
  <wgt id="676">7.98444e-12</wgt>
  <wgt id="677">8.08681e-12</wgt>
  <wgt id="678">8.38507e-12</wgt>
  <wgt id="679">7.59381e-12</wgt>
  <wgt id="680">7.80012e-12</wgt>
  <wgt id="681">8.13602e-12</wgt>
  <wgt id="682">8.17701e-12</wgt>
  <wgt id="683">7.8587e-12</wgt>
  <wgt id="684">8.3181e-12</wgt>
  <wgt id="685">7.65335e-12</wgt>
  <wgt id="686">7.86104e-12</wgt>
  <wgt id="687">8.31479e-12</wgt>
  <wgt id="688">7.89308e-12</wgt>
  <wgt id="689">8.4768e-12</wgt>
  <wgt id="690">8.35965e-12</wgt>
  <wgt id="691">8.37682e-12</wgt>
  <wgt id="692">7.92424e-12</wgt>
  <wgt id="693">9.35231e-12</wgt>
  <wgt id="694">8.47313e-12</wgt>
  <wgt id="695">7.72878e-12</wgt>
  <wgt id="696">7.66168e-12</wgt>
  <wgt id="697">7.68837e-12</wgt>
  <wgt id="698">7.33627e-12</wgt>
  <wgt id="699">7.26281e-12</wgt>
  <wgt id="700">7.06923e-12</wgt>
  <wgt id="701">7.99305e-12</wgt>
  <wgt id="702">7.7676e-12</wgt>
  <wgt id="703">9.12134e-12</wgt>
  <wgt id="704">8.70639e-12</wgt>
  <wgt id="705">8.42109e-12</wgt>
  <wgt id="706">7.52169e-12</wgt>
  <wgt id="707">7.66566e-12</wgt>
  <wgt id="708">7.86187e-12</wgt>
  <wgt id="709">7.8337e-12</wgt>
  <wgt id="710">7.26388e-12</wgt>
  <wgt id="711">7.96184e-12</wgt>
  <wgt id="712">7.81069e-12</wgt>
  <wgt id="713">8.5536e-12</wgt>
  <wgt id="714">7.81943e-12</wgt>
  <wgt id="715">7.88122e-12</wgt>
  <wgt id="716">7.70173e-12</wgt>
  <wgt id="717">7.57106e-12</wgt>
  <wgt id="718">7.97533e-12</wgt>
  <wgt id="719">7.28934e-12</wgt>
  <wgt id="720">7.62702e-12</wgt>
  <wgt id="721">7.37409e-12</wgt>
  <wgt id="722">7.10322e-12</wgt>
  <wgt id="723">8.49693e-12</wgt>
  <wgt id="724">8.35155e-12</wgt>
  <wgt id="725">8.39656e-12</wgt>
  <wgt id="726">8.03877e-12</wgt>
  <wgt id="727">7.82684e-12</wgt>
  <wgt id="728">7.82762e-12</wgt>
  <wgt id="729">7.50887e-12</wgt>
  <wgt id="730">8.51832e-12</wgt>
  <wgt id="731">7.87505e-12</wgt>
  <wgt id="732">8.76942e-12</wgt>
  <wgt id="733">7.88591e-12</wgt>
  <wgt id="734">8.16466e-12</wgt>
  <wgt id="735">8.01082e-12</wgt>
  <wgt id="736">7.80832e-12</wgt>
  <wgt id="737">8.07803e-12</wgt>
  <wgt id="738">7.66147e-12</wgt>
  <wgt id="739">8.11935e-12</wgt>
  <wgt id="740">8.86304e-12</wgt>
  <wgt id="741">7.2137e-12</wgt>
  <wgt id="742">7.88455e-12</wgt>
  <wgt id="743">7.64267e-12</wgt>
  <wgt id="744">7.82063e-12</wgt>
  <wgt id="745">8.31867e-12</wgt>
  <wgt id="746">8.45271e-12</wgt>
  <wgt id="747">7.23495e-12</wgt>
  <wgt id="748">7.87195e-12</wgt>
  <wgt id="749">8.37027e-12</wgt>
  <wgt id="750">8.2145e-12</wgt>
  <wgt id="751">8.19676e-12</wgt>
  <wgt id="752">7.35498e-12</wgt>
  <wgt id="753">7.55099e-12</wgt>
  <wgt id="754">8.24791e-12</wgt>
  <wgt id="755">7.99652e-12</wgt>
  <wgt id="756">7.98103e-12</wgt>
  <wgt id="757">7.36095e-12</wgt>
  <wgt id="758">8.01368e-12</wgt>
  <wgt id="759">8.25042e-12</wgt>
  <wgt id="760">8.04831e-12</wgt>
  <wgt id="761">8.42711e-12</wgt>
  <wgt id="762">8.44819e-12</wgt>
  <wgt id="763">7.97765e-12</wgt>
  <wgt id="764">8.28657e-12</wgt>
  <wgt id="765">8.05969e-12</wgt>
  <wgt id="766">7.97124e-12</wgt>
  <wgt id="767">8.15117e-12</wgt>
  <wgt id="768">7.53938e-12</wgt>
  <wgt id="769">8.4423e-12</wgt>
  <wgt id="770">7.83041e-12</wgt>
  <wgt id="771">9.36581e-12</wgt>
  <wgt id="772">7.57365e-12</wgt>
  <wgt id="773">7.93323e-12</wgt>
  <wgt id="774">7.06127e-12</wgt>
  <wgt id="775">8.34332e-12</wgt>
  <wgt id="776">8.66526e-12</wgt>
  <wgt id="777">7.61099e-12</wgt>
  <wgt id="778">5.89513e-12</wgt>
  <wgt id="779">4.83244e-12</wgt>
  <wgt id="780">3.92773e-12</wgt>
  <wgt id="781">6.26703e-12</wgt>
  <wgt id="782">6.29908e-12</wgt>
  <wgt id="783">4.88475e-12</wgt>
  <wgt id="784">5.11756e-12</wgt>
  <wgt id="785">7.2537e-12</wgt>
  <wgt id="786">4.52972e-12</wgt>
  <wgt id="787">6.71267e-12</wgt>
  <wgt id="788">3.61781e-12</wgt>
  <wgt id="789">4.85815e-12</wgt>
  <wgt id="790">4.46853e-12</wgt>
  <wgt id="791">5.67001e-12</wgt>
  <wgt id="792">7.76876e-12</wgt>
  <wgt id="793">5.7915e-12</wgt>
  <wgt id="794">4.46499e-12</wgt>
  <wgt id="795">6.90429e-12</wgt>
  <wgt id="796">7.69141e-12</wgt>
  <wgt id="797">6.8828e-12</wgt>
  <wgt id="798">5.35769e-12</wgt>
  <wgt id="799">6.69064e-12</wgt>
  <wgt id="800">4.87695e-12</wgt>
  <wgt id="801">5.49819e-12</wgt>
  <wgt id="802">4.47989e-12</wgt>
  <wgt id="803">7.93606e-12</wgt>
  <wgt id="804">6.86289e-12</wgt>
  <wgt id="805">6.9394e-12</wgt>
  <wgt id="806">6.52964e-12</wgt>
  <wgt id="807">5.63977e-12</wgt>
  <wgt id="808">5.70873e-12</wgt>
  <wgt id="809">5.46372e-12</wgt>
  <wgt id="810">6.62538e-12</wgt>
  <wgt id="811">6.37199e-12</wgt>
  <wgt id="812">4.47265e-12</wgt>
  <wgt id="813">4.57278e-12</wgt>
  <wgt id="814">4.89815e-12</wgt>
  <wgt id="815">4.8387e-12</wgt>
  <wgt id="816">4.37705e-12</wgt>
  <wgt id="817">6.13672e-12</wgt>
  <wgt id="818">5.97933e-12</wgt>
  <wgt id="819">4.84868e-12</wgt>
  <wgt id="820">5.87016e-12</wgt>
  <wgt id="821">6.72507e-12</wgt>
  <wgt id="822">4.9132e-12</wgt>
  <wgt id="823">6.79874e-12</wgt>
  <wgt id="824">7.90604e-12</wgt>
  <wgt id="825">4.31742e-12</wgt>
  <wgt id="826">6.27367e-12</wgt>
  <wgt id="827">3.61244e-12</wgt>
  <wgt id="828">7.52307e-12</wgt>
  <wgt id="829">6.08581e-12</wgt>
  <wgt id="830">4.10015e-12</wgt>
  <wgt id="831">6.35693e-12</wgt>
  <wgt id="832">9.57753e-12</wgt>
  <wgt id="833">5.44554e-12</wgt>
  <wgt id="834">9.0602e-12</wgt>
  <wgt id="835">4.80964e-12</wgt>
  <wgt id="836">5.74747e-12</wgt>
  <wgt id="837">6.64013e-12</wgt>
  <wgt id="838">5.52219e-12</wgt>
  <wgt id="839">6.32043e-12</wgt>
  <wgt id="840">5.48964e-12</wgt>
  <wgt id="841">7.25435e-12</wgt>
  <wgt id="842">5.41913e-12</wgt>
  <wgt id="843">5.8542e-12</wgt>
  <wgt id="844">6.14828e-12</wgt>
  <wgt id="845">8.41046e-12</wgt>
  <wgt id="846">5.76948e-12</wgt>
  <wgt id="847">5.95994e-12</wgt>
  <wgt id="848">5.01906e-12</wgt>
  <wgt id="849">6.05568e-12</wgt>
  <wgt id="850">7.67532e-12</wgt>
  <wgt id="851">6.47497e-12</wgt>
  <wgt id="852">4.88209e-12</wgt>
  <wgt id="853">6.50124e-12</wgt>
  <wgt id="854">7.19699e-12</wgt>
  <wgt id="855">6.77139e-12</wgt>
  <wgt id="856">4.18305e-12</wgt>
  <wgt id="857">5.84065e-12</wgt>
  <wgt id="858">5.70707e-12</wgt>
  <wgt id="859">5.53415e-12</wgt>
  <wgt id="860">6.41317e-12</wgt>
  <wgt id="861">5.20799e-12</wgt>
  <wgt id="862">5.97242e-12</wgt>
  <wgt id="863">6.2548e-12</wgt>
  <wgt id="864">6.20943e-12</wgt>
  <wgt id="865">8.37025e-12</wgt>
  <wgt id="866">9.19243e-12</wgt>
  <wgt id="867">5.97401e-12</wgt>
  <wgt id="868">5.81328e-12</wgt>
  <wgt id="869">4.53642e-12</wgt>
  <wgt id="870">4.79454e-12</wgt>
  <wgt id="871">4.6565e-12</wgt>
  <wgt id="872">7.06485e-12</wgt>
  <wgt id="873">4.9351e-12</wgt>
  <wgt id="874">6.20817e-12</wgt>
  <wgt id="875">5.10497e-12</wgt>
  <wgt id="876">7.02887e-12</wgt>
  <wgt id="877">6.67673e-12</wgt>
  <wgt id="878">5.03865e-12</wgt>
  <wgt id="879">7.98444e-12</wgt>
  <wgt id="880">8.08681e-12</wgt>
  <wgt id="881">8.38507e-12</wgt>
  <wgt id="882">7.59381e-12</wgt>
  <wgt id="883">7.80012e-12</wgt>
  <wgt id="884">8.13602e-12</wgt>
  <wgt id="885">8.17701e-12</wgt>
  <wgt id="886">7.8587e-12</wgt>
  <wgt id="887">8.3181e-12</wgt>
  <wgt id="888">7.65335e-12</wgt>
  <wgt id="889">7.86104e-12</wgt>
  <wgt id="890">8.31479e-12</wgt>
  <wgt id="891">7.89308e-12</wgt>
  <wgt id="892">8.4768e-12</wgt>
  <wgt id="893">8.35965e-12</wgt>
  <wgt id="894">8.37682e-12</wgt>
  <wgt id="895">7.92424e-12</wgt>
  <wgt id="896">9.35231e-12</wgt>
  <wgt id="897">8.47313e-12</wgt>
  <wgt id="898">7.72878e-12</wgt>
  <wgt id="899">7.66168e-12</wgt>
  <wgt id="900">7.68837e-12</wgt>
  <wgt id="901">7.33627e-12</wgt>
  <wgt id="902">7.26281e-12</wgt>
  <wgt id="903">7.06923e-12</wgt>
  <wgt id="904">7.99305e-12</wgt>
  <wgt id="905">7.7676e-12</wgt>
  <wgt id="906">9.12134e-12</wgt>
  <wgt id="907">8.70639e-12</wgt>
  <wgt id="908">8.42109e-12</wgt>
  <wgt id="909">7.52169e-12</wgt>
  <wgt id="910">7.66566e-12</wgt>
  <wgt id="911">7.86187e-12</wgt>
  <wgt id="912">7.8337e-12</wgt>
  <wgt id="913">7.26388e-12</wgt>
  <wgt id="914">7.96184e-12</wgt>
  <wgt id="915">7.81069e-12</wgt>
  <wgt id="916">8.5536e-12</wgt>
  <wgt id="917">7.81943e-12</wgt>
  <wgt id="918">7.88122e-12</wgt>
  <wgt id="919">7.70173e-12</wgt>
  <wgt id="920">7.57106e-12</wgt>
  <wgt id="921">7.97533e-12</wgt>
  <wgt id="922">7.28934e-12</wgt>
  <wgt id="923">7.62702e-12</wgt>
  <wgt id="924">7.37409e-12</wgt>
  <wgt id="925">7.10322e-12</wgt>
  <wgt id="926">8.49693e-12</wgt>
  <wgt id="927">8.35155e-12</wgt>
  <wgt id="928">8.39656e-12</wgt>
  <wgt id="929">8.03877e-12</wgt>
  <wgt id="930">7.82684e-12</wgt>
  <wgt id="931">7.82762e-12</wgt>
  <wgt id="932">7.50887e-12</wgt>
  <wgt id="933">8.51832e-12</wgt>
  <wgt id="934">7.87505e-12</wgt>
  <wgt id="935">8.76942e-12</wgt>
  <wgt id="936">7.88591e-12</wgt>
  <wgt id="937">8.16466e-12</wgt>
  <wgt id="938">8.01082e-12</wgt>
  <wgt id="939">7.80832e-12</wgt>
  <wgt id="940">8.07803e-12</wgt>
  <wgt id="941">7.66147e-12</wgt>
  <wgt id="942">8.11935e-12</wgt>
  <wgt id="943">8.86304e-12</wgt>
  <wgt id="944">7.2137e-12</wgt>
  <wgt id="945">7.88455e-12</wgt>
  <wgt id="946">7.64267e-12</wgt>
  <wgt id="947">7.82063e-12</wgt>
  <wgt id="948">8.31867e-12</wgt>
  <wgt id="949">8.45271e-12</wgt>
  <wgt id="950">7.23495e-12</wgt>
  <wgt id="951">7.87195e-12</wgt>
  <wgt id="952">8.37027e-12</wgt>
  <wgt id="953">8.2145e-12</wgt>
  <wgt id="954">8.19676e-12</wgt>
  <wgt id="955">7.35498e-12</wgt>
  <wgt id="956">7.55099e-12</wgt>
  <wgt id="957">8.24791e-12</wgt>
  <wgt id="958">7.99652e-12</wgt>
  <wgt id="959">7.98103e-12</wgt>
  <wgt id="960">7.36095e-12</wgt>
  <wgt id="961">8.01368e-12</wgt>
  <wgt id="962">8.25042e-12</wgt>
  <wgt id="963">8.04831e-12</wgt>
  <wgt id="964">8.42711e-12</wgt>
  <wgt id="965">8.44819e-12</wgt>
  <wgt id="966">7.97765e-12</wgt>
  <wgt id="967">8.28657e-12</wgt>
  <wgt id="968">8.05969e-12</wgt>
  <wgt id="969">7.97124e-12</wgt>
  <wgt id="970">8.15117e-12</wgt>
  <wgt id="971">7.53938e-12</wgt>
  <wgt id="972">8.4423e-12</wgt>
  <wgt id="973">7.83041e-12</wgt>
  <wgt id="974">9.36581e-12</wgt>
  <wgt id="975">7.57365e-12</wgt>
  <wgt id="976">7.93323e-12</wgt>
  <wgt id="977">7.06127e-12</wgt>
  <wgt id="978">8.34332e-12</wgt>
  <wgt id="979">8.66526e-12</wgt>
  <wgt id="980">7.98085e-12</wgt>
  <wgt id="981">8.02334e-12</wgt>
  <wgt id="982">7.74988e-12</wgt>
</rwgt>
</event>
<event>
 5   1  0.5790000E-11  0.2182889E+04  0.7818608E-02  0.7755345E-01
       21   -1    0    0  502  501  0.00000000000E+00  0.00000000000E+00  0.97456630959E+03  0.97456630959E+03  0.00000000000E+00 0.  1.
       21   -1    0    0  501  502 -0.00000000000E+00 -0.00000000000E+00 -0.12223400248E+04  0.12223400248E+04  0.00000000000E+00 0. -1.
       39    2    1    2    0    0  0.00000000000E+00  0.00000000000E+00 -0.24777371518E+03  0.21969063344E+04  0.21828892844E+04 0.  0.
       25    1    3    3    0    0 -0.82121529249E+03  0.67117649125E+03  0.10284619379E+03  0.10728815305E+04  0.12500000000E+03 0.  0.
       25    1    3    3    0    0  0.82121529249E+03 -0.67117649125E+03 -0.35061990898E+03  0.11240248038E+04  0.12500000000E+03 0.  0.
<mgrwt>
<rscale>  0 0.21828893E+04</rscale>
<asrwt>0</asrwt>
<pdfrwt beam="1">  1       21 0.14993328E+00 0.21828893E+04</pdfrwt>
<pdfrwt beam="2">  1       21 0.18805231E+00 0.21828893E+04</pdfrwt>
<totfact> 0.19709161E+01</totfact>
</mgrwt>
<rwgt>
  <wgt id="1">5.79e-12</wgt>
  <wgt id="2">5.0574e-12</wgt>
  <wgt id="3">6.6961e-12</wgt>
  <wgt id="4">5.79e-12</wgt>
  <wgt id="5">5.0574e-12</wgt>
  <wgt id="6">6.6961e-12</wgt>
  <wgt id="7">5.79e-12</wgt>
  <wgt id="8">5.0574e-12</wgt>
  <wgt id="9">6.6961e-12</wgt>
  <wgt id="10">5.95267e-12</wgt>
  <wgt id="11">5.9467e-12</wgt>
  <wgt id="12">5.94115e-12</wgt>
  <wgt id="13">5.93222e-12</wgt>
  <wgt id="14">5.97376e-12</wgt>
  <wgt id="15">5.96107e-12</wgt>
  <wgt id="16">5.93939e-12</wgt>
  <wgt id="17">5.96221e-12</wgt>
  <wgt id="18">5.94481e-12</wgt>
  <wgt id="19">5.96481e-12</wgt>
  <wgt id="20">5.93479e-12</wgt>
  <wgt id="21">5.9218e-12</wgt>
  <wgt id="22">5.93542e-12</wgt>
  <wgt id="23">5.90326e-12</wgt>
  <wgt id="24">5.92726e-12</wgt>
  <wgt id="25">5.93829e-12</wgt>
  <wgt id="26">5.97747e-12</wgt>
  <wgt id="27">5.95224e-12</wgt>
  <wgt id="28">5.92485e-12</wgt>
  <wgt id="29">5.95904e-12</wgt>
  <wgt id="30">5.93848e-12</wgt>
  <wgt id="31">5.96779e-12</wgt>
  <wgt id="32">5.94061e-12</wgt>
  <wgt id="33">5.96543e-12</wgt>
  <wgt id="34">5.93597e-12</wgt>
  <wgt id="35">5.94586e-12</wgt>
  <wgt id="36">5.96625e-12</wgt>
  <wgt id="37">5.93758e-12</wgt>
  <wgt id="38">5.9385e-12</wgt>
  <wgt id="39">6.01204e-12</wgt>
  <wgt id="40">5.96797e-12</wgt>
  <wgt id="41">5.95133e-12</wgt>
  <wgt id="42">5.97219e-12</wgt>
  <wgt id="43">5.95841e-12</wgt>
  <wgt id="44">5.92731e-12</wgt>
  <wgt id="45">5.96161e-12</wgt>
  <wgt id="46">5.95984e-12</wgt>
  <wgt id="47">5.92566e-12</wgt>
  <wgt id="48">5.95339e-12</wgt>
  <wgt id="49">5.97709e-12</wgt>
  <wgt id="50">5.99207e-12</wgt>
  <wgt id="51">5.97821e-12</wgt>
  <wgt id="52">5.93033e-12</wgt>
  <wgt id="53">5.91699e-12</wgt>
  <wgt id="54">5.94055e-12</wgt>
  <wgt id="55">5.95104e-12</wgt>
  <wgt id="56">5.97018e-12</wgt>
  <wgt id="57">5.97333e-12</wgt>
  <wgt id="58">5.91182e-12</wgt>
  <wgt id="59">5.93298e-12</wgt>
  <wgt id="60">5.95397e-12</wgt>
  <wgt id="61">5.94814e-12</wgt>
  <wgt id="62">5.95369e-12</wgt>
  <wgt id="63">5.96127e-12</wgt>
  <wgt id="64">5.95967e-12</wgt>
  <wgt id="65">5.95768e-12</wgt>
  <wgt id="66">5.94574e-12</wgt>
  <wgt id="67">5.94718e-12</wgt>
  <wgt id="68">5.9466e-12</wgt>
  <wgt id="69">5.9505e-12</wgt>
  <wgt id="70">5.94844e-12</wgt>
  <wgt id="71">5.94922e-12</wgt>
  <wgt id="72">5.94674e-12</wgt>
  <wgt id="73">5.95711e-12</wgt>
  <wgt id="74">5.95538e-12</wgt>
  <wgt id="75">5.95264e-12</wgt>
  <wgt id="76">5.9668e-12</wgt>
  <wgt id="77">5.9518e-12</wgt>
  <wgt id="78">5.95449e-12</wgt>
  <wgt id="79">5.96181e-12</wgt>
  <wgt id="80">5.93031e-12</wgt>
  <wgt id="81">5.94557e-12</wgt>
  <wgt id="82">5.95282e-12</wgt>
  <wgt id="83">5.93326e-12</wgt>
  <wgt id="84">5.94139e-12</wgt>
  <wgt id="85">5.9443e-12</wgt>
  <wgt id="86">5.96327e-12</wgt>
  <wgt id="87">5.92816e-12</wgt>
  <wgt id="88">5.95842e-12</wgt>
  <wgt id="89">5.95753e-12</wgt>
  <wgt id="90">5.95909e-12</wgt>
  <wgt id="91">5.95629e-12</wgt>
  <wgt id="92">5.96215e-12</wgt>
  <wgt id="93">5.95196e-12</wgt>
  <wgt id="94">5.94847e-12</wgt>
  <wgt id="95">5.95565e-12</wgt>
  <wgt id="96">5.95596e-12</wgt>
  <wgt id="97">5.94618e-12</wgt>
  <wgt id="98">5.95546e-12</wgt>
  <wgt id="99">5.95043e-12</wgt>
  <wgt id="100">5.95793e-12</wgt>
  <wgt id="101">5.95118e-12</wgt>
  <wgt id="102">5.94768e-12</wgt>
  <wgt id="103">5.95946e-12</wgt>
  <wgt id="104">5.94874e-12</wgt>
  <wgt id="105">5.95726e-12</wgt>
  <wgt id="106">5.94635e-12</wgt>
  <wgt id="107">5.96616e-12</wgt>
  <wgt id="108">5.94758e-12</wgt>
  <wgt id="109">5.95495e-12</wgt>
  <wgt id="110">5.9516e-12</wgt>
  <wgt id="111">6.02389e-12</wgt>
  <wgt id="112">5.93832e-12</wgt>
  <wgt id="113">7.83321e-12</wgt>
  <wgt id="114">8.16053e-12</wgt>
  <wgt id="115">8.0504e-12</wgt>
  <wgt id="116">1.10142e-11</wgt>
  <wgt id="117">6.55498e-12</wgt>
  <wgt id="118">6.57616e-12</wgt>
  <wgt id="119">6.54318e-12</wgt>
  <wgt id="120">6.55583e-12</wgt>
  <wgt id="121">6.55463e-12</wgt>
  <wgt id="122">6.54323e-12</wgt>
  <wgt id="123">6.57134e-12</wgt>
  <wgt id="124">6.54546e-12</wgt>
  <wgt id="125">6.56134e-12</wgt>
  <wgt id="126">6.56613e-12</wgt>
  <wgt id="127">6.54777e-12</wgt>
  <wgt id="128">6.57563e-12</wgt>
  <wgt id="129">6.53468e-12</wgt>
  <wgt id="130">6.5929e-12</wgt>
  <wgt id="131">6.51632e-12</wgt>
  <wgt id="132">6.39053e-12</wgt>
  <wgt id="133">6.74893e-12</wgt>
  <wgt id="134">6.48776e-12</wgt>
  <wgt id="135">6.60751e-12</wgt>
  <wgt id="136">6.6336e-12</wgt>
  <wgt id="137">6.45998e-12</wgt>
  <wgt id="138">6.79336e-12</wgt>
  <wgt id="139">6.32359e-12</wgt>
  <wgt id="140">6.50996e-12</wgt>
  <wgt id="141">6.5904e-12</wgt>
  <wgt id="142">6.55617e-12</wgt>
  <wgt id="143">6.56257e-12</wgt>
  <wgt id="144">6.39795e-12</wgt>
  <wgt id="145">6.69877e-12</wgt>
  <wgt id="146">6.60491e-12</wgt>
  <wgt id="147">6.51622e-12</wgt>
  <wgt id="148">6.57369e-12</wgt>
  <wgt id="149">6.5537e-12</wgt>
  <wgt id="150">6.61026e-12</wgt>
  <wgt id="151">6.52924e-12</wgt>
  <wgt id="152">6.5577e-12</wgt>
  <wgt id="153">6.55415e-12</wgt>
  <wgt id="154">6.61398e-12</wgt>
  <wgt id="155">6.48627e-12</wgt>
  <wgt id="156">6.66008e-12</wgt>
  <wgt id="157">6.43679e-12</wgt>
  <wgt id="158">7.88919e-12</wgt>
  <wgt id="159">7.9218e-12</wgt>
  <wgt id="160">7.86271e-12</wgt>
  <wgt id="161">7.87048e-12</wgt>
  <wgt id="162">7.90973e-12</wgt>
  <wgt id="163">7.88127e-12</wgt>
  <wgt id="164">7.90101e-12</wgt>
  <wgt id="165">7.89225e-12</wgt>
  <wgt id="166">7.88689e-12</wgt>
  <wgt id="167">7.88338e-12</wgt>
  <wgt id="168">7.89731e-12</wgt>
  <wgt id="169">7.85522e-12</wgt>
  <wgt id="170">7.91049e-12</wgt>
  <wgt id="171">7.88094e-12</wgt>
  <wgt id="172">7.90081e-12</wgt>
  <wgt id="173">7.89075e-12</wgt>
  <wgt id="174">7.88831e-12</wgt>
  <wgt id="175">7.67676e-12</wgt>
  <wgt id="176">8.16505e-12</wgt>
  <wgt id="177">7.92878e-12</wgt>
  <wgt id="178">7.8523e-12</wgt>
  <wgt id="179">8.19587e-12</wgt>
  <wgt id="180">7.40218e-12</wgt>
  <wgt id="181">7.67372e-12</wgt>
  <wgt id="182">8.03103e-12</wgt>
  <wgt id="183">7.75719e-12</wgt>
  <wgt id="184">7.95462e-12</wgt>
  <wgt id="185">7.82955e-12</wgt>
  <wgt id="186">7.95949e-12</wgt>
  <wgt id="187">7.82176e-12</wgt>
  <wgt id="188">8.01087e-12</wgt>
  <wgt id="189">7.84244e-12</wgt>
  <wgt id="190">7.90839e-12</wgt>
  <wgt id="191">7.90901e-12</wgt>
  <wgt id="192">7.87745e-12</wgt>
  <wgt id="193">7.99312e-12</wgt>
  <wgt id="194">7.83775e-12</wgt>
  <wgt id="195">7.73023e-12</wgt>
  <wgt id="196">8.19023e-12</wgt>
  <wgt id="197">7.92627e-12</wgt>
  <wgt id="198">7.88027e-12</wgt>
  <wgt id="199">7.88919e-12</wgt>
  <wgt id="200">7.95327e-12</wgt>
  <wgt id="201">7.92936e-12</wgt>
  <wgt id="202">7.90648e-12</wgt>
  <wgt id="203">7.87148e-12</wgt>
  <wgt id="204">7.85507e-12</wgt>
  <wgt id="205">7.84142e-12</wgt>
  <wgt id="206">7.67981e-12</wgt>
  <wgt id="207">7.72414e-12</wgt>
  <wgt id="208">7.63592e-12</wgt>
  <wgt id="209">7.70081e-12</wgt>
  <wgt id="210">7.66433e-12</wgt>
  <wgt id="211">7.6775e-12</wgt>
  <wgt id="212">7.68162e-12</wgt>
  <wgt id="213">7.6791e-12</wgt>
  <wgt id="214">7.68091e-12</wgt>
  <wgt id="215">7.68477e-12</wgt>
  <wgt id="216">7.67618e-12</wgt>
  <wgt id="217">7.70098e-12</wgt>
  <wgt id="218">7.66344e-12</wgt>
  <wgt id="219">7.67026e-12</wgt>
  <wgt id="220">7.68554e-12</wgt>
  <wgt id="221">7.67584e-12</wgt>
  <wgt id="222">7.68905e-12</wgt>
  <wgt id="223">7.29287e-12</wgt>
  <wgt id="224">8.03097e-12</wgt>
  <wgt id="225">7.59344e-12</wgt>
  <wgt id="226">7.78788e-12</wgt>
  <wgt id="227">7.61054e-12</wgt>
  <wgt id="228">7.71021e-12</wgt>
  <wgt id="229">7.57756e-12</wgt>
  <wgt id="230">7.73062e-12</wgt>
  <wgt id="231">7.88621e-12</wgt>
  <wgt id="232">7.50965e-12</wgt>
  <wgt id="233">7.64254e-12</wgt>
  <wgt id="234">7.73626e-12</wgt>
  <wgt id="235">7.5601e-12</wgt>
  <wgt id="236">7.80069e-12</wgt>
  <wgt id="237">7.59225e-12</wgt>
  <wgt id="238">7.71003e-12</wgt>
  <wgt id="239">7.6406e-12</wgt>
  <wgt id="240">7.75113e-12</wgt>
  <wgt id="241">7.60755e-12</wgt>
  <wgt id="242">7.76667e-12</wgt>
  <wgt id="243">7.75315e-12</wgt>
  <wgt id="244">7.73146e-12</wgt>
  <wgt id="245">7.67327e-12</wgt>
  <wgt id="246">7.73998e-12</wgt>
  <wgt id="247">7.67981e-12</wgt>
  <wgt id="248">7.74241e-12</wgt>
  <wgt id="249">7.71809e-12</wgt>
  <wgt id="250">7.69583e-12</wgt>
  <wgt id="251">7.66174e-12</wgt>
  <wgt id="252">7.64597e-12</wgt>
  <wgt id="253">7.63426e-12</wgt>
  <wgt id="254">7.52734e-12</wgt>
  <wgt id="255">7.53467e-12</wgt>
  <wgt id="256">7.51949e-12</wgt>
  <wgt id="257">7.53325e-12</wgt>
  <wgt id="258">7.52299e-12</wgt>
  <wgt id="259">7.57741e-12</wgt>
  <wgt id="260">7.47917e-12</wgt>
  <wgt id="261">7.53573e-12</wgt>
  <wgt id="262">7.51748e-12</wgt>
  <wgt id="263">7.52472e-12</wgt>
  <wgt id="264">7.53035e-12</wgt>
  <wgt id="265">7.51951e-12</wgt>
  <wgt id="266">7.54285e-12</wgt>
  <wgt id="267">7.52969e-12</wgt>
  <wgt id="268">7.5243e-12</wgt>
  <wgt id="269">7.54953e-12</wgt>
  <wgt id="270">7.5123e-12</wgt>
  <wgt id="271">7.51525e-12</wgt>
  <wgt id="272">7.54082e-12</wgt>
  <wgt id="273">7.50492e-12</wgt>
  <wgt id="274">7.5446e-12</wgt>
  <wgt id="275">7.49986e-12</wgt>
  <wgt id="276">7.55571e-12</wgt>
  <wgt id="277">7.48648e-12</wgt>
  <wgt id="278">7.56502e-12</wgt>
  <wgt id="279">7.39003e-12</wgt>
  <wgt id="280">7.6991e-12</wgt>
  <wgt id="281">7.49666e-12</wgt>
  <wgt id="282">7.52772e-12</wgt>
  <wgt id="283">7.32754e-12</wgt>
  <wgt id="284">7.77237e-12</wgt>
  <wgt id="285">7.19382e-12</wgt>
  <wgt id="286">7.8011e-12</wgt>
  <wgt id="287">7.5493e-12</wgt>
  <wgt id="288">7.49927e-12</wgt>
  <wgt id="289">7.57596e-12</wgt>
  <wgt id="290">7.41213e-12</wgt>
  <wgt id="291">7.51022e-12</wgt>
  <wgt id="292">7.53163e-12</wgt>
  <wgt id="293">7.474e-12</wgt>
  <wgt id="294">7.58028e-12</wgt>
  <wgt id="295">7.39468e-12</wgt>
  <wgt id="296">7.68884e-12</wgt>
  <wgt id="297">7.53175e-12</wgt>
  <wgt id="298">7.55019e-12</wgt>
  <wgt id="299">7.50508e-12</wgt>
  <wgt id="300">7.58612e-12</wgt>
  <wgt id="301">7.44785e-12</wgt>
  <wgt id="302">7.74652e-12</wgt>
  <wgt id="303">7.48134e-12</wgt>
  <wgt id="304">7.55432e-12</wgt>
  <wgt id="305">7.56962e-12</wgt>
  <wgt id="306">7.57751e-12</wgt>
  <wgt id="307">7.56147e-12</wgt>
  <wgt id="308">7.57628e-12</wgt>
  <wgt id="309">7.56526e-12</wgt>
  <wgt id="310">7.62178e-12</wgt>
  <wgt id="311">7.52144e-12</wgt>
  <wgt id="312">7.57576e-12</wgt>
  <wgt id="313">7.56391e-12</wgt>
  <wgt id="314">7.56726e-12</wgt>
  <wgt id="315">7.57224e-12</wgt>
  <wgt id="316">7.56237e-12</wgt>
  <wgt id="317">7.5859e-12</wgt>
  <wgt id="318">7.57477e-12</wgt>
  <wgt id="319">7.56135e-12</wgt>
  <wgt id="320">7.59278e-12</wgt>
  <wgt id="321">7.55697e-12</wgt>
  <wgt id="322">7.55352e-12</wgt>
  <wgt id="323">7.58892e-12</wgt>
  <wgt id="324">7.55096e-12</wgt>
  <wgt id="325">7.58624e-12</wgt>
  <wgt id="326">7.54764e-12</wgt>
  <wgt id="327">7.59803e-12</wgt>
  <wgt id="328">7.53241e-12</wgt>
  <wgt id="329">7.59123e-12</wgt>
  <wgt id="330">7.78344e-12</wgt>
  <wgt id="331">7.36537e-12</wgt>
  <wgt id="332">7.54439e-12</wgt>
  <wgt id="333">7.56915e-12</wgt>
  <wgt id="334">7.41166e-12</wgt>
  <wgt id="335">7.76527e-12</wgt>
  <wgt id="336">7.32621e-12</wgt>
  <wgt id="337">7.86383e-12</wgt>
  <wgt id="338">7.64763e-12</wgt>
  <wgt id="339">7.49734e-12</wgt>
  <wgt id="340">7.61635e-12</wgt>
  <wgt id="341">7.44825e-12</wgt>
  <wgt id="342">7.55812e-12</wgt>
  <wgt id="343">7.56331e-12</wgt>
  <wgt id="344">7.52069e-12</wgt>
  <wgt id="345">7.62653e-12</wgt>
  <wgt id="346">7.43135e-12</wgt>
  <wgt id="347">7.72896e-12</wgt>
  <wgt id="348">7.57801e-12</wgt>
  <wgt id="349">7.58721e-12</wgt>
  <wgt id="350">7.54139e-12</wgt>
  <wgt id="351">7.64159e-12</wgt>
  <wgt id="352">7.47999e-12</wgt>
  <wgt id="353">7.80328e-12</wgt>
  <wgt id="354">7.49825e-12</wgt>
  <wgt id="355">7.61442e-12</wgt>
  <wgt id="356">7.52734e-12</wgt>
  <wgt id="357">7.60619e-12</wgt>
  <wgt id="358">7.56962e-12</wgt>
  <wgt id="359">7.55918e-12</wgt>
  <wgt id="360">7.5591e-12</wgt>
  <wgt id="361">7.54695e-12</wgt>
  <wgt id="362">7.66756e-12</wgt>
  <wgt id="363">7.65045e-12</wgt>
  <wgt id="364">7.62779e-12</wgt>
  <wgt id="365">7.60404e-12</wgt>
  <wgt id="366">7.57693e-12</wgt>
  <wgt id="367">7.51984e-12</wgt>
  <wgt id="368">7.4891e-12</wgt>
  <wgt id="369">7.4561e-12</wgt>
  <wgt id="370">7.54695e-12</wgt>
  <wgt id="371">7.58037e-12</wgt>
  <wgt id="372">7.56195e-12</wgt>
  <wgt id="373">7.53457e-12</wgt>
  <wgt id="374">7.52985e-12</wgt>
  <wgt id="375">7.95371e-12</wgt>
  <wgt id="376">7.9547e-12</wgt>
  <wgt id="377">7.95249e-12</wgt>
  <wgt id="378">7.98206e-12</wgt>
  <wgt id="379">7.92543e-12</wgt>
  <wgt id="380">7.97519e-12</wgt>
  <wgt id="381">7.94504e-12</wgt>
  <wgt id="382">7.99246e-12</wgt>
  <wgt id="383">7.91533e-12</wgt>
  <wgt id="384">7.95886e-12</wgt>
  <wgt id="385">7.94876e-12</wgt>
  <wgt id="386">7.98355e-12</wgt>
  <wgt id="387">7.94068e-12</wgt>
  <wgt id="388">7.94652e-12</wgt>
  <wgt id="389">7.96235e-12</wgt>
  <wgt id="390">7.97427e-12</wgt>
  <wgt id="391">7.932e-12</wgt>
  <wgt id="392">7.89993e-12</wgt>
  <wgt id="393">7.98415e-12</wgt>
  <wgt id="394">7.96517e-12</wgt>
  <wgt id="395">7.93787e-12</wgt>
  <wgt id="396">7.95562e-12</wgt>
  <wgt id="397">7.95231e-12</wgt>
  <wgt id="398">7.92091e-12</wgt>
  <wgt id="399">7.98532e-12</wgt>
  <wgt id="400">7.94125e-12</wgt>
  <wgt id="401">7.98134e-12</wgt>
  <wgt id="402">7.89435e-12</wgt>
  <wgt id="403">7.97735e-12</wgt>
  <wgt id="404">8.12059e-12</wgt>
  <wgt id="405">7.54971e-12</wgt>
  <wgt id="406">7.83359e-12</wgt>
  <wgt id="407">8.21231e-12</wgt>
  <wgt id="408">8.01533e-12</wgt>
  <wgt id="409">7.83488e-12</wgt>
  <wgt id="410">7.75543e-12</wgt>
  <wgt id="411">8.04401e-12</wgt>
  <wgt id="412">7.94119e-12</wgt>
  <wgt id="413">7.97103e-12</wgt>
  <wgt id="414">7.87458e-12</wgt>
  <wgt id="415">8.01502e-12</wgt>
  <wgt id="416">8.13859e-12</wgt>
  <wgt id="417">7.69761e-12</wgt>
  <wgt id="418">7.96318e-12</wgt>
  <wgt id="419">7.90275e-12</wgt>
  <wgt id="420">8.04203e-12</wgt>
  <wgt id="421">7.90888e-12</wgt>
  <wgt id="422">7.95236e-12</wgt>
  <wgt id="423">7.95646e-12</wgt>
  <wgt id="424">8.08491e-12</wgt>
  <wgt id="425">7.87429e-12</wgt>
  <wgt id="426">7.95371e-12</wgt>
  <wgt id="427">7.90152e-12</wgt>
  <wgt id="428">8.11954e-12</wgt>
  <wgt id="429">8.01295e-12</wgt>
  <wgt id="430">8.21995e-12</wgt>
  <wgt id="431">8.17884e-12</wgt>
  <wgt id="432">8.13949e-12</wgt>
  <wgt id="433">8.10134e-12</wgt>
  <wgt id="434">8.05593e-12</wgt>
  <wgt id="435">7.95904e-12</wgt>
  <wgt id="436">7.90882e-12</wgt>
  <wgt id="437">7.86141e-12</wgt>
  <wgt id="438">8.01295e-12</wgt>
  <wgt id="439">8.03935e-12</wgt>
  <wgt id="440">8.02403e-12</wgt>
  <wgt id="441">8.0045e-12</wgt>
  <wgt id="442">7.99729e-12</wgt>
  <wgt id="443">7.8499e-12</wgt>
  <wgt id="444">7.88371e-12</wgt>
  <wgt id="445">7.81909e-12</wgt>
  <wgt id="446">7.80333e-12</wgt>
  <wgt id="447">7.82282e-12</wgt>
  <wgt id="448">7.65828e-12</wgt>
  <wgt id="449">7.95924e-12</wgt>
  <wgt id="450">7.81485e-12</wgt>
  <wgt id="451">7.83945e-12</wgt>
  <wgt id="452">8.00797e-12</wgt>
  <wgt id="453">7.91051e-12</wgt>
  <wgt id="454">7.55803e-12</wgt>
  <wgt id="455">7.85799e-12</wgt>
  <wgt id="456">7.73287e-12</wgt>
  <wgt id="457">7.87771e-12</wgt>
  <wgt id="458">7.93023e-12</wgt>
  <wgt id="459">7.8966e-12</wgt>
  <wgt id="460">7.8889e-12</wgt>
  <wgt id="461">7.72786e-12</wgt>
  <wgt id="462">7.79562e-12</wgt>
  <wgt id="463">7.7768e-12</wgt>
  <wgt id="464">7.81327e-12</wgt>
  <wgt id="465">7.9193e-12</wgt>
  <wgt id="466">7.77446e-12</wgt>
  <wgt id="467">7.78468e-12</wgt>
  <wgt id="468">7.83126e-12</wgt>
  <wgt id="469">7.8321e-12</wgt>
  <wgt id="470">7.78822e-12</wgt>
  <wgt id="471">7.79185e-12</wgt>
  <wgt id="472">7.88029e-12</wgt>
  <wgt id="473">7.63378e-12</wgt>
  <wgt id="474">5.79e-12</wgt>
  <wgt id="475">6.1585e-12</wgt>
  <wgt id="476">5.67613e-12</wgt>
  <wgt id="477">5.68031e-12</wgt>
  <wgt id="478">5.82208e-12</wgt>
  <wgt id="479">5.72047e-12</wgt>
  <wgt id="480">5.96246e-12</wgt>
  <wgt id="481">5.64143e-12</wgt>
  <wgt id="482">5.55577e-12</wgt>
  <wgt id="483">5.64299e-12</wgt>
  <wgt id="484">6.21181e-12</wgt>
  <wgt id="485">5.81263e-12</wgt>
  <wgt id="486">5.87932e-12</wgt>
  <wgt id="487">5.87538e-12</wgt>
  <wgt id="488">5.85702e-12</wgt>
  <wgt id="489">5.58943e-12</wgt>
  <wgt id="490">5.626e-12</wgt>
  <wgt id="491">5.72711e-12</wgt>
  <wgt id="492">5.60977e-12</wgt>
  <wgt id="493">5.59673e-12</wgt>
  <wgt id="494">5.62024e-12</wgt>
  <wgt id="495">5.89228e-12</wgt>
  <wgt id="496">5.59417e-12</wgt>
  <wgt id="497">5.58815e-12</wgt>
  <wgt id="498">5.85408e-12</wgt>
  <wgt id="499">5.64141e-12</wgt>
  <wgt id="500">5.68986e-12</wgt>
  <wgt id="501">6.03344e-12</wgt>
  <wgt id="502">5.62896e-12</wgt>
  <wgt id="503">5.76996e-12</wgt>
  <wgt id="504">5.79092e-12</wgt>
  <wgt id="505">5.86183e-12</wgt>
  <wgt id="506">5.87363e-12</wgt>
  <wgt id="507">5.72273e-12</wgt>
  <wgt id="508">5.87848e-12</wgt>
  <wgt id="509">5.7628e-12</wgt>
  <wgt id="510">5.92131e-12</wgt>
  <wgt id="511">5.66876e-12</wgt>
  <wgt id="512">5.85193e-12</wgt>
  <wgt id="513">5.99379e-12</wgt>
  <wgt id="514">5.73925e-12</wgt>
  <wgt id="515">5.71771e-12</wgt>
  <wgt id="516">5.93467e-12</wgt>
  <wgt id="517">5.91737e-12</wgt>
  <wgt id="518">5.93913e-12</wgt>
  <wgt id="519">5.65887e-12</wgt>
  <wgt id="520">5.81307e-12</wgt>
  <wgt id="521">6.00079e-12</wgt>
  <wgt id="522">6.0032e-12</wgt>
  <wgt id="523">5.90952e-12</wgt>
  <wgt id="524">5.90572e-12</wgt>
  <wgt id="525">5.92987e-12</wgt>
  <wgt id="526">5.77957e-12</wgt>
  <wgt id="527">5.89737e-12</wgt>
  <wgt id="528">5.78409e-12</wgt>
  <wgt id="529">5.71948e-12</wgt>
  <wgt id="530">5.81754e-12</wgt>
  <wgt id="531">5.71716e-12</wgt>
  <wgt id="532">6.08516e-12</wgt>
  <wgt id="533">5.44313e-12</wgt>
  <wgt id="534">5.79773e-12</wgt>
  <wgt id="535">5.88848e-12</wgt>
  <wgt id="536">5.79986e-12</wgt>
  <wgt id="537">5.81148e-12</wgt>
  <wgt id="538">5.88903e-12</wgt>
  <wgt id="539">5.65934e-12</wgt>
  <wgt id="540">5.73117e-12</wgt>
  <wgt id="541">5.70047e-12</wgt>
  <wgt id="542">5.66086e-12</wgt>
  <wgt id="543">5.78017e-12</wgt>
  <wgt id="544">6.06924e-12</wgt>
  <wgt id="545">5.71521e-12</wgt>
  <wgt id="546">5.7357e-12</wgt>
  <wgt id="547">5.61859e-12</wgt>
  <wgt id="548">5.55577e-12</wgt>
  <wgt id="549">5.70294e-12</wgt>
  <wgt id="550">5.82271e-12</wgt>
  <wgt id="551">5.85845e-12</wgt>
  <wgt id="552">5.74066e-12</wgt>
  <wgt id="553">5.77775e-12</wgt>
  <wgt id="554">6.22067e-12</wgt>
  <wgt id="555">5.94989e-12</wgt>
  <wgt id="556">5.626e-12</wgt>
  <wgt id="557">5.87346e-12</wgt>
  <wgt id="558">5.6014e-12</wgt>
  <wgt id="559">5.72348e-12</wgt>
  <wgt id="560">6.24e-12</wgt>
  <wgt id="561">5.65329e-12</wgt>
  <wgt id="562">5.86048e-12</wgt>
  <wgt id="563">5.64361e-12</wgt>
  <wgt id="564">5.78133e-12</wgt>
  <wgt id="565">5.60628e-12</wgt>
  <wgt id="566">5.84754e-12</wgt>
  <wgt id="567">5.70002e-12</wgt>
  <wgt id="568">5.79458e-12</wgt>
  <wgt id="569">5.83672e-12</wgt>
  <wgt id="570">5.65958e-12</wgt>
  <wgt id="571">6.39725e-12</wgt>
  <wgt id="572">5.66388e-12</wgt>
  <wgt id="573">5.53211e-12</wgt>
  <wgt id="574">5.58788e-12</wgt>
  <wgt id="575">6.33826e-12</wgt>
  <wgt id="576">6.23216e-12</wgt>
  <wgt id="577">6.5634e-12</wgt>
  <wgt id="578">6.45038e-12</wgt>
  <wgt id="579">6.39392e-12</wgt>
  <wgt id="580">6.42784e-12</wgt>
  <wgt id="581">6.70378e-12</wgt>
  <wgt id="582">6.21362e-12</wgt>
  <wgt id="583">6.39766e-12</wgt>
  <wgt id="584">6.34359e-12</wgt>
  <wgt id="585">6.39021e-12</wgt>
  <wgt id="586">6.19616e-12</wgt>
  <wgt id="587">6.40631e-12</wgt>
  <wgt id="588">6.29499e-12</wgt>
  <wgt id="589">6.40358e-12</wgt>
  <wgt id="590">6.43791e-12</wgt>
  <wgt id="591">6.58917e-12</wgt>
  <wgt id="592">6.23216e-12</wgt>
  <wgt id="593">6.30807e-12</wgt>
  <wgt id="594">6.59813e-12</wgt>
  <wgt id="595">6.29101e-12</wgt>
  <wgt id="596">6.42535e-12</wgt>
  <wgt id="597">6.10345e-12</wgt>
  <wgt id="598">6.28681e-12</wgt>
  <wgt id="599">6.6507e-12</wgt>
  <wgt id="600">6.27598e-12</wgt>
  <wgt id="601">6.1588e-12</wgt>
  <wgt id="602">6.22747e-12</wgt>
  <wgt id="603">6.25959e-12</wgt>
  <wgt id="604">6.41751e-12</wgt>
  <wgt id="605">6.59375e-12</wgt>
  <wgt id="606">6.17763e-12</wgt>
  <wgt id="607">6.247e-12</wgt>
  <wgt id="608">6.31197e-12</wgt>
  <wgt id="609">5.96581e-12</wgt>
  <wgt id="610">6.09316e-12</wgt>
  <wgt id="611">6.4445e-12</wgt>
  <wgt id="612">6.81061e-12</wgt>
  <wgt id="613">6.34899e-12</wgt>
  <wgt id="614">6.41646e-12</wgt>
  <wgt id="615">6.21081e-12</wgt>
  <wgt id="616">6.75873e-12</wgt>
  <wgt id="617">6.55519e-12</wgt>
  <wgt id="618">6.32441e-12</wgt>
  <wgt id="619">6.30626e-12</wgt>
  <wgt id="620">6.54642e-12</wgt>
  <wgt id="621">6.43358e-12</wgt>
  <wgt id="622">6.40631e-12</wgt>
  <wgt id="623">6.49699e-12</wgt>
  <wgt id="624">6.29585e-12</wgt>
  <wgt id="625">6.26804e-12</wgt>
  <wgt id="626">6.20848e-12</wgt>
  <wgt id="627">6.11998e-12</wgt>
  <wgt id="628">6.6781e-12</wgt>
  <wgt id="629">6.20376e-12</wgt>
  <wgt id="630">6.17462e-12</wgt>
  <wgt id="631">6.33726e-12</wgt>
  <wgt id="632">6.16647e-12</wgt>
  <wgt id="633">6.25694e-12</wgt>
  <wgt id="634">6.37562e-12</wgt>
  <wgt id="635">6.29217e-12</wgt>
  <wgt id="636">6.37508e-12</wgt>
  <wgt id="637">6.36103e-12</wgt>
  <wgt id="638">6.12164e-12</wgt>
  <wgt id="639">6.27378e-12</wgt>
  <wgt id="640">6.35394e-12</wgt>
  <wgt id="641">6.34572e-12</wgt>
  <wgt id="642">6.2453e-12</wgt>
  <wgt id="643">6.31812e-12</wgt>
  <wgt id="644">6.13945e-12</wgt>
  <wgt id="645">6.37433e-12</wgt>
  <wgt id="646">6.47083e-12</wgt>
  <wgt id="647">6.2329e-12</wgt>
  <wgt id="648">6.36079e-12</wgt>
  <wgt id="649">6.43382e-12</wgt>
  <wgt id="650">6.22683e-12</wgt>
  <wgt id="651">6.40245e-12</wgt>
  <wgt id="652">6.33195e-12</wgt>
  <wgt id="653">6.17701e-12</wgt>
  <wgt id="654">6.31547e-12</wgt>
  <wgt id="655">6.20199e-12</wgt>
  <wgt id="656">6.32789e-12</wgt>
  <wgt id="657">6.46921e-12</wgt>
  <wgt id="658">6.44774e-12</wgt>
  <wgt id="659">6.11413e-12</wgt>
  <wgt id="660">6.45724e-12</wgt>
  <wgt id="661">6.24753e-12</wgt>
  <wgt id="662">6.31123e-12</wgt>
  <wgt id="663">6.31732e-12</wgt>
  <wgt id="664">6.23483e-12</wgt>
  <wgt id="665">6.3138e-12</wgt>
  <wgt id="666">6.32528e-12</wgt>
  <wgt id="667">6.5325e-12</wgt>
  <wgt id="668">6.30441e-12</wgt>
  <wgt id="669">6.49451e-12</wgt>
  <wgt id="670">6.40778e-12</wgt>
  <wgt id="671">6.2345e-12</wgt>
  <wgt id="672">6.07472e-12</wgt>
  <wgt id="673">6.31068e-12</wgt>
  <wgt id="674">6.21026e-12</wgt>
  <wgt id="675">6.20271e-12</wgt>
  <wgt id="676">7.8705e-12</wgt>
  <wgt id="677">7.9804e-12</wgt>
  <wgt id="678">8.21915e-12</wgt>
  <wgt id="679">7.49811e-12</wgt>
  <wgt id="680">7.59558e-12</wgt>
  <wgt id="681">8.10185e-12</wgt>
  <wgt id="682">7.98379e-12</wgt>
  <wgt id="683">7.81199e-12</wgt>
  <wgt id="684">8.20601e-12</wgt>
  <wgt id="685">7.46034e-12</wgt>
  <wgt id="686">7.90972e-12</wgt>
  <wgt id="687">8.21151e-12</wgt>
  <wgt id="688">7.83178e-12</wgt>
  <wgt id="689">8.42135e-12</wgt>
  <wgt id="690">8.3126e-12</wgt>
  <wgt id="691">8.29034e-12</wgt>
  <wgt id="692">7.84526e-12</wgt>
  <wgt id="693">9.02543e-12</wgt>
  <wgt id="694">8.30318e-12</wgt>
  <wgt id="695">7.61822e-12</wgt>
  <wgt id="696">7.50492e-12</wgt>
  <wgt id="697">7.63628e-12</wgt>
  <wgt id="698">7.40626e-12</wgt>
  <wgt id="699">7.31419e-12</wgt>
  <wgt id="700">7.02297e-12</wgt>
  <wgt id="701">7.88687e-12</wgt>
  <wgt id="702">7.53599e-12</wgt>
  <wgt id="703">8.8829e-12</wgt>
  <wgt id="704">8.44075e-12</wgt>
  <wgt id="705">8.14847e-12</wgt>
  <wgt id="706">7.35698e-12</wgt>
  <wgt id="707">7.58047e-12</wgt>
  <wgt id="708">7.78102e-12</wgt>
  <wgt id="709">7.74469e-12</wgt>
  <wgt id="710">7.07958e-12</wgt>
  <wgt id="711">7.86472e-12</wgt>
  <wgt id="712">7.77677e-12</wgt>
  <wgt id="713">8.3952e-12</wgt>
  <wgt id="714">7.84604e-12</wgt>
  <wgt id="715">7.7936e-12</wgt>
  <wgt id="716">7.59125e-12</wgt>
  <wgt id="717">7.57893e-12</wgt>
  <wgt id="718">7.73396e-12</wgt>
  <wgt id="719">7.22143e-12</wgt>
  <wgt id="720">7.469e-12</wgt>
  <wgt id="721">7.49e-12</wgt>
  <wgt id="722">7.151e-12</wgt>
  <wgt id="723">8.3006e-12</wgt>
  <wgt id="724">8.17071e-12</wgt>
  <wgt id="725">8.31293e-12</wgt>
  <wgt id="726">7.95932e-12</wgt>
  <wgt id="727">7.69331e-12</wgt>
  <wgt id="728">7.80164e-12</wgt>
  <wgt id="729">7.15767e-12</wgt>
  <wgt id="730">8.34552e-12</wgt>
  <wgt id="731">7.7984e-12</wgt>
  <wgt id="732">8.55581e-12</wgt>
  <wgt id="733">7.87018e-12</wgt>
  <wgt id="734">8.04975e-12</wgt>
  <wgt id="735">7.82763e-12</wgt>
  <wgt id="736">7.77754e-12</wgt>
  <wgt id="737">8.00104e-12</wgt>
  <wgt id="738">7.5801e-12</wgt>
  <wgt id="739">7.84071e-12</wgt>
  <wgt id="740">8.67542e-12</wgt>
  <wgt id="741">7.01821e-12</wgt>
  <wgt id="742">7.75733e-12</wgt>
  <wgt id="743">7.64808e-12</wgt>
  <wgt id="744">7.71817e-12</wgt>
  <wgt id="745">8.15132e-12</wgt>
  <wgt id="746">8.24347e-12</wgt>
  <wgt id="747">7.28815e-12</wgt>
  <wgt id="748">7.74575e-12</wgt>
  <wgt id="749">8.30882e-12</wgt>
  <wgt id="750">7.81291e-12</wgt>
  <wgt id="751">8.15505e-12</wgt>
  <wgt id="752">7.28985e-12</wgt>
  <wgt id="753">7.51597e-12</wgt>
  <wgt id="754">8.08998e-12</wgt>
  <wgt id="755">7.92256e-12</wgt>
  <wgt id="756">7.91296e-12</wgt>
  <wgt id="757">7.34029e-12</wgt>
  <wgt id="758">7.97457e-12</wgt>
  <wgt id="759">7.83605e-12</wgt>
  <wgt id="760">8.01963e-12</wgt>
  <wgt id="761">8.27792e-12</wgt>
  <wgt id="762">8.27808e-12</wgt>
  <wgt id="763">7.89131e-12</wgt>
  <wgt id="764">8.13853e-12</wgt>
  <wgt id="765">7.93872e-12</wgt>
  <wgt id="766">7.84098e-12</wgt>
  <wgt id="767">8.04422e-12</wgt>
  <wgt id="768">7.50001e-12</wgt>
  <wgt id="769">8.30627e-12</wgt>
  <wgt id="770">7.6596e-12</wgt>
  <wgt id="771">9.16799e-12</wgt>
  <wgt id="772">7.41574e-12</wgt>
  <wgt id="773">7.84282e-12</wgt>
  <wgt id="774">7.14837e-12</wgt>
  <wgt id="775">8.21983e-12</wgt>
  <wgt id="776">8.57758e-12</wgt>
  <wgt id="777">7.64893e-12</wgt>
  <wgt id="778">5.93287e-12</wgt>
  <wgt id="779">5.09452e-12</wgt>
  <wgt id="780">4.34253e-12</wgt>
  <wgt id="781">5.91266e-12</wgt>
  <wgt id="782">6.27487e-12</wgt>
  <wgt id="783">5.1965e-12</wgt>
  <wgt id="784">5.30821e-12</wgt>
  <wgt id="785">7.06904e-12</wgt>
  <wgt id="786">4.67252e-12</wgt>
  <wgt id="787">6.60156e-12</wgt>
  <wgt id="788">4.03675e-12</wgt>
  <wgt id="789">4.82337e-12</wgt>
  <wgt id="790">4.66317e-12</wgt>
  <wgt id="791">5.50475e-12</wgt>
  <wgt id="792">7.54675e-12</wgt>
  <wgt id="793">5.73246e-12</wgt>
  <wgt id="794">4.7629e-12</wgt>
  <wgt id="795">6.72527e-12</wgt>
  <wgt id="796">7.6534e-12</wgt>
  <wgt id="797">6.70058e-12</wgt>
  <wgt id="798">5.56469e-12</wgt>
  <wgt id="799">6.63802e-12</wgt>
  <wgt id="800">4.87645e-12</wgt>
  <wgt id="801">5.62193e-12</wgt>
  <wgt id="802">4.80897e-12</wgt>
  <wgt id="803">7.65124e-12</wgt>
  <wgt id="804">6.68353e-12</wgt>
  <wgt id="805">6.81257e-12</wgt>
  <wgt id="806">6.69548e-12</wgt>
  <wgt id="807">5.70857e-12</wgt>
  <wgt id="808">5.80577e-12</wgt>
  <wgt id="809">5.49094e-12</wgt>
  <wgt id="810">6.76915e-12</wgt>
  <wgt id="811">6.42425e-12</wgt>
  <wgt id="812">4.72467e-12</wgt>
  <wgt id="813">4.7762e-12</wgt>
  <wgt id="814">5.03703e-12</wgt>
  <wgt id="815">5.11424e-12</wgt>
  <wgt id="816">4.55578e-12</wgt>
  <wgt id="817">6.25249e-12</wgt>
  <wgt id="818">5.75587e-12</wgt>
  <wgt id="819">5.11582e-12</wgt>
  <wgt id="820">5.95919e-12</wgt>
  <wgt id="821">6.68624e-12</wgt>
  <wgt id="822">5.15977e-12</wgt>
  <wgt id="823">6.6925e-12</wgt>
  <wgt id="824">7.82982e-12</wgt>
  <wgt id="825">4.58673e-12</wgt>
  <wgt id="826">6.13054e-12</wgt>
  <wgt id="827">3.87783e-12</wgt>
  <wgt id="828">7.57489e-12</wgt>
  <wgt id="829">6.10785e-12</wgt>
  <wgt id="830">4.36527e-12</wgt>
  <wgt id="831">6.30136e-12</wgt>
  <wgt id="832">9.41034e-12</wgt>
  <wgt id="833">5.65048e-12</wgt>
  <wgt id="834">8.81875e-12</wgt>
  <wgt id="835">4.8944e-12</wgt>
  <wgt id="836">5.98433e-12</wgt>
  <wgt id="837">6.60523e-12</wgt>
  <wgt id="838">5.70618e-12</wgt>
  <wgt id="839">6.27624e-12</wgt>
  <wgt id="840">5.65242e-12</wgt>
  <wgt id="841">7.05582e-12</wgt>
  <wgt id="842">5.47323e-12</wgt>
  <wgt id="843">5.75657e-12</wgt>
  <wgt id="844">6.11988e-12</wgt>
  <wgt id="845">7.94872e-12</wgt>
  <wgt id="846">5.48555e-12</wgt>
  <wgt id="847">5.86166e-12</wgt>
  <wgt id="848">5.30939e-12</wgt>
  <wgt id="849">6.05576e-12</wgt>
  <wgt id="850">7.46777e-12</wgt>
  <wgt id="851">6.43588e-12</wgt>
  <wgt id="852">5.24788e-12</wgt>
  <wgt id="853">6.39612e-12</wgt>
  <wgt id="854">7.0656e-12</wgt>
  <wgt id="855">6.69509e-12</wgt>
  <wgt id="856">4.47548e-12</wgt>
  <wgt id="857">6.00754e-12</wgt>
  <wgt id="858">5.89433e-12</wgt>
  <wgt id="859">5.54561e-12</wgt>
  <wgt id="860">6.21255e-12</wgt>
  <wgt id="861">5.37257e-12</wgt>
  <wgt id="862">6.02239e-12</wgt>
  <wgt id="863">6.18104e-12</wgt>
  <wgt id="864">6.21862e-12</wgt>
  <wgt id="865">8.18972e-12</wgt>
  <wgt id="866">8.95309e-12</wgt>
  <wgt id="867">5.97066e-12</wgt>
  <wgt id="868">5.82959e-12</wgt>
  <wgt id="869">4.76986e-12</wgt>
  <wgt id="870">5.0121e-12</wgt>
  <wgt id="871">4.87782e-12</wgt>
  <wgt id="872">6.85883e-12</wgt>
  <wgt id="873">4.98545e-12</wgt>
  <wgt id="874">6.16556e-12</wgt>
  <wgt id="875">5.21363e-12</wgt>
  <wgt id="876">6.87191e-12</wgt>
  <wgt id="877">6.655e-12</wgt>
  <wgt id="878">5.25694e-12</wgt>
  <wgt id="879">7.8705e-12</wgt>
  <wgt id="880">7.9804e-12</wgt>
  <wgt id="881">8.21915e-12</wgt>
  <wgt id="882">7.49811e-12</wgt>
  <wgt id="883">7.59558e-12</wgt>
  <wgt id="884">8.10185e-12</wgt>
  <wgt id="885">7.98379e-12</wgt>
  <wgt id="886">7.81199e-12</wgt>
  <wgt id="887">8.20601e-12</wgt>
  <wgt id="888">7.46034e-12</wgt>
  <wgt id="889">7.90972e-12</wgt>
  <wgt id="890">8.21151e-12</wgt>
  <wgt id="891">7.83178e-12</wgt>
  <wgt id="892">8.42135e-12</wgt>
  <wgt id="893">8.3126e-12</wgt>
  <wgt id="894">8.29034e-12</wgt>
  <wgt id="895">7.84526e-12</wgt>
  <wgt id="896">9.02543e-12</wgt>
  <wgt id="897">8.30318e-12</wgt>
  <wgt id="898">7.61822e-12</wgt>
  <wgt id="899">7.50492e-12</wgt>
  <wgt id="900">7.63628e-12</wgt>
  <wgt id="901">7.40626e-12</wgt>
  <wgt id="902">7.31419e-12</wgt>
  <wgt id="903">7.02297e-12</wgt>
  <wgt id="904">7.88687e-12</wgt>
  <wgt id="905">7.53599e-12</wgt>
  <wgt id="906">8.8829e-12</wgt>
  <wgt id="907">8.44075e-12</wgt>
  <wgt id="908">8.14847e-12</wgt>
  <wgt id="909">7.35698e-12</wgt>
  <wgt id="910">7.58047e-12</wgt>
  <wgt id="911">7.78102e-12</wgt>
  <wgt id="912">7.74469e-12</wgt>
  <wgt id="913">7.07958e-12</wgt>
  <wgt id="914">7.86472e-12</wgt>
  <wgt id="915">7.77677e-12</wgt>
  <wgt id="916">8.3952e-12</wgt>
  <wgt id="917">7.84604e-12</wgt>
  <wgt id="918">7.7936e-12</wgt>
  <wgt id="919">7.59125e-12</wgt>
  <wgt id="920">7.57893e-12</wgt>
  <wgt id="921">7.73396e-12</wgt>
  <wgt id="922">7.22143e-12</wgt>
  <wgt id="923">7.469e-12</wgt>
  <wgt id="924">7.49e-12</wgt>
  <wgt id="925">7.151e-12</wgt>
  <wgt id="926">8.3006e-12</wgt>
  <wgt id="927">8.17071e-12</wgt>
  <wgt id="928">8.31293e-12</wgt>
  <wgt id="929">7.95932e-12</wgt>
  <wgt id="930">7.69331e-12</wgt>
  <wgt id="931">7.80164e-12</wgt>
  <wgt id="932">7.15767e-12</wgt>
  <wgt id="933">8.34552e-12</wgt>
  <wgt id="934">7.7984e-12</wgt>
  <wgt id="935">8.55581e-12</wgt>
  <wgt id="936">7.87018e-12</wgt>
  <wgt id="937">8.04975e-12</wgt>
  <wgt id="938">7.82763e-12</wgt>
  <wgt id="939">7.77754e-12</wgt>
  <wgt id="940">8.00104e-12</wgt>
  <wgt id="941">7.5801e-12</wgt>
  <wgt id="942">7.84071e-12</wgt>
  <wgt id="943">8.67542e-12</wgt>
  <wgt id="944">7.01821e-12</wgt>
  <wgt id="945">7.75733e-12</wgt>
  <wgt id="946">7.64808e-12</wgt>
  <wgt id="947">7.71817e-12</wgt>
  <wgt id="948">8.15132e-12</wgt>
  <wgt id="949">8.24347e-12</wgt>
  <wgt id="950">7.28815e-12</wgt>
  <wgt id="951">7.74575e-12</wgt>
  <wgt id="952">8.30882e-12</wgt>
  <wgt id="953">7.81291e-12</wgt>
  <wgt id="954">8.15505e-12</wgt>
  <wgt id="955">7.28985e-12</wgt>
  <wgt id="956">7.51597e-12</wgt>
  <wgt id="957">8.08998e-12</wgt>
  <wgt id="958">7.92256e-12</wgt>
  <wgt id="959">7.91296e-12</wgt>
  <wgt id="960">7.34029e-12</wgt>
  <wgt id="961">7.97457e-12</wgt>
  <wgt id="962">7.83605e-12</wgt>
  <wgt id="963">8.01963e-12</wgt>
  <wgt id="964">8.27792e-12</wgt>
  <wgt id="965">8.27808e-12</wgt>
  <wgt id="966">7.89131e-12</wgt>
  <wgt id="967">8.13853e-12</wgt>
  <wgt id="968">7.93872e-12</wgt>
  <wgt id="969">7.84098e-12</wgt>
  <wgt id="970">8.04422e-12</wgt>
  <wgt id="971">7.50001e-12</wgt>
  <wgt id="972">8.30627e-12</wgt>
  <wgt id="973">7.6596e-12</wgt>
  <wgt id="974">9.16799e-12</wgt>
  <wgt id="975">7.41574e-12</wgt>
  <wgt id="976">7.84282e-12</wgt>
  <wgt id="977">7.14837e-12</wgt>
  <wgt id="978">8.21983e-12</wgt>
  <wgt id="979">8.57758e-12</wgt>
  <wgt id="980">7.88702e-12</wgt>
  <wgt id="981">7.89517e-12</wgt>
  <wgt id="982">7.65556e-12</wgt>
</rwgt>
</event>
<event>
 5   1  0.5790000E-11  0.2220583E+04  0.7818608E-02  0.7741160E-01
       21   -1    0    0  502  501  0.00000000000E+00  0.00000000000E+00  0.12462149395E+04  0.12462149395E+04  0.00000000000E+00 0. -1.
       21   -1    0    0  501  502 -0.00000000000E+00 -0.00000000000E+00 -0.98919266981E+03  0.98919266981E+03  0.00000000000E+00 0.  1.
       39    2    1    2    0    0  0.00000000000E+00  0.00000000000E+00  0.25702226971E+03  0.22354076093E+04  0.22205825210E+04 0.  0.
       25    1    3    3    0    0  0.40960478748E+03  0.77752916145E+03 -0.54287021077E+03  0.10405098484E+04  0.12500000000E+03 0.  0.
       25    1    3    3    0    0 -0.40960478748E+03 -0.77752916145E+03  0.79989248048E+03  0.11948977610E+04  0.12500000000E+03 0.  0.
<mgrwt>
<rscale>  0 0.22205825E+04</rscale>
<asrwt>0</asrwt>
<pdfrwt beam="1">  1       21 0.19172538E+00 0.22205825E+04</pdfrwt>
<pdfrwt beam="2">  1       21 0.15218349E+00 0.22205825E+04</pdfrwt>
<totfact> 0.17532453E+01</totfact>
</mgrwt>
<rwgt>
  <wgt id="1">5.79e-12</wgt>
  <wgt id="2">5.0528e-12</wgt>
  <wgt id="3">6.70274e-12</wgt>
  <wgt id="4">5.79e-12</wgt>
  <wgt id="5">5.0528e-12</wgt>
  <wgt id="6">6.70274e-12</wgt>
  <wgt id="7">5.79e-12</wgt>
  <wgt id="8">5.0528e-12</wgt>
  <wgt id="9">6.70274e-12</wgt>
  <wgt id="10">5.9619e-12</wgt>
  <wgt id="11">5.95585e-12</wgt>
  <wgt id="12">5.9503e-12</wgt>
  <wgt id="13">5.94133e-12</wgt>
  <wgt id="14">5.98322e-12</wgt>
  <wgt id="15">5.97043e-12</wgt>
  <wgt id="16">5.94885e-12</wgt>
  <wgt id="17">5.97141e-12</wgt>
  <wgt id="18">5.95335e-12</wgt>
  <wgt id="19">5.97438e-12</wgt>
  <wgt id="20">5.94381e-12</wgt>
  <wgt id="21">5.93035e-12</wgt>
  <wgt id="22">5.9442e-12</wgt>
  <wgt id="23">5.9119e-12</wgt>
  <wgt id="24">5.93638e-12</wgt>
  <wgt id="25">5.94767e-12</wgt>
  <wgt id="26">5.98697e-12</wgt>
  <wgt id="27">5.96165e-12</wgt>
  <wgt id="28">5.93424e-12</wgt>
  <wgt id="29">5.96812e-12</wgt>
  <wgt id="30">5.94811e-12</wgt>
  <wgt id="31">5.97699e-12</wgt>
  <wgt id="32">5.95081e-12</wgt>
  <wgt id="33">5.97523e-12</wgt>
  <wgt id="34">5.94501e-12</wgt>
  <wgt id="35">5.95619e-12</wgt>
  <wgt id="36">5.97665e-12</wgt>
  <wgt id="37">5.94678e-12</wgt>
  <wgt id="38">5.94696e-12</wgt>
  <wgt id="39">6.02118e-12</wgt>
  <wgt id="40">5.9768e-12</wgt>
  <wgt id="41">5.96064e-12</wgt>
  <wgt id="42">5.98014e-12</wgt>
  <wgt id="43">5.96674e-12</wgt>
  <wgt id="44">5.93762e-12</wgt>
  <wgt id="45">5.97186e-12</wgt>
  <wgt id="46">5.96996e-12</wgt>
  <wgt id="47">5.93512e-12</wgt>
  <wgt id="48">5.96227e-12</wgt>
  <wgt id="49">5.9842e-12</wgt>
  <wgt id="50">6.00095e-12</wgt>
  <wgt id="51">5.98829e-12</wgt>
  <wgt id="52">5.94247e-12</wgt>
  <wgt id="53">5.92376e-12</wgt>
  <wgt id="54">5.94921e-12</wgt>
  <wgt id="55">5.9605e-12</wgt>
  <wgt id="56">5.98022e-12</wgt>
  <wgt id="57">5.98264e-12</wgt>
  <wgt id="58">5.92049e-12</wgt>
  <wgt id="59">5.94163e-12</wgt>
  <wgt id="60">5.9634e-12</wgt>
  <wgt id="61">5.95547e-12</wgt>
  <wgt id="62">5.96227e-12</wgt>
  <wgt id="63">5.97003e-12</wgt>
  <wgt id="64">5.96894e-12</wgt>
  <wgt id="65">5.96729e-12</wgt>
  <wgt id="66">5.95462e-12</wgt>
  <wgt id="67">5.95527e-12</wgt>
  <wgt id="68">5.95569e-12</wgt>
  <wgt id="69">5.96005e-12</wgt>
  <wgt id="70">5.95757e-12</wgt>
  <wgt id="71">5.95902e-12</wgt>
  <wgt id="72">5.95582e-12</wgt>
  <wgt id="73">5.96616e-12</wgt>
  <wgt id="74">5.96492e-12</wgt>
  <wgt id="75">5.96095e-12</wgt>
  <wgt id="76">5.9765e-12</wgt>
  <wgt id="77">5.96105e-12</wgt>
  <wgt id="78">5.9637e-12</wgt>
  <wgt id="79">5.97143e-12</wgt>
  <wgt id="80">5.93897e-12</wgt>
  <wgt id="81">5.95467e-12</wgt>
  <wgt id="82">5.96203e-12</wgt>
  <wgt id="83">5.94164e-12</wgt>
  <wgt id="84">5.95029e-12</wgt>
  <wgt id="85">5.95292e-12</wgt>
  <wgt id="86">5.97329e-12</wgt>
  <wgt id="87">5.93612e-12</wgt>
  <wgt id="88">5.96799e-12</wgt>
  <wgt id="89">5.96698e-12</wgt>
  <wgt id="90">5.96871e-12</wgt>
  <wgt id="91">5.96568e-12</wgt>
  <wgt id="92">5.97174e-12</wgt>
  <wgt id="93">5.96114e-12</wgt>
  <wgt id="94">5.95738e-12</wgt>
  <wgt id="95">5.96502e-12</wgt>
  <wgt id="96">5.96537e-12</wgt>
  <wgt id="97">5.95512e-12</wgt>
  <wgt id="98">5.96465e-12</wgt>
  <wgt id="99">5.95962e-12</wgt>
  <wgt id="100">5.96719e-12</wgt>
  <wgt id="101">5.96021e-12</wgt>
  <wgt id="102">5.95658e-12</wgt>
  <wgt id="103">5.96904e-12</wgt>
  <wgt id="104">5.95785e-12</wgt>
  <wgt id="105">5.96671e-12</wgt>
  <wgt id="106">5.9553e-12</wgt>
  <wgt id="107">5.97586e-12</wgt>
  <wgt id="108">5.95669e-12</wgt>
  <wgt id="109">5.96404e-12</wgt>
  <wgt id="110">5.96093e-12</wgt>
  <wgt id="111">6.03066e-12</wgt>
  <wgt id="112">5.94981e-12</wgt>
  <wgt id="113">7.88645e-12</wgt>
  <wgt id="114">8.20058e-12</wgt>
  <wgt id="115">8.0896e-12</wgt>
  <wgt id="116">1.11377e-11</wgt>
  <wgt id="117">6.5837e-12</wgt>
  <wgt id="118">6.60548e-12</wgt>
  <wgt id="119">6.57162e-12</wgt>
  <wgt id="120">6.58455e-12</wgt>
  <wgt id="121">6.58341e-12</wgt>
  <wgt id="122">6.572e-12</wgt>
  <wgt id="123">6.60002e-12</wgt>
  <wgt id="124">6.57418e-12</wgt>
  <wgt id="125">6.59007e-12</wgt>
  <wgt id="126">6.59516e-12</wgt>
  <wgt id="127">6.57632e-12</wgt>
  <wgt id="128">6.60443e-12</wgt>
  <wgt id="129">6.56337e-12</wgt>
  <wgt id="130">6.62193e-12</wgt>
  <wgt id="131">6.54477e-12</wgt>
  <wgt id="132">6.41719e-12</wgt>
  <wgt id="133">6.78039e-12</wgt>
  <wgt id="134">6.51543e-12</wgt>
  <wgt id="135">6.63711e-12</wgt>
  <wgt id="136">6.66395e-12</wgt>
  <wgt id="137">6.48682e-12</wgt>
  <wgt id="138">6.82681e-12</wgt>
  <wgt id="139">6.34812e-12</wgt>
  <wgt id="140">6.53883e-12</wgt>
  <wgt id="141">6.61897e-12</wgt>
  <wgt id="142">6.58486e-12</wgt>
  <wgt id="143">6.59174e-12</wgt>
  <wgt id="144">6.41991e-12</wgt>
  <wgt id="145">6.73429e-12</wgt>
  <wgt id="146">6.63592e-12</wgt>
  <wgt id="147">6.54302e-12</wgt>
  <wgt id="148">6.60286e-12</wgt>
  <wgt id="149">6.58238e-12</wgt>
  <wgt id="150">6.63965e-12</wgt>
  <wgt id="151">6.55765e-12</wgt>
  <wgt id="152">6.58656e-12</wgt>
  <wgt id="153">6.58288e-12</wgt>
  <wgt id="154">6.64168e-12</wgt>
  <wgt id="155">6.51598e-12</wgt>
  <wgt id="156">6.69483e-12</wgt>
  <wgt id="157">6.46082e-12</wgt>
  <wgt id="158">7.92295e-12</wgt>
  <wgt id="159">7.95577e-12</wgt>
  <wgt id="160">7.8963e-12</wgt>
  <wgt id="161">7.90379e-12</wgt>
  <wgt id="162">7.94392e-12</wgt>
  <wgt id="163">7.91484e-12</wgt>
  <wgt id="164">7.935e-12</wgt>
  <wgt id="165">7.92595e-12</wgt>
  <wgt id="166">7.92061e-12</wgt>
  <wgt id="167">7.91712e-12</wgt>
  <wgt id="168">7.93106e-12</wgt>
  <wgt id="169">7.88891e-12</wgt>
  <wgt id="170">7.94431e-12</wgt>
  <wgt id="171">7.91454e-12</wgt>
  <wgt id="172">7.9348e-12</wgt>
  <wgt id="173">7.92407e-12</wgt>
  <wgt id="174">7.92222e-12</wgt>
  <wgt id="175">7.70733e-12</wgt>
  <wgt id="176">8.20321e-12</wgt>
  <wgt id="177">7.96336e-12</wgt>
  <wgt id="178">7.88534e-12</wgt>
  <wgt id="179">8.2363e-12</wgt>
  <wgt id="180">7.42589e-12</wgt>
  <wgt id="181">7.70321e-12</wgt>
  <wgt id="182">8.06769e-12</wgt>
  <wgt id="183">7.78839e-12</wgt>
  <wgt id="184">7.9896e-12</wgt>
  <wgt id="185">7.86217e-12</wgt>
  <wgt id="186">7.99508e-12</wgt>
  <wgt id="187">7.85448e-12</wgt>
  <wgt id="188">8.04655e-12</wgt>
  <wgt id="189">7.87513e-12</wgt>
  <wgt id="190">7.94261e-12</wgt>
  <wgt id="191">7.94324e-12</wgt>
  <wgt id="192">7.91091e-12</wgt>
  <wgt id="193">8.02929e-12</wgt>
  <wgt id="194">7.87033e-12</wgt>
  <wgt id="195">7.75498e-12</wgt>
  <wgt id="196">8.23593e-12</wgt>
  <wgt id="197">7.96073e-12</wgt>
  <wgt id="198">7.91385e-12</wgt>
  <wgt id="199">7.92295e-12</wgt>
  <wgt id="200">7.98807e-12</wgt>
  <wgt id="201">7.96387e-12</wgt>
  <wgt id="202">7.94062e-12</wgt>
  <wgt id="203">7.90519e-12</wgt>
  <wgt id="204">7.88857e-12</wgt>
  <wgt id="205">7.87478e-12</wgt>
  <wgt id="206">7.70525e-12</wgt>
  <wgt id="207">7.74986e-12</wgt>
  <wgt id="208">7.66104e-12</wgt>
  <wgt id="209">7.72696e-12</wgt>
  <wgt id="210">7.68921e-12</wgt>
  <wgt id="211">7.7028e-12</wgt>
  <wgt id="212">7.70715e-12</wgt>
  <wgt id="213">7.70456e-12</wgt>
  <wgt id="214">7.70636e-12</wgt>
  <wgt id="215">7.71032e-12</wgt>
  <wgt id="216">7.70143e-12</wgt>
  <wgt id="217">7.72667e-12</wgt>
  <wgt id="218">7.68858e-12</wgt>
  <wgt id="219">7.6961e-12</wgt>
  <wgt id="220">7.71073e-12</wgt>
  <wgt id="221">7.70129e-12</wgt>
  <wgt id="222">7.71431e-12</wgt>
  <wgt id="223">7.31276e-12</wgt>
  <wgt id="224">8.06161e-12</wgt>
  <wgt id="225">7.61724e-12</wgt>
  <wgt id="226">7.81538e-12</wgt>
  <wgt id="227">7.63493e-12</wgt>
  <wgt id="228">7.73611e-12</wgt>
  <wgt id="229">7.60162e-12</wgt>
  <wgt id="230">7.75674e-12</wgt>
  <wgt id="231">7.91505e-12</wgt>
  <wgt id="232">7.53235e-12</wgt>
  <wgt id="233">7.66724e-12</wgt>
  <wgt id="234">7.7632e-12</wgt>
  <wgt id="235">7.57741e-12</wgt>
  <wgt id="236">7.83174e-12</wgt>
  <wgt id="237">7.61352e-12</wgt>
  <wgt id="238">7.7368e-12</wgt>
  <wgt id="239">7.66439e-12</wgt>
  <wgt id="240">7.77931e-12</wgt>
  <wgt id="241">7.63151e-12</wgt>
  <wgt id="242">7.79391e-12</wgt>
  <wgt id="243">7.78374e-12</wgt>
  <wgt id="244">7.75453e-12</wgt>
  <wgt id="245">7.6989e-12</wgt>
  <wgt id="246">7.76481e-12</wgt>
  <wgt id="247">7.70525e-12</wgt>
  <wgt id="248">7.76875e-12</wgt>
  <wgt id="249">7.74413e-12</wgt>
  <wgt id="250">7.72157e-12</wgt>
  <wgt id="251">7.68706e-12</wgt>
  <wgt id="252">7.67111e-12</wgt>
  <wgt id="253">7.65929e-12</wgt>
  <wgt id="254">7.55219e-12</wgt>
  <wgt id="255">7.55949e-12</wgt>
  <wgt id="256">7.54426e-12</wgt>
  <wgt id="257">7.55806e-12</wgt>
  <wgt id="258">7.54785e-12</wgt>
  <wgt id="259">7.60245e-12</wgt>
  <wgt id="260">7.50378e-12</wgt>
  <wgt id="261">7.56114e-12</wgt>
  <wgt id="262">7.54158e-12</wgt>
  <wgt id="263">7.54937e-12</wgt>
  <wgt id="264">7.55534e-12</wgt>
  <wgt id="265">7.5441e-12</wgt>
  <wgt id="266">7.56816e-12</wgt>
  <wgt id="267">7.55456e-12</wgt>
  <wgt id="268">7.54901e-12</wgt>
  <wgt id="269">7.57497e-12</wgt>
  <wgt id="270">7.53673e-12</wgt>
  <wgt id="271">7.53988e-12</wgt>
  <wgt id="272">7.56579e-12</wgt>
  <wgt id="273">7.52942e-12</wgt>
  <wgt id="274">7.56964e-12</wgt>
  <wgt id="275">7.52391e-12</wgt>
  <wgt id="276">7.58137e-12</wgt>
  <wgt id="277">7.51073e-12</wgt>
  <wgt id="278">7.59037e-12</wgt>
  <wgt id="279">7.41264e-12</wgt>
  <wgt id="280">7.72672e-12</wgt>
  <wgt id="281">7.52076e-12</wgt>
  <wgt id="282">7.55278e-12</wgt>
  <wgt id="283">7.34865e-12</wgt>
  <wgt id="284">7.80191e-12</wgt>
  <wgt id="285">7.21292e-12</wgt>
  <wgt id="286">7.83104e-12</wgt>
  <wgt id="287">7.57453e-12</wgt>
  <wgt id="288">7.52364e-12</wgt>
  <wgt id="289">7.60171e-12</wgt>
  <wgt id="290">7.43517e-12</wgt>
  <wgt id="291">7.53441e-12</wgt>
  <wgt id="292">7.55659e-12</wgt>
  <wgt id="293">7.49782e-12</wgt>
  <wgt id="294">7.60606e-12</wgt>
  <wgt id="295">7.4173e-12</wgt>
  <wgt id="296">7.71637e-12</wgt>
  <wgt id="297">7.55566e-12</wgt>
  <wgt id="298">7.57618e-12</wgt>
  <wgt id="299">7.52944e-12</wgt>
  <wgt id="300">7.61218e-12</wgt>
  <wgt id="301">7.4674e-12</wgt>
  <wgt id="302">7.78098e-12</wgt>
  <wgt id="303">7.50376e-12</wgt>
  <wgt id="304">7.58036e-12</wgt>
  <wgt id="305">7.59118e-12</wgt>
  <wgt id="306">7.59914e-12</wgt>
  <wgt id="307">7.58298e-12</wgt>
  <wgt id="308">7.59777e-12</wgt>
  <wgt id="309">7.5869e-12</wgt>
  <wgt id="310">7.64358e-12</wgt>
  <wgt id="311">7.5428e-12</wgt>
  <wgt id="312">7.59802e-12</wgt>
  <wgt id="313">7.58473e-12</wgt>
  <wgt id="314">7.5887e-12</wgt>
  <wgt id="315">7.594e-12</wgt>
  <wgt id="316">7.58371e-12</wgt>
  <wgt id="317">7.608e-12</wgt>
  <wgt id="318">7.59652e-12</wgt>
  <wgt id="319">7.58268e-12</wgt>
  <wgt id="320">7.615e-12</wgt>
  <wgt id="321">7.57826e-12</wgt>
  <wgt id="322">7.57503e-12</wgt>
  <wgt id="323">7.61067e-12</wgt>
  <wgt id="324">7.57229e-12</wgt>
  <wgt id="325">7.60807e-12</wgt>
  <wgt id="326">7.56861e-12</wgt>
  <wgt id="327">7.62041e-12</wgt>
  <wgt id="328">7.55364e-12</wgt>
  <wgt id="329">7.61301e-12</wgt>
  <wgt id="330">7.80788e-12</wgt>
  <wgt id="331">7.38432e-12</wgt>
  <wgt id="332">7.56534e-12</wgt>
  <wgt id="333">7.59092e-12</wgt>
  <wgt id="334">7.4305e-12</wgt>
  <wgt id="335">7.79044e-12</wgt>
  <wgt id="336">7.34376e-12</wgt>
  <wgt id="337">7.89062e-12</wgt>
  <wgt id="338">7.67045e-12</wgt>
  <wgt id="339">7.51779e-12</wgt>
  <wgt id="340">7.63874e-12</wgt>
  <wgt id="341">7.46807e-12</wgt>
  <wgt id="342">7.5791e-12</wgt>
  <wgt id="343">7.58471e-12</wgt>
  <wgt id="344">7.54139e-12</wgt>
  <wgt id="345">7.64908e-12</wgt>
  <wgt id="346">7.45069e-12</wgt>
  <wgt id="347">7.7531e-12</wgt>
  <wgt id="348">7.5985e-12</wgt>
  <wgt id="349">7.61002e-12</wgt>
  <wgt id="350">7.5624e-12</wgt>
  <wgt id="351">7.6645e-12</wgt>
  <wgt id="352">7.49592e-12</wgt>
  <wgt id="353">7.83435e-12</wgt>
  <wgt id="354">7.51634e-12</wgt>
  <wgt id="355">7.63789e-12</wgt>
  <wgt id="356">7.55219e-12</wgt>
  <wgt id="357">7.62691e-12</wgt>
  <wgt id="358">7.59118e-12</wgt>
  <wgt id="359">7.58315e-12</wgt>
  <wgt id="360">7.58745e-12</wgt>
  <wgt id="361">7.57264e-12</wgt>
  <wgt id="362">7.69563e-12</wgt>
  <wgt id="363">7.67819e-12</wgt>
  <wgt id="364">7.65483e-12</wgt>
  <wgt id="365">7.63061e-12</wgt>
  <wgt id="366">7.60309e-12</wgt>
  <wgt id="367">7.54528e-12</wgt>
  <wgt id="368">7.51409e-12</wgt>
  <wgt id="369">7.48061e-12</wgt>
  <wgt id="370">7.57264e-12</wgt>
  <wgt id="371">7.60627e-12</wgt>
  <wgt id="372">7.5877e-12</wgt>
  <wgt id="373">7.56019e-12</wgt>
  <wgt id="374">7.55577e-12</wgt>
  <wgt id="375">7.99831e-12</wgt>
  <wgt id="376">7.9993e-12</wgt>
  <wgt id="377">7.99704e-12</wgt>
  <wgt id="378">8.02688e-12</wgt>
  <wgt id="379">7.96973e-12</wgt>
  <wgt id="380">8.01978e-12</wgt>
  <wgt id="381">7.98962e-12</wgt>
  <wgt id="382">8.0379e-12</wgt>
  <wgt id="383">7.9591e-12</wgt>
  <wgt id="384">8.00348e-12</wgt>
  <wgt id="385">7.99334e-12</wgt>
  <wgt id="386">8.02882e-12</wgt>
  <wgt id="387">7.98496e-12</wgt>
  <wgt id="388">7.99095e-12</wgt>
  <wgt id="389">8.00711e-12</wgt>
  <wgt id="390">8.01925e-12</wgt>
  <wgt id="391">7.97618e-12</wgt>
  <wgt id="392">7.94273e-12</wgt>
  <wgt id="393">8.02979e-12</wgt>
  <wgt id="394">8.00985e-12</wgt>
  <wgt id="395">7.98243e-12</wgt>
  <wgt id="396">8.00088e-12</wgt>
  <wgt id="397">7.9965e-12</wgt>
  <wgt id="398">7.96469e-12</wgt>
  <wgt id="399">8.0307e-12</wgt>
  <wgt id="400">7.98546e-12</wgt>
  <wgt id="401">8.02676e-12</wgt>
  <wgt id="402">7.93751e-12</wgt>
  <wgt id="403">8.02305e-12</wgt>
  <wgt id="404">8.16937e-12</wgt>
  <wgt id="405">7.58465e-12</wgt>
  <wgt id="406">7.87533e-12</wgt>
  <wgt id="407">8.26339e-12</wgt>
  <wgt id="408">8.06141e-12</wgt>
  <wgt id="409">7.87683e-12</wgt>
  <wgt id="410">7.79555e-12</wgt>
  <wgt id="411">8.09091e-12</wgt>
  <wgt id="412">7.98547e-12</wgt>
  <wgt id="413">8.0164e-12</wgt>
  <wgt id="414">7.91733e-12</wgt>
  <wgt id="415">8.06102e-12</wgt>
  <wgt id="416">8.18908e-12</wgt>
  <wgt id="417">7.73417e-12</wgt>
  <wgt id="418">8.00808e-12</wgt>
  <wgt id="419">7.94601e-12</wgt>
  <wgt id="420">8.09313e-12</wgt>
  <wgt id="421">7.94873e-12</wgt>
  <wgt id="422">7.99479e-12</wgt>
  <wgt id="423">8.00199e-12</wgt>
  <wgt id="424">8.13605e-12</wgt>
  <wgt id="425">7.91422e-12</wgt>
  <wgt id="426">7.99831e-12</wgt>
  <wgt id="427">7.94252e-12</wgt>
  <wgt id="428">8.17283e-12</wgt>
  <wgt id="429">8.06025e-12</wgt>
  <wgt id="430">8.27169e-12</wgt>
  <wgt id="431">8.22959e-12</wgt>
  <wgt id="432">8.18947e-12</wgt>
  <wgt id="433">8.15057e-12</wgt>
  <wgt id="434">8.10404e-12</wgt>
  <wgt id="435">8.0053e-12</wgt>
  <wgt id="436">7.95424e-12</wgt>
  <wgt id="437">7.90586e-12</wgt>
  <wgt id="438">8.06025e-12</wgt>
  <wgt id="439">8.08686e-12</wgt>
  <wgt id="440">8.07133e-12</wgt>
  <wgt id="441">8.0518e-12</wgt>
  <wgt id="442">8.0446e-12</wgt>
  <wgt id="443">7.88088e-12</wgt>
  <wgt id="444">7.91656e-12</wgt>
  <wgt id="445">7.84902e-12</wgt>
  <wgt id="446">7.83352e-12</wgt>
  <wgt id="447">7.85322e-12</wgt>
  <wgt id="448">7.68529e-12</wgt>
  <wgt id="449">7.99281e-12</wgt>
  <wgt id="450">7.8462e-12</wgt>
  <wgt id="451">7.87001e-12</wgt>
  <wgt id="452">8.04333e-12</wgt>
  <wgt id="453">7.9446e-12</wgt>
  <wgt id="454">7.58453e-12</wgt>
  <wgt id="455">7.88901e-12</wgt>
  <wgt id="456">7.76998e-12</wgt>
  <wgt id="457">7.90983e-12</wgt>
  <wgt id="458">7.96297e-12</wgt>
  <wgt id="459">7.92869e-12</wgt>
  <wgt id="460">7.92033e-12</wgt>
  <wgt id="461">7.75423e-12</wgt>
  <wgt id="462">7.82422e-12</wgt>
  <wgt id="463">7.80547e-12</wgt>
  <wgt id="464">7.84241e-12</wgt>
  <wgt id="465">7.95312e-12</wgt>
  <wgt id="466">7.80272e-12</wgt>
  <wgt id="467">7.81318e-12</wgt>
  <wgt id="468">7.86157e-12</wgt>
  <wgt id="469">7.86202e-12</wgt>
  <wgt id="470">7.81777e-12</wgt>
  <wgt id="471">7.8205e-12</wgt>
  <wgt id="472">7.91256e-12</wgt>
  <wgt id="473">7.65616e-12</wgt>
  <wgt id="474">5.79e-12</wgt>
  <wgt id="475">6.15849e-12</wgt>
  <wgt id="476">5.67224e-12</wgt>
  <wgt id="477">5.66276e-12</wgt>
  <wgt id="478">5.82115e-12</wgt>
  <wgt id="479">5.71252e-12</wgt>
  <wgt id="480">5.96959e-12</wgt>
  <wgt id="481">5.64616e-12</wgt>
  <wgt id="482">5.55867e-12</wgt>
  <wgt id="483">5.64152e-12</wgt>
  <wgt id="484">6.20753e-12</wgt>
  <wgt id="485">5.8094e-12</wgt>
  <wgt id="486">5.89088e-12</wgt>
  <wgt id="487">5.88232e-12</wgt>
  <wgt id="488">5.85999e-12</wgt>
  <wgt id="489">5.59283e-12</wgt>
  <wgt id="490">5.62222e-12</wgt>
  <wgt id="491">5.72638e-12</wgt>
  <wgt id="492">5.60966e-12</wgt>
  <wgt id="493">5.59278e-12</wgt>
  <wgt id="494">5.61971e-12</wgt>
  <wgt id="495">5.89836e-12</wgt>
  <wgt id="496">5.59505e-12</wgt>
  <wgt id="497">5.58348e-12</wgt>
  <wgt id="498">5.85734e-12</wgt>
  <wgt id="499">5.64173e-12</wgt>
  <wgt id="500">5.69199e-12</wgt>
  <wgt id="501">6.0383e-12</wgt>
  <wgt id="502">5.63093e-12</wgt>
  <wgt id="503">5.77277e-12</wgt>
  <wgt id="504">5.7993e-12</wgt>
  <wgt id="505">5.84203e-12</wgt>
  <wgt id="506">5.88553e-12</wgt>
  <wgt id="507">5.72489e-12</wgt>
  <wgt id="508">5.87654e-12</wgt>
  <wgt id="509">5.74543e-12</wgt>
  <wgt id="510">5.92655e-12</wgt>
  <wgt id="511">5.67062e-12</wgt>
  <wgt id="512">5.8562e-12</wgt>
  <wgt id="513">6.00525e-12</wgt>
  <wgt id="514">5.74002e-12</wgt>
  <wgt id="515">5.71611e-12</wgt>
  <wgt id="516">5.93714e-12</wgt>
  <wgt id="517">5.91584e-12</wgt>
  <wgt id="518">5.93589e-12</wgt>
  <wgt id="519">5.65206e-12</wgt>
  <wgt id="520">5.81907e-12</wgt>
  <wgt id="521">5.99923e-12</wgt>
  <wgt id="522">6.00493e-12</wgt>
  <wgt id="523">5.91447e-12</wgt>
  <wgt id="524">5.90171e-12</wgt>
  <wgt id="525">5.9386e-12</wgt>
  <wgt id="526">5.78517e-12</wgt>
  <wgt id="527">5.89397e-12</wgt>
  <wgt id="528">5.79098e-12</wgt>
  <wgt id="529">5.71319e-12</wgt>
  <wgt id="530">5.82249e-12</wgt>
  <wgt id="531">5.72001e-12</wgt>
  <wgt id="532">6.09071e-12</wgt>
  <wgt id="533">5.44266e-12</wgt>
  <wgt id="534">5.80187e-12</wgt>
  <wgt id="535">5.89368e-12</wgt>
  <wgt id="536">5.79267e-12</wgt>
  <wgt id="537">5.81181e-12</wgt>
  <wgt id="538">5.88313e-12</wgt>
  <wgt id="539">5.66364e-12</wgt>
  <wgt id="540">5.71985e-12</wgt>
  <wgt id="541">5.6878e-12</wgt>
  <wgt id="542">5.66633e-12</wgt>
  <wgt id="543">5.7806e-12</wgt>
  <wgt id="544">6.07083e-12</wgt>
  <wgt id="545">5.71592e-12</wgt>
  <wgt id="546">5.73329e-12</wgt>
  <wgt id="547">5.61722e-12</wgt>
  <wgt id="548">5.55527e-12</wgt>
  <wgt id="549">5.70002e-12</wgt>
  <wgt id="550">5.81043e-12</wgt>
  <wgt id="551">5.85587e-12</wgt>
  <wgt id="552">5.74152e-12</wgt>
  <wgt id="553">5.77756e-12</wgt>
  <wgt id="554">6.22021e-12</wgt>
  <wgt id="555">5.94713e-12</wgt>
  <wgt id="556">5.62222e-12</wgt>
  <wgt id="557">5.87543e-12</wgt>
  <wgt id="558">5.60107e-12</wgt>
  <wgt id="559">5.72229e-12</wgt>
  <wgt id="560">6.24611e-12</wgt>
  <wgt id="561">5.6571e-12</wgt>
  <wgt id="562">5.86424e-12</wgt>
  <wgt id="563">5.63729e-12</wgt>
  <wgt id="564">5.7822e-12</wgt>
  <wgt id="565">5.59861e-12</wgt>
  <wgt id="566">5.85479e-12</wgt>
  <wgt id="567">5.70132e-12</wgt>
  <wgt id="568">5.78963e-12</wgt>
  <wgt id="569">5.84896e-12</wgt>
  <wgt id="570">5.65038e-12</wgt>
  <wgt id="571">6.4012e-12</wgt>
  <wgt id="572">5.6619e-12</wgt>
  <wgt id="573">5.53173e-12</wgt>
  <wgt id="574">5.58672e-12</wgt>
  <wgt id="575">6.34564e-12</wgt>
  <wgt id="576">6.24752e-12</wgt>
  <wgt id="577">6.56097e-12</wgt>
  <wgt id="578">6.46801e-12</wgt>
  <wgt id="579">6.41049e-12</wgt>
  <wgt id="580">6.44046e-12</wgt>
  <wgt id="581">6.71888e-12</wgt>
  <wgt id="582">6.22962e-12</wgt>
  <wgt id="583">6.40714e-12</wgt>
  <wgt id="584">6.35204e-12</wgt>
  <wgt id="585">6.39822e-12</wgt>
  <wgt id="586">6.20417e-12</wgt>
  <wgt id="587">6.41789e-12</wgt>
  <wgt id="588">6.3031e-12</wgt>
  <wgt id="589">6.42077e-12</wgt>
  <wgt id="590">6.4481e-12</wgt>
  <wgt id="591">6.59471e-12</wgt>
  <wgt id="592">6.23562e-12</wgt>
  <wgt id="593">6.31634e-12</wgt>
  <wgt id="594">6.59343e-12</wgt>
  <wgt id="595">6.30173e-12</wgt>
  <wgt id="596">6.42538e-12</wgt>
  <wgt id="597">6.11743e-12</wgt>
  <wgt id="598">6.27204e-12</wgt>
  <wgt id="599">6.66251e-12</wgt>
  <wgt id="600">6.28217e-12</wgt>
  <wgt id="601">6.16653e-12</wgt>
  <wgt id="602">6.23085e-12</wgt>
  <wgt id="603">6.2599e-12</wgt>
  <wgt id="604">6.42748e-12</wgt>
  <wgt id="605">6.60193e-12</wgt>
  <wgt id="606">6.18709e-12</wgt>
  <wgt id="607">6.25537e-12</wgt>
  <wgt id="608">6.33206e-12</wgt>
  <wgt id="609">5.97703e-12</wgt>
  <wgt id="610">6.10148e-12</wgt>
  <wgt id="611">6.44477e-12</wgt>
  <wgt id="612">6.81152e-12</wgt>
  <wgt id="613">6.35251e-12</wgt>
  <wgt id="614">6.42601e-12</wgt>
  <wgt id="615">6.21701e-12</wgt>
  <wgt id="616">6.75634e-12</wgt>
  <wgt id="617">6.5675e-12</wgt>
  <wgt id="618">6.35423e-12</wgt>
  <wgt id="619">6.30577e-12</wgt>
  <wgt id="620">6.56707e-12</wgt>
  <wgt id="621">6.44092e-12</wgt>
  <wgt id="622">6.41789e-12</wgt>
  <wgt id="623">6.50929e-12</wgt>
  <wgt id="624">6.30702e-12</wgt>
  <wgt id="625">6.27539e-12</wgt>
  <wgt id="626">6.21206e-12</wgt>
  <wgt id="627">6.12178e-12</wgt>
  <wgt id="628">6.69424e-12</wgt>
  <wgt id="629">6.20797e-12</wgt>
  <wgt id="630">6.16814e-12</wgt>
  <wgt id="631">6.35044e-12</wgt>
  <wgt id="632">6.16547e-12</wgt>
  <wgt id="633">6.26593e-12</wgt>
  <wgt id="634">6.37438e-12</wgt>
  <wgt id="635">6.28513e-12</wgt>
  <wgt id="636">6.38206e-12</wgt>
  <wgt id="637">6.35995e-12</wgt>
  <wgt id="638">6.12332e-12</wgt>
  <wgt id="639">6.27742e-12</wgt>
  <wgt id="640">6.35916e-12</wgt>
  <wgt id="641">6.358e-12</wgt>
  <wgt id="642">6.22095e-12</wgt>
  <wgt id="643">6.32241e-12</wgt>
  <wgt id="644">6.13971e-12</wgt>
  <wgt id="645">6.38632e-12</wgt>
  <wgt id="646">6.47223e-12</wgt>
  <wgt id="647">6.24445e-12</wgt>
  <wgt id="648">6.36983e-12</wgt>
  <wgt id="649">6.44205e-12</wgt>
  <wgt id="650">6.23338e-12</wgt>
  <wgt id="651">6.40149e-12</wgt>
  <wgt id="652">6.33294e-12</wgt>
  <wgt id="653">6.18122e-12</wgt>
  <wgt id="654">6.32101e-12</wgt>
  <wgt id="655">6.21574e-12</wgt>
  <wgt id="656">6.34528e-12</wgt>
  <wgt id="657">6.49328e-12</wgt>
  <wgt id="658">6.43916e-12</wgt>
  <wgt id="659">6.11676e-12</wgt>
  <wgt id="660">6.46643e-12</wgt>
  <wgt id="661">6.25199e-12</wgt>
  <wgt id="662">6.32416e-12</wgt>
  <wgt id="663">6.32809e-12</wgt>
  <wgt id="664">6.24357e-12</wgt>
  <wgt id="665">6.32175e-12</wgt>
  <wgt id="666">6.32573e-12</wgt>
  <wgt id="667">6.54013e-12</wgt>
  <wgt id="668">6.31636e-12</wgt>
  <wgt id="669">6.50175e-12</wgt>
  <wgt id="670">6.42478e-12</wgt>
  <wgt id="671">6.24983e-12</wgt>
  <wgt id="672">6.08143e-12</wgt>
  <wgt id="673">6.3247e-12</wgt>
  <wgt id="674">6.21915e-12</wgt>
  <wgt id="675">6.21874e-12</wgt>
  <wgt id="676">7.90195e-12</wgt>
  <wgt id="677">8.00804e-12</wgt>
  <wgt id="678">8.2559e-12</wgt>
  <wgt id="679">7.50237e-12</wgt>
  <wgt id="680">7.64014e-12</wgt>
  <wgt id="681">8.12552e-12</wgt>
  <wgt id="682">8.03705e-12</wgt>
  <wgt id="683">7.83571e-12</wgt>
  <wgt id="684">8.2433e-12</wgt>
  <wgt id="685">7.48679e-12</wgt>
  <wgt id="686">7.90965e-12</wgt>
  <wgt id="687">8.25458e-12</wgt>
  <wgt id="688">7.86778e-12</wgt>
  <wgt id="689">8.47581e-12</wgt>
  <wgt id="690">8.34012e-12</wgt>
  <wgt id="691">8.33818e-12</wgt>
  <wgt id="692">7.86544e-12</wgt>
  <wgt id="693">9.09663e-12</wgt>
  <wgt id="694">8.34175e-12</wgt>
  <wgt id="695">7.65067e-12</wgt>
  <wgt id="696">7.52276e-12</wgt>
  <wgt id="697">7.6744e-12</wgt>
  <wgt id="698">7.40572e-12</wgt>
  <wgt id="699">7.31991e-12</wgt>
  <wgt id="700">7.02238e-12</wgt>
  <wgt id="701">7.92106e-12</wgt>
  <wgt id="702">7.57719e-12</wgt>
  <wgt id="703">8.94394e-12</wgt>
  <wgt id="704">8.5005e-12</wgt>
  <wgt id="705">8.19001e-12</wgt>
  <wgt id="706">7.38041e-12</wgt>
  <wgt id="707">7.60676e-12</wgt>
  <wgt id="708">7.81028e-12</wgt>
  <wgt id="709">7.77385e-12</wgt>
  <wgt id="710">7.10417e-12</wgt>
  <wgt id="711">7.88832e-12</wgt>
  <wgt id="712">7.80215e-12</wgt>
  <wgt id="713">8.45269e-12</wgt>
  <wgt id="714">7.8621e-12</wgt>
  <wgt id="715">7.82536e-12</wgt>
  <wgt id="716">7.61651e-12</wgt>
  <wgt id="717">7.5985e-12</wgt>
  <wgt id="718">7.78373e-12</wgt>
  <wgt id="719">7.23622e-12</wgt>
  <wgt id="720">7.48468e-12</wgt>
  <wgt id="721">7.47907e-12</wgt>
  <wgt id="722">7.15099e-12</wgt>
  <wgt id="723">8.3496e-12</wgt>
  <wgt id="724">8.21554e-12</wgt>
  <wgt id="725">8.34601e-12</wgt>
  <wgt id="726">7.98979e-12</wgt>
  <wgt id="727">7.72193e-12</wgt>
  <wgt id="728">7.81547e-12</wgt>
  <wgt id="729">7.18036e-12</wgt>
  <wgt id="730">8.40772e-12</wgt>
  <wgt id="731">7.82564e-12</wgt>
  <wgt id="732">8.60507e-12</wgt>
  <wgt id="733">7.90345e-12</wgt>
  <wgt id="734">8.08435e-12</wgt>
  <wgt id="735">7.85867e-12</wgt>
  <wgt id="736">7.79976e-12</wgt>
  <wgt id="737">8.03463e-12</wgt>
  <wgt id="738">7.58939e-12</wgt>
  <wgt id="739">7.89488e-12</wgt>
  <wgt id="740">8.72185e-12</wgt>
  <wgt id="741">7.04177e-12</wgt>
  <wgt id="742">7.78546e-12</wgt>
  <wgt id="743">7.65535e-12</wgt>
  <wgt id="744">7.74758e-12</wgt>
  <wgt id="745">8.1983e-12</wgt>
  <wgt id="746">8.29825e-12</wgt>
  <wgt id="747">7.29031e-12</wgt>
  <wgt id="748">7.7821e-12</wgt>
  <wgt id="749">8.33938e-12</wgt>
  <wgt id="750">7.87286e-12</wgt>
  <wgt id="751">8.18359e-12</wgt>
  <wgt id="752">7.30442e-12</wgt>
  <wgt id="753">7.54295e-12</wgt>
  <wgt id="754">8.1518e-12</wgt>
  <wgt id="755">7.95076e-12</wgt>
  <wgt id="756">7.9482e-12</wgt>
  <wgt id="757">7.35213e-12</wgt>
  <wgt id="758">8.0018e-12</wgt>
  <wgt id="759">7.89634e-12</wgt>
  <wgt id="760">8.04354e-12</wgt>
  <wgt id="761">8.31255e-12</wgt>
  <wgt id="762">8.32255e-12</wgt>
  <wgt id="763">7.91309e-12</wgt>
  <wgt id="764">8.17953e-12</wgt>
  <wgt id="765">7.98769e-12</wgt>
  <wgt id="766">7.8752e-12</wgt>
  <wgt id="767">8.08303e-12</wgt>
  <wgt id="768">7.5167e-12</wgt>
  <wgt id="769">8.34805e-12</wgt>
  <wgt id="770">7.68471e-12</wgt>
  <wgt id="771">9.23141e-12</wgt>
  <wgt id="772">7.44626e-12</wgt>
  <wgt id="773">7.86827e-12</wgt>
  <wgt id="774">7.15202e-12</wgt>
  <wgt id="775">8.27043e-12</wgt>
  <wgt id="776">8.61649e-12</wgt>
  <wgt id="777">7.64944e-12</wgt>
  <wgt id="778">5.93081e-12</wgt>
  <wgt id="779">5.06313e-12</wgt>
  <wgt id="780">4.27684e-12</wgt>
  <wgt id="781">5.93043e-12</wgt>
  <wgt id="782">6.27399e-12</wgt>
  <wgt id="783">5.15675e-12</wgt>
  <wgt id="784">5.28274e-12</wgt>
  <wgt id="785">7.09326e-12</wgt>
  <wgt id="786">4.65139e-12</wgt>
  <wgt id="787">6.63029e-12</wgt>
  <wgt id="788">3.9752e-12</wgt>
  <wgt id="789">4.80274e-12</wgt>
  <wgt id="790">4.63266e-12</wgt>
  <wgt id="791">5.50855e-12</wgt>
  <wgt id="792">7.57617e-12</wgt>
  <wgt id="793">5.74104e-12</wgt>
  <wgt id="794">4.7153e-12</wgt>
  <wgt id="795">6.76941e-12</wgt>
  <wgt id="796">7.6838e-12</wgt>
  <wgt id="797">6.73303e-12</wgt>
  <wgt id="798">5.54443e-12</wgt>
  <wgt id="799">6.66083e-12</wgt>
  <wgt id="800">4.85592e-12</wgt>
  <wgt id="801">5.60283e-12</wgt>
  <wgt id="802">4.75839e-12</wgt>
  <wgt id="803">7.64911e-12</wgt>
  <wgt id="804">6.72515e-12</wgt>
  <wgt id="805">6.85518e-12</wgt>
  <wgt id="806">6.68522e-12</wgt>
  <wgt id="807">5.69357e-12</wgt>
  <wgt id="808">5.7979e-12</wgt>
  <wgt id="809">5.48275e-12</wgt>
  <wgt id="810">6.76607e-12</wgt>
  <wgt id="811">6.43565e-12</wgt>
  <wgt id="812">4.67672e-12</wgt>
  <wgt id="813">4.73931e-12</wgt>
  <wgt id="814">5.04611e-12</wgt>
  <wgt id="815">5.08132e-12</wgt>
  <wgt id="816">4.50912e-12</wgt>
  <wgt id="817">6.24759e-12</wgt>
  <wgt id="818">5.77552e-12</wgt>
  <wgt id="819">5.07889e-12</wgt>
  <wgt id="820">5.95461e-12</wgt>
  <wgt id="821">6.71646e-12</wgt>
  <wgt id="822">5.10873e-12</wgt>
  <wgt id="823">6.72899e-12</wgt>
  <wgt id="824">7.85729e-12</wgt>
  <wgt id="825">4.543e-12</wgt>
  <wgt id="826">6.15671e-12</wgt>
  <wgt id="827">3.81912e-12</wgt>
  <wgt id="828">7.58081e-12</wgt>
  <wgt id="829">6.12145e-12</wgt>
  <wgt id="830">4.32008e-12</wgt>
  <wgt id="831">6.31846e-12</wgt>
  <wgt id="832">9.4791e-12</wgt>
  <wgt id="833">5.62412e-12</wgt>
  <wgt id="834">8.87442e-12</wgt>
  <wgt id="835">4.87442e-12</wgt>
  <wgt id="836">5.96836e-12</wgt>
  <wgt id="837">6.63404e-12</wgt>
  <wgt id="838">5.69792e-12</wgt>
  <wgt id="839">6.28973e-12</wgt>
  <wgt id="840">5.62846e-12</wgt>
  <wgt id="841">7.10743e-12</wgt>
  <wgt id="842">5.44795e-12</wgt>
  <wgt id="843">5.7692e-12</wgt>
  <wgt id="844">6.13483e-12</wgt>
  <wgt id="845">8.01948e-12</wgt>
  <wgt id="846">5.48402e-12</wgt>
  <wgt id="847">5.88858e-12</wgt>
  <wgt id="848">5.27045e-12</wgt>
  <wgt id="849">6.06043e-12</wgt>
  <wgt id="850">7.5236e-12</wgt>
  <wgt id="851">6.44913e-12</wgt>
  <wgt id="852">5.21592e-12</wgt>
  <wgt id="853">6.41739e-12</wgt>
  <wgt id="854">7.09772e-12</wgt>
  <wgt id="855">6.73694e-12</wgt>
  <wgt id="856">4.43097e-12</wgt>
  <wgt id="857">5.99422e-12</wgt>
  <wgt id="858">5.89474e-12</wgt>
  <wgt id="859">5.53518e-12</wgt>
  <wgt id="860">6.24538e-12</wgt>
  <wgt id="861">5.33596e-12</wgt>
  <wgt id="862">6.02777e-12</wgt>
  <wgt id="863">6.20062e-12</wgt>
  <wgt id="864">6.23914e-12</wgt>
  <wgt id="865">8.26005e-12</wgt>
  <wgt id="866">9.0302e-12</wgt>
  <wgt id="867">5.98896e-12</wgt>
  <wgt id="868">5.84085e-12</wgt>
  <wgt id="869">4.73397e-12</wgt>
  <wgt id="870">4.97427e-12</wgt>
  <wgt id="871">4.83774e-12</wgt>
  <wgt id="872">6.90485e-12</wgt>
  <wgt id="873">4.95707e-12</wgt>
  <wgt id="874">6.18185e-12</wgt>
  <wgt id="875">5.20004e-12</wgt>
  <wgt id="876">6.9202e-12</wgt>
  <wgt id="877">6.68992e-12</wgt>
  <wgt id="878">5.21997e-12</wgt>
  <wgt id="879">7.90195e-12</wgt>
  <wgt id="880">8.00804e-12</wgt>
  <wgt id="881">8.2559e-12</wgt>
  <wgt id="882">7.50237e-12</wgt>
  <wgt id="883">7.64014e-12</wgt>
  <wgt id="884">8.12552e-12</wgt>
  <wgt id="885">8.03705e-12</wgt>
  <wgt id="886">7.83571e-12</wgt>
  <wgt id="887">8.2433e-12</wgt>
  <wgt id="888">7.48679e-12</wgt>
  <wgt id="889">7.90965e-12</wgt>
  <wgt id="890">8.25458e-12</wgt>
  <wgt id="891">7.86778e-12</wgt>
  <wgt id="892">8.47581e-12</wgt>
  <wgt id="893">8.34012e-12</wgt>
  <wgt id="894">8.33818e-12</wgt>
  <wgt id="895">7.86544e-12</wgt>
  <wgt id="896">9.09663e-12</wgt>
  <wgt id="897">8.34175e-12</wgt>
  <wgt id="898">7.65067e-12</wgt>
  <wgt id="899">7.52276e-12</wgt>
  <wgt id="900">7.6744e-12</wgt>
  <wgt id="901">7.40572e-12</wgt>
  <wgt id="902">7.31991e-12</wgt>
  <wgt id="903">7.02238e-12</wgt>
  <wgt id="904">7.92106e-12</wgt>
  <wgt id="905">7.57719e-12</wgt>
  <wgt id="906">8.94394e-12</wgt>
  <wgt id="907">8.5005e-12</wgt>
  <wgt id="908">8.19001e-12</wgt>
  <wgt id="909">7.38041e-12</wgt>
  <wgt id="910">7.60676e-12</wgt>
  <wgt id="911">7.81028e-12</wgt>
  <wgt id="912">7.77385e-12</wgt>
  <wgt id="913">7.10417e-12</wgt>
  <wgt id="914">7.88832e-12</wgt>
  <wgt id="915">7.80215e-12</wgt>
  <wgt id="916">8.45269e-12</wgt>
  <wgt id="917">7.8621e-12</wgt>
  <wgt id="918">7.82536e-12</wgt>
  <wgt id="919">7.61651e-12</wgt>
  <wgt id="920">7.5985e-12</wgt>
  <wgt id="921">7.78373e-12</wgt>
  <wgt id="922">7.23622e-12</wgt>
  <wgt id="923">7.48468e-12</wgt>
  <wgt id="924">7.47907e-12</wgt>
  <wgt id="925">7.15099e-12</wgt>
  <wgt id="926">8.3496e-12</wgt>
  <wgt id="927">8.21554e-12</wgt>
  <wgt id="928">8.34601e-12</wgt>
  <wgt id="929">7.98979e-12</wgt>
  <wgt id="930">7.72193e-12</wgt>
  <wgt id="931">7.81547e-12</wgt>
  <wgt id="932">7.18036e-12</wgt>
  <wgt id="933">8.40772e-12</wgt>
  <wgt id="934">7.82564e-12</wgt>
  <wgt id="935">8.60507e-12</wgt>
  <wgt id="936">7.90345e-12</wgt>
  <wgt id="937">8.08435e-12</wgt>
  <wgt id="938">7.85867e-12</wgt>
  <wgt id="939">7.79976e-12</wgt>
  <wgt id="940">8.03463e-12</wgt>
  <wgt id="941">7.58939e-12</wgt>
  <wgt id="942">7.89488e-12</wgt>
  <wgt id="943">8.72185e-12</wgt>
  <wgt id="944">7.04177e-12</wgt>
  <wgt id="945">7.78546e-12</wgt>
  <wgt id="946">7.65535e-12</wgt>
  <wgt id="947">7.74758e-12</wgt>
  <wgt id="948">8.1983e-12</wgt>
  <wgt id="949">8.29825e-12</wgt>
  <wgt id="950">7.29031e-12</wgt>
  <wgt id="951">7.7821e-12</wgt>
  <wgt id="952">8.33938e-12</wgt>
  <wgt id="953">7.87286e-12</wgt>
  <wgt id="954">8.18359e-12</wgt>
  <wgt id="955">7.30442e-12</wgt>
  <wgt id="956">7.54295e-12</wgt>
  <wgt id="957">8.1518e-12</wgt>
  <wgt id="958">7.95076e-12</wgt>
  <wgt id="959">7.9482e-12</wgt>
  <wgt id="960">7.35213e-12</wgt>
  <wgt id="961">8.0018e-12</wgt>
  <wgt id="962">7.89634e-12</wgt>
  <wgt id="963">8.04354e-12</wgt>
  <wgt id="964">8.31255e-12</wgt>
  <wgt id="965">8.32255e-12</wgt>
  <wgt id="966">7.91309e-12</wgt>
  <wgt id="967">8.17953e-12</wgt>
  <wgt id="968">7.98769e-12</wgt>
  <wgt id="969">7.8752e-12</wgt>
  <wgt id="970">8.08303e-12</wgt>
  <wgt id="971">7.5167e-12</wgt>
  <wgt id="972">8.34805e-12</wgt>
  <wgt id="973">7.68471e-12</wgt>
  <wgt id="974">9.23141e-12</wgt>
  <wgt id="975">7.44626e-12</wgt>
  <wgt id="976">7.86827e-12</wgt>
  <wgt id="977">7.15202e-12</wgt>
  <wgt id="978">8.27043e-12</wgt>
  <wgt id="979">8.61649e-12</wgt>
  <wgt id="980">7.91516e-12</wgt>
  <wgt id="981">7.93067e-12</wgt>
  <wgt id="982">7.68416e-12</wgt>
</rwgt>
</event>
<event>
 5   1  0.5790000E-11  0.2318332E+04  0.7818608E-02  0.7705713E-01
       21   -1    0    0  502  501  0.00000000000E+00  0.00000000000E+00  0.14137972656E+04  0.14137972656E+04  0.00000000000E+00 0. -1.
       21   -1    0    0  501  502 -0.00000000000E+00 -0.00000000000E+00 -0.95039507645E+03  0.95039507645E+03  0.00000000000E+00 0.  1.
       39    2    1    2    0    0  0.00000000000E+00  0.00000000000E+00  0.46340218914E+03  0.23641923420E+04  0.23183321249E+04 0.  0.
       25    1    3    3    0    0 -0.60635893091E+02 -0.10868721207E+04  0.61743371013E+03  0.12577031068E+04  0.12500000000E+03 0.  0.
       25    1    3    3    0    0  0.60635893091E+02  0.10868721207E+04 -0.15403152099E+03  0.11064892353E+04  0.12500000000E+03 0.  0.
<mgrwt>
<rscale>  0 0.23183321E+04</rscale>
<asrwt>0</asrwt>
<pdfrwt beam="1">  1       21 0.21750727E+00 0.23183321E+04</pdfrwt>
<pdfrwt beam="2">  1       21 0.14621463E+00 0.23183321E+04</pdfrwt>
<totfact> 0.12491935E+01</totfact>
</mgrwt>
<rwgt>
  <wgt id="1">5.79e-12</wgt>
  <wgt id="2">5.03931e-12</wgt>
  <wgt id="3">6.72217e-12</wgt>
  <wgt id="4">5.79e-12</wgt>
  <wgt id="5">5.03931e-12</wgt>
  <wgt id="6">6.72217e-12</wgt>
  <wgt id="7">5.79e-12</wgt>
  <wgt id="8">5.03931e-12</wgt>
  <wgt id="9">6.72217e-12</wgt>
  <wgt id="10">5.99547e-12</wgt>
  <wgt id="11">5.99003e-12</wgt>
  <wgt id="12">5.98408e-12</wgt>
  <wgt id="13">5.97514e-12</wgt>
  <wgt id="14">6.01732e-12</wgt>
  <wgt id="15">6.0048e-12</wgt>
  <wgt id="16">5.9841e-12</wgt>
  <wgt id="17">6.00737e-12</wgt>
  <wgt id="18">5.985e-12</wgt>
  <wgt id="19">6.00886e-12</wgt>
  <wgt id="20">5.97816e-12</wgt>
  <wgt id="21">5.95932e-12</wgt>
  <wgt id="22">5.97305e-12</wgt>
  <wgt id="23">5.94053e-12</wgt>
  <wgt id="24">5.96764e-12</wgt>
  <wgt id="25">5.98093e-12</wgt>
  <wgt id="26">6.01939e-12</wgt>
  <wgt id="27">5.99466e-12</wgt>
  <wgt id="28">5.96753e-12</wgt>
  <wgt id="29">6.00071e-12</wgt>
  <wgt id="30">5.97868e-12</wgt>
  <wgt id="31">6.0129e-12</wgt>
  <wgt id="32">5.98445e-12</wgt>
  <wgt id="33">6.00981e-12</wgt>
  <wgt id="34">5.97562e-12</wgt>
  <wgt id="35">5.98972e-12</wgt>
  <wgt id="36">6.01436e-12</wgt>
  <wgt id="37">5.97989e-12</wgt>
  <wgt id="38">5.97822e-12</wgt>
  <wgt id="39">6.05895e-12</wgt>
  <wgt id="40">6.00729e-12</wgt>
  <wgt id="41">5.99377e-12</wgt>
  <wgt id="42">6.00854e-12</wgt>
  <wgt id="43">5.99658e-12</wgt>
  <wgt id="44">5.97847e-12</wgt>
  <wgt id="45">6.00808e-12</wgt>
  <wgt id="46">6.00313e-12</wgt>
  <wgt id="47">5.97612e-12</wgt>
  <wgt id="48">5.99556e-12</wgt>
  <wgt id="49">6.00377e-12</wgt>
  <wgt id="50">6.02411e-12</wgt>
  <wgt id="51">6.01752e-12</wgt>
  <wgt id="52">5.98979e-12</wgt>
  <wgt id="53">5.95614e-12</wgt>
  <wgt id="54">5.98405e-12</wgt>
  <wgt id="55">5.99479e-12</wgt>
  <wgt id="56">6.01712e-12</wgt>
  <wgt id="57">6.01403e-12</wgt>
  <wgt id="58">5.95735e-12</wgt>
  <wgt id="59">5.97556e-12</wgt>
  <wgt id="60">5.99823e-12</wgt>
  <wgt id="61">5.97725e-12</wgt>
  <wgt id="62">5.98902e-12</wgt>
  <wgt id="63">5.99783e-12</wgt>
  <wgt id="64">6.00117e-12</wgt>
  <wgt id="65">6.00291e-12</wgt>
  <wgt id="66">5.98742e-12</wgt>
  <wgt id="67">5.97953e-12</wgt>
  <wgt id="68">5.99e-12</wgt>
  <wgt id="69">5.99543e-12</wgt>
  <wgt id="70">5.99293e-12</wgt>
  <wgt id="71">5.99387e-12</wgt>
  <wgt id="72">5.98625e-12</wgt>
  <wgt id="73">6.00007e-12</wgt>
  <wgt id="74">5.99875e-12</wgt>
  <wgt id="75">5.99026e-12</wgt>
  <wgt id="76">6.01074e-12</wgt>
  <wgt id="77">5.99411e-12</wgt>
  <wgt id="78">5.99614e-12</wgt>
  <wgt id="79">6.00785e-12</wgt>
  <wgt id="80">5.97135e-12</wgt>
  <wgt id="81">5.98939e-12</wgt>
  <wgt id="82">5.99564e-12</wgt>
  <wgt id="83">5.97275e-12</wgt>
  <wgt id="84">5.98503e-12</wgt>
  <wgt id="85">5.98327e-12</wgt>
  <wgt id="86">6.01147e-12</wgt>
  <wgt id="87">5.96472e-12</wgt>
  <wgt id="88">6.00211e-12</wgt>
  <wgt id="89">6.00094e-12</wgt>
  <wgt id="90">6.00597e-12</wgt>
  <wgt id="91">6.00066e-12</wgt>
  <wgt id="92">6.00685e-12</wgt>
  <wgt id="93">5.99655e-12</wgt>
  <wgt id="94">5.98996e-12</wgt>
  <wgt id="95">6.00178e-12</wgt>
  <wgt id="96">5.99962e-12</wgt>
  <wgt id="97">5.98604e-12</wgt>
  <wgt id="98">5.99821e-12</wgt>
  <wgt id="99">5.98941e-12</wgt>
  <wgt id="100">6.00143e-12</wgt>
  <wgt id="101">5.99502e-12</wgt>
  <wgt id="102">5.99006e-12</wgt>
  <wgt id="103">6.0035e-12</wgt>
  <wgt id="104">5.99242e-12</wgt>
  <wgt id="105">6.00254e-12</wgt>
  <wgt id="106">5.98704e-12</wgt>
  <wgt id="107">6.012e-12</wgt>
  <wgt id="108">5.98927e-12</wgt>
  <wgt id="109">5.9964e-12</wgt>
  <wgt id="110">5.99559e-12</wgt>
  <wgt id="111">6.05383e-12</wgt>
  <wgt id="112">5.99723e-12</wgt>
  <wgt id="113">8.08034e-12</wgt>
  <wgt id="114">8.30725e-12</wgt>
  <wgt id="115">8.18972e-12</wgt>
  <wgt id="116">1.14419e-11</wgt>
  <wgt id="117">6.67461e-12</wgt>
  <wgt id="118">6.69795e-12</wgt>
  <wgt id="119">6.66121e-12</wgt>
  <wgt id="120">6.67519e-12</wgt>
  <wgt id="121">6.67441e-12</wgt>
  <wgt id="122">6.66266e-12</wgt>
  <wgt id="123">6.69053e-12</wgt>
  <wgt id="124">6.6649e-12</wgt>
  <wgt id="125">6.68059e-12</wgt>
  <wgt id="126">6.68651e-12</wgt>
  <wgt id="127">6.66671e-12</wgt>
  <wgt id="128">6.69544e-12</wgt>
  <wgt id="129">6.65396e-12</wgt>
  <wgt id="130">6.71324e-12</wgt>
  <wgt id="131">6.63518e-12</wgt>
  <wgt id="132">6.50102e-12</wgt>
  <wgt id="133">6.88e-12</wgt>
  <wgt id="134">6.60308e-12</wgt>
  <wgt id="135">6.73054e-12</wgt>
  <wgt id="136">6.76025e-12</wgt>
  <wgt id="137">6.57078e-12</wgt>
  <wgt id="138">6.93353e-12</wgt>
  <wgt id="139">6.42442e-12</wgt>
  <wgt id="140">6.63081e-12</wgt>
  <wgt id="141">6.7086e-12</wgt>
  <wgt id="142">6.67537e-12</wgt>
  <wgt id="143">6.68435e-12</wgt>
  <wgt id="144">6.4859e-12</wgt>
  <wgt id="145">6.84991e-12</wgt>
  <wgt id="146">6.73466e-12</wgt>
  <wgt id="147">6.62685e-12</wgt>
  <wgt id="148">6.69502e-12</wgt>
  <wgt id="149">6.67299e-12</wgt>
  <wgt id="150">6.73215e-12</wgt>
  <wgt id="151">6.6478e-12</wgt>
  <wgt id="152">6.6777e-12</wgt>
  <wgt id="153">6.67335e-12</wgt>
  <wgt id="154">6.72681e-12</wgt>
  <wgt id="155">6.6116e-12</wgt>
  <wgt id="156">6.80842e-12</wgt>
  <wgt id="157">6.53426e-12</wgt>
  <wgt id="158">8.02879e-12</wgt>
  <wgt id="159">8.0626e-12</wgt>
  <wgt id="160">8.00202e-12</wgt>
  <wgt id="161">8.00894e-12</wgt>
  <wgt id="162">8.05147e-12</wgt>
  <wgt id="163">8.02011e-12</wgt>
  <wgt id="164">8.04199e-12</wgt>
  <wgt id="165">8.03208e-12</wgt>
  <wgt id="166">8.02639e-12</wgt>
  <wgt id="167">8.02301e-12</wgt>
  <wgt id="168">8.03742e-12</wgt>
  <wgt id="169">7.99454e-12</wgt>
  <wgt id="170">8.05027e-12</wgt>
  <wgt id="171">8.0203e-12</wgt>
  <wgt id="172">8.04123e-12</wgt>
  <wgt id="173">8.02795e-12</wgt>
  <wgt id="174">8.02915e-12</wgt>
  <wgt id="175">7.80418e-12</wgt>
  <wgt id="176">8.32221e-12</wgt>
  <wgt id="177">8.07144e-12</wgt>
  <wgt id="178">7.98989e-12</wgt>
  <wgt id="179">8.36603e-12</wgt>
  <wgt id="180">7.49718e-12</wgt>
  <wgt id="181">7.79514e-12</wgt>
  <wgt id="182">8.1832e-12</wgt>
  <wgt id="183">7.88619e-12</wgt>
  <wgt id="184">8.09969e-12</wgt>
  <wgt id="185">7.9633e-12</wgt>
  <wgt id="186">8.1082e-12</wgt>
  <wgt id="187">7.95619e-12</wgt>
  <wgt id="188">8.15961e-12</wgt>
  <wgt id="189">7.97709e-12</wgt>
  <wgt id="190">8.05004e-12</wgt>
  <wgt id="191">8.05082e-12</wgt>
  <wgt id="192">8.01588e-12</wgt>
  <wgt id="193">8.14319e-12</wgt>
  <wgt id="194">7.97245e-12</wgt>
  <wgt id="195">7.83051e-12</wgt>
  <wgt id="196">8.38245e-12</wgt>
  <wgt id="197">8.06888e-12</wgt>
  <wgt id="198">8.01945e-12</wgt>
  <wgt id="199">8.02879e-12</wgt>
  <wgt id="200">8.09745e-12</wgt>
  <wgt id="201">8.07267e-12</wgt>
  <wgt id="202">8.04812e-12</wgt>
  <wgt id="203">8.01161e-12</wgt>
  <wgt id="204">7.99418e-12</wgt>
  <wgt id="205">7.98006e-12</wgt>
  <wgt id="206">7.79396e-12</wgt>
  <wgt id="207">7.83951e-12</wgt>
  <wgt id="208">7.74917e-12</wgt>
  <wgt id="209">7.81802e-12</wgt>
  <wgt id="210">7.77699e-12</wgt>
  <wgt id="211">7.79144e-12</wgt>
  <wgt id="212">7.79615e-12</wgt>
  <wgt id="213">7.7936e-12</wgt>
  <wgt id="214">7.79514e-12</wgt>
  <wgt id="215">7.79984e-12</wgt>
  <wgt id="216">7.79009e-12</wgt>
  <wgt id="217">7.81593e-12</wgt>
  <wgt id="218">7.77709e-12</wgt>
  <wgt id="219">7.78601e-12</wgt>
  <wgt id="220">7.79934e-12</wgt>
  <wgt id="221">7.79115e-12</wgt>
  <wgt id="222">7.8016e-12</wgt>
  <wgt id="223">7.38386e-12</wgt>
  <wgt id="224">8.16755e-12</wgt>
  <wgt id="225">7.70136e-12</wgt>
  <wgt id="226">7.9108e-12</wgt>
  <wgt id="227">7.72111e-12</wgt>
  <wgt id="228">7.82621e-12</wgt>
  <wgt id="229">7.68663e-12</wgt>
  <wgt id="230">7.84775e-12</wgt>
  <wgt id="231">8.01648e-12</wgt>
  <wgt id="232">7.61144e-12</wgt>
  <wgt id="233">7.75387e-12</wgt>
  <wgt id="234">7.85785e-12</wgt>
  <wgt id="235">7.63267e-12</wgt>
  <wgt id="236">7.94393e-12</wgt>
  <wgt id="237">7.68538e-12</wgt>
  <wgt id="238">7.83126e-12</wgt>
  <wgt id="239">7.74718e-12</wgt>
  <wgt id="240">7.87947e-12</wgt>
  <wgt id="241">7.71514e-12</wgt>
  <wgt id="242">7.88923e-12</wgt>
  <wgt id="243">7.889e-12</wgt>
  <wgt id="244">7.83422e-12</wgt>
  <wgt id="245">7.78867e-12</wgt>
  <wgt id="246">7.85117e-12</wgt>
  <wgt id="247">7.79396e-12</wgt>
  <wgt id="248">7.86174e-12</wgt>
  <wgt id="249">7.83583e-12</wgt>
  <wgt id="250">7.81181e-12</wgt>
  <wgt id="251">7.77602e-12</wgt>
  <wgt id="252">7.75897e-12</wgt>
  <wgt id="253">7.74698e-12</wgt>
  <wgt id="254">7.62945e-12</wgt>
  <wgt id="255">7.63662e-12</wgt>
  <wgt id="256">7.62157e-12</wgt>
  <wgt id="257">7.63519e-12</wgt>
  <wgt id="258">7.62532e-12</wgt>
  <wgt id="259">7.68026e-12</wgt>
  <wgt id="260">7.58036e-12</wgt>
  <wgt id="261">7.63994e-12</wgt>
  <wgt id="262">7.61668e-12</wgt>
  <wgt id="263">7.62579e-12</wgt>
  <wgt id="264">7.63327e-12</wgt>
  <wgt id="265">7.6207e-12</wgt>
  <wgt id="266">7.64705e-12</wgt>
  <wgt id="267">7.6317e-12</wgt>
  <wgt id="268">7.62589e-12</wgt>
  <wgt id="269">7.65367e-12</wgt>
  <wgt id="270">7.61294e-12</wgt>
  <wgt id="271">7.61628e-12</wgt>
  <wgt id="272">7.64421e-12</wgt>
  <wgt id="273">7.60602e-12</wgt>
  <wgt id="274">7.64723e-12</wgt>
  <wgt id="275">7.59802e-12</wgt>
  <wgt id="276">7.66191e-12</wgt>
  <wgt id="277">7.58621e-12</wgt>
  <wgt id="278">7.66924e-12</wgt>
  <wgt id="279">7.48452e-12</wgt>
  <wgt id="280">7.8111e-12</wgt>
  <wgt id="281">7.59633e-12</wgt>
  <wgt id="282">7.63119e-12</wgt>
  <wgt id="283">7.41326e-12</wgt>
  <wgt id="284">7.89528e-12</wgt>
  <wgt id="285">7.27082e-12</wgt>
  <wgt id="286">7.92562e-12</wgt>
  <wgt id="287">7.65325e-12</wgt>
  <wgt id="288">7.59927e-12</wgt>
  <wgt id="289">7.6823e-12</wgt>
  <wgt id="290">7.50651e-12</wgt>
  <wgt id="291">7.60884e-12</wgt>
  <wgt id="292">7.6342e-12</wgt>
  <wgt id="293">7.5716e-12</wgt>
  <wgt id="294">7.68684e-12</wgt>
  <wgt id="295">7.48708e-12</wgt>
  <wgt id="296">7.80287e-12</wgt>
  <wgt id="297">7.62895e-12</wgt>
  <wgt id="298">7.65719e-12</wgt>
  <wgt id="299">7.60532e-12</wgt>
  <wgt id="300">7.69333e-12</wgt>
  <wgt id="301">7.52662e-12</wgt>
  <wgt id="302">7.89066e-12</wgt>
  <wgt id="303">7.5726e-12</wgt>
  <wgt id="304">7.66191e-12</wgt>
  <wgt id="305">7.65321e-12</wgt>
  <wgt id="306">7.6611e-12</wgt>
  <wgt id="307">7.64463e-12</wgt>
  <wgt id="308">7.65974e-12</wgt>
  <wgt id="309">7.64902e-12</wgt>
  <wgt id="310">7.70626e-12</wgt>
  <wgt id="311">7.60393e-12</wgt>
  <wgt id="312">7.66162e-12</wgt>
  <wgt id="313">7.64465e-12</wgt>
  <wgt id="314">7.64965e-12</wgt>
  <wgt id="315">7.65645e-12</wgt>
  <wgt id="316">7.64478e-12</wgt>
  <wgt id="317">7.67144e-12</wgt>
  <wgt id="318">7.65879e-12</wgt>
  <wgt id="319">7.64356e-12</wgt>
  <wgt id="320">7.67872e-12</wgt>
  <wgt id="321">7.63906e-12</wgt>
  <wgt id="322">7.63615e-12</wgt>
  <wgt id="323">7.67302e-12</wgt>
  <wgt id="324">7.63368e-12</wgt>
  <wgt id="325">7.67015e-12</wgt>
  <wgt id="326">7.62779e-12</wgt>
  <wgt id="327">7.68575e-12</wgt>
  <wgt id="328">7.61395e-12</wgt>
  <wgt id="329">7.67535e-12</wgt>
  <wgt id="330">7.87656e-12</wgt>
  <wgt id="331">7.4402e-12</wgt>
  <wgt id="332">7.62546e-12</wgt>
  <wgt id="333">7.65365e-12</wgt>
  <wgt id="334">7.48347e-12</wgt>
  <wgt id="335">7.86382e-12</wgt>
  <wgt id="336">7.39248e-12</wgt>
  <wgt id="337">7.97004e-12</wgt>
  <wgt id="338">7.73689e-12</wgt>
  <wgt id="339">7.57552e-12</wgt>
  <wgt id="340">7.7029e-12</wgt>
  <wgt id="341">7.52451e-12</wgt>
  <wgt id="342">7.63885e-12</wgt>
  <wgt id="343">7.64558e-12</wgt>
  <wgt id="344">7.60053e-12</wgt>
  <wgt id="345">7.71397e-12</wgt>
  <wgt id="346">7.50516e-12</wgt>
  <wgt id="347">7.82331e-12</wgt>
  <wgt id="348">7.65604e-12</wgt>
  <wgt id="349">7.67624e-12</wgt>
  <wgt id="350">7.62261e-12</wgt>
  <wgt id="351">7.73028e-12</wgt>
  <wgt id="352">7.53956e-12</wgt>
  <wgt id="353">7.92643e-12</wgt>
  <wgt id="354">7.56673e-12</wgt>
  <wgt id="355">7.70619e-12</wgt>
  <wgt id="356">7.62945e-12</wgt>
  <wgt id="357">7.68458e-12</wgt>
  <wgt id="358">7.65321e-12</wgt>
  <wgt id="359">7.65623e-12</wgt>
  <wgt id="360">7.68001e-12</wgt>
  <wgt id="361">7.65325e-12</wgt>
  <wgt id="362">7.78448e-12</wgt>
  <wgt id="363">7.76621e-12</wgt>
  <wgt id="364">7.73978e-12</wgt>
  <wgt id="365">7.71411e-12</wgt>
  <wgt id="366">7.68514e-12</wgt>
  <wgt id="367">7.62616e-12</wgt>
  <wgt id="368">7.59338e-12</wgt>
  <wgt id="369">7.558e-12</wgt>
  <wgt id="370">7.65325e-12</wgt>
  <wgt id="371">7.68755e-12</wgt>
  <wgt id="372">7.66878e-12</wgt>
  <wgt id="373">7.64064e-12</wgt>
  <wgt id="374">7.63835e-12</wgt>
  <wgt id="375">8.16958e-12</wgt>
  <wgt id="376">8.17056e-12</wgt>
  <wgt id="377">8.16804e-12</wgt>
  <wgt id="378">8.19937e-12</wgt>
  <wgt id="379">8.13991e-12</wgt>
  <wgt id="380">8.19141e-12</wgt>
  <wgt id="381">8.16094e-12</wgt>
  <wgt id="382">8.2114e-12</wgt>
  <wgt id="383">8.12806e-12</wgt>
  <wgt id="384">8.17498e-12</wgt>
  <wgt id="385">8.16443e-12</wgt>
  <wgt id="386">8.20179e-12</wgt>
  <wgt id="387">8.15555e-12</wgt>
  <wgt id="388">8.16177e-12</wgt>
  <wgt id="389">8.17879e-12</wgt>
  <wgt id="390">8.19133e-12</wgt>
  <wgt id="391">8.1467e-12</wgt>
  <wgt id="392">8.10799e-12</wgt>
  <wgt id="393">8.20472e-12</wgt>
  <wgt id="394">8.18106e-12</wgt>
  <wgt id="395">8.15411e-12</wgt>
  <wgt id="396">8.17485e-12</wgt>
  <wgt id="397">8.16596e-12</wgt>
  <wgt id="398">8.1354e-12</wgt>
  <wgt id="399">8.20269e-12</wgt>
  <wgt id="400">8.1561e-12</wgt>
  <wgt id="401">8.19983e-12</wgt>
  <wgt id="402">8.10378e-12</wgt>
  <wgt id="403">8.19857e-12</wgt>
  <wgt id="404">8.35606e-12</wgt>
  <wgt id="405">7.71955e-12</wgt>
  <wgt id="406">8.03533e-12</wgt>
  <wgt id="407">8.46033e-12</wgt>
  <wgt id="408">8.23839e-12</wgt>
  <wgt id="409">8.03788e-12</wgt>
  <wgt id="410">7.94972e-12</wgt>
  <wgt id="411">8.27133e-12</wgt>
  <wgt id="412">8.15516e-12</wgt>
  <wgt id="413">8.19052e-12</wgt>
  <wgt id="414">8.08174e-12</wgt>
  <wgt id="415">8.238e-12</wgt>
  <wgt id="416">8.38215e-12</wgt>
  <wgt id="417">7.87581e-12</wgt>
  <wgt id="418">8.18043e-12</wgt>
  <wgt id="419">8.111e-12</wgt>
  <wgt id="420">8.28825e-12</wgt>
  <wgt id="421">8.10238e-12</wgt>
  <wgt id="422">8.15762e-12</wgt>
  <wgt id="423">8.17695e-12</wgt>
  <wgt id="424">8.33146e-12</wgt>
  <wgt id="425">8.06799e-12</wgt>
  <wgt id="426">8.16958e-12</wgt>
  <wgt id="427">8.0976e-12</wgt>
  <wgt id="428">8.3797e-12</wgt>
  <wgt id="429">8.24186e-12</wgt>
  <wgt id="430">8.46949e-12</wgt>
  <wgt id="431">8.42387e-12</wgt>
  <wgt id="432">8.38101e-12</wgt>
  <wgt id="433">8.33947e-12</wgt>
  <wgt id="434">8.28899e-12</wgt>
  <wgt id="435">8.18331e-12</wgt>
  <wgt id="436">8.12907e-12</wgt>
  <wgt id="437">8.07714e-12</wgt>
  <wgt id="438">8.24186e-12</wgt>
  <wgt id="439">8.26906e-12</wgt>
  <wgt id="440">8.25305e-12</wgt>
  <wgt id="441">8.23349e-12</wgt>
  <wgt id="442">8.22657e-12</wgt>
  <wgt id="443">7.97e-12</wgt>
  <wgt id="444">8.01407e-12</wgt>
  <wgt id="445">7.94404e-12</wgt>
  <wgt id="446">7.91923e-12</wgt>
  <wgt id="447">7.94436e-12</wgt>
  <wgt id="448">7.76397e-12</wgt>
  <wgt id="449">8.09183e-12</wgt>
  <wgt id="450">7.94734e-12</wgt>
  <wgt id="451">7.95695e-12</wgt>
  <wgt id="452">8.14487e-12</wgt>
  <wgt id="453">8.04258e-12</wgt>
  <wgt id="454">7.65338e-12</wgt>
  <wgt id="455">7.98251e-12</wgt>
  <wgt id="456">7.89859e-12</wgt>
  <wgt id="457">8.00126e-12</wgt>
  <wgt id="458">8.0617e-12</wgt>
  <wgt id="459">8.02344e-12</wgt>
  <wgt id="460">8.01947e-12</wgt>
  <wgt id="461">7.82593e-12</wgt>
  <wgt id="462">7.90786e-12</wgt>
  <wgt id="463">7.88374e-12</wgt>
  <wgt id="464">7.92718e-12</wgt>
  <wgt id="465">8.05106e-12</wgt>
  <wgt id="466">7.87797e-12</wgt>
  <wgt id="467">7.89573e-12</wgt>
  <wgt id="468">7.9493e-12</wgt>
  <wgt id="469">7.94915e-12</wgt>
  <wgt id="470">7.8984e-12</wgt>
  <wgt id="471">7.90111e-12</wgt>
  <wgt id="472">8.00587e-12</wgt>
  <wgt id="473">7.72221e-12</wgt>
  <wgt id="474">5.79e-12</wgt>
  <wgt id="475">6.11327e-12</wgt>
  <wgt id="476">5.6725e-12</wgt>
  <wgt id="477">5.6137e-12</wgt>
  <wgt id="478">5.82428e-12</wgt>
  <wgt id="479">5.68494e-12</wgt>
  <wgt id="480">5.99873e-12</wgt>
  <wgt id="481">5.68549e-12</wgt>
  <wgt id="482">5.59685e-12</wgt>
  <wgt id="483">5.64225e-12</wgt>
  <wgt id="484">6.13408e-12</wgt>
  <wgt id="485">5.7654e-12</wgt>
  <wgt id="486">5.95145e-12</wgt>
  <wgt id="487">5.87972e-12</wgt>
  <wgt id="488">5.87777e-12</wgt>
  <wgt id="489">5.57095e-12</wgt>
  <wgt id="490">5.59637e-12</wgt>
  <wgt id="491">5.73457e-12</wgt>
  <wgt id="492">5.62725e-12</wgt>
  <wgt id="493">5.57393e-12</wgt>
  <wgt id="494">5.61372e-12</wgt>
  <wgt id="495">5.89047e-12</wgt>
  <wgt id="496">5.60048e-12</wgt>
  <wgt id="497">5.5651e-12</wgt>
  <wgt id="498">5.88638e-12</wgt>
  <wgt id="499">5.6629e-12</wgt>
  <wgt id="500">5.69026e-12</wgt>
  <wgt id="501">6.04789e-12</wgt>
  <wgt id="502">5.66582e-12</wgt>
  <wgt id="503">5.78514e-12</wgt>
  <wgt id="504">5.84386e-12</wgt>
  <wgt id="505">5.75778e-12</wgt>
  <wgt id="506">5.86658e-12</wgt>
  <wgt id="507">5.74823e-12</wgt>
  <wgt id="508">5.89933e-12</wgt>
  <wgt id="509">5.61624e-12</wgt>
  <wgt id="510">5.94144e-12</wgt>
  <wgt id="511">5.66118e-12</wgt>
  <wgt id="512">5.89348e-12</wgt>
  <wgt id="513">6.03047e-12</wgt>
  <wgt id="514">5.77214e-12</wgt>
  <wgt id="515">5.72742e-12</wgt>
  <wgt id="516">5.98314e-12</wgt>
  <wgt id="517">5.91675e-12</wgt>
  <wgt id="518">5.93393e-12</wgt>
  <wgt id="519">5.63157e-12</wgt>
  <wgt id="520">5.85495e-12</wgt>
  <wgt id="521">5.97872e-12</wgt>
  <wgt id="522">6.02019e-12</wgt>
  <wgt id="523">5.88153e-12</wgt>
  <wgt id="524">5.85672e-12</wgt>
  <wgt id="525">5.96009e-12</wgt>
  <wgt id="526">5.82151e-12</wgt>
  <wgt id="527">5.87284e-12</wgt>
  <wgt id="528">5.81559e-12</wgt>
  <wgt id="529">5.7007e-12</wgt>
  <wgt id="530">5.86304e-12</wgt>
  <wgt id="531">5.71781e-12</wgt>
  <wgt id="532">6.12217e-12</wgt>
  <wgt id="533">5.46862e-12</wgt>
  <wgt id="534">5.80097e-12</wgt>
  <wgt id="535">5.87778e-12</wgt>
  <wgt id="536">5.76176e-12</wgt>
  <wgt id="537">5.80077e-12</wgt>
  <wgt id="538">5.86234e-12</wgt>
  <wgt id="539">5.67874e-12</wgt>
  <wgt id="540">5.70675e-12</wgt>
  <wgt id="541">5.63544e-12</wgt>
  <wgt id="542">5.69482e-12</wgt>
  <wgt id="543">5.7764e-12</wgt>
  <wgt id="544">6.06536e-12</wgt>
  <wgt id="545">5.70557e-12</wgt>
  <wgt id="546">5.69733e-12</wgt>
  <wgt id="547">5.62439e-12</wgt>
  <wgt id="548">5.55559e-12</wgt>
  <wgt id="549">5.6936e-12</wgt>
  <wgt id="550">5.73326e-12</wgt>
  <wgt id="551">5.85641e-12</wgt>
  <wgt id="552">5.70542e-12</wgt>
  <wgt id="553">5.76262e-12</wgt>
  <wgt id="554">6.21289e-12</wgt>
  <wgt id="555">5.94381e-12</wgt>
  <wgt id="556">5.59637e-12</wgt>
  <wgt id="557">5.89764e-12</wgt>
  <wgt id="558">5.61612e-12</wgt>
  <wgt id="559">5.70406e-12</wgt>
  <wgt id="560">6.28975e-12</wgt>
  <wgt id="561">5.68591e-12</wgt>
  <wgt id="562">5.89672e-12</wgt>
  <wgt id="563">5.66735e-12</wgt>
  <wgt id="564">5.82582e-12</wgt>
  <wgt id="565">5.59996e-12</wgt>
  <wgt id="566">5.87208e-12</wgt>
  <wgt id="567">5.71642e-12</wgt>
  <wgt id="568">5.7717e-12</wgt>
  <wgt id="569">5.87872e-12</wgt>
  <wgt id="570">5.60363e-12</wgt>
  <wgt id="571">6.41273e-12</wgt>
  <wgt id="572">5.66579e-12</wgt>
  <wgt id="573">5.54754e-12</wgt>
  <wgt id="574">5.59341e-12</wgt>
  <wgt id="575">6.37194e-12</wgt>
  <wgt id="576">6.34363e-12</wgt>
  <wgt id="577">6.5572e-12</wgt>
  <wgt id="578">6.53484e-12</wgt>
  <wgt id="579">6.48399e-12</wgt>
  <wgt id="580">6.51195e-12</wgt>
  <wgt id="581">6.79438e-12</wgt>
  <wgt id="582">6.32885e-12</wgt>
  <wgt id="583">6.43653e-12</wgt>
  <wgt id="584">6.37276e-12</wgt>
  <wgt id="585">6.37426e-12</wgt>
  <wgt id="586">6.21329e-12</wgt>
  <wgt id="587">6.45915e-12</wgt>
  <wgt id="588">6.35431e-12</wgt>
  <wgt id="589">6.50804e-12</wgt>
  <wgt id="590">6.45828e-12</wgt>
  <wgt id="591">6.6122e-12</wgt>
  <wgt id="592">6.19599e-12</wgt>
  <wgt id="593">6.33554e-12</wgt>
  <wgt id="594">6.56418e-12</wgt>
  <wgt id="595">6.35892e-12</wgt>
  <wgt id="596">6.47202e-12</wgt>
  <wgt id="597">6.19131e-12</wgt>
  <wgt id="598">6.19966e-12</wgt>
  <wgt id="599">6.66477e-12</wgt>
  <wgt id="600">6.32882e-12</wgt>
  <wgt id="601">6.18982e-12</wgt>
  <wgt id="602">6.22496e-12</wgt>
  <wgt id="603">6.24673e-12</wgt>
  <wgt id="604">6.46473e-12</wgt>
  <wgt id="605">6.62153e-12</wgt>
  <wgt id="606">6.25489e-12</wgt>
  <wgt id="607">6.31066e-12</wgt>
  <wgt id="608">6.42028e-12</wgt>
  <wgt id="609">6.04024e-12</wgt>
  <wgt id="610">6.13674e-12</wgt>
  <wgt id="611">6.42398e-12</wgt>
  <wgt id="612">6.83395e-12</wgt>
  <wgt id="613">6.34763e-12</wgt>
  <wgt id="614">6.44197e-12</wgt>
  <wgt id="615">6.25674e-12</wgt>
  <wgt id="616">6.71373e-12</wgt>
  <wgt id="617">6.5952e-12</wgt>
  <wgt id="618">6.54651e-12</wgt>
  <wgt id="619">6.30493e-12</wgt>
  <wgt id="620">6.62108e-12</wgt>
  <wgt id="621">6.44093e-12</wgt>
  <wgt id="622">6.45915e-12</wgt>
  <wgt id="623">6.54217e-12</wgt>
  <wgt id="624">6.35294e-12</wgt>
  <wgt id="625">6.28405e-12</wgt>
  <wgt id="626">6.19634e-12</wgt>
  <wgt id="627">6.11308e-12</wgt>
  <wgt id="628">6.69541e-12</wgt>
  <wgt id="629">6.2438e-12</wgt>
  <wgt id="630">6.16598e-12</wgt>
  <wgt id="631">6.40079e-12</wgt>
  <wgt id="632">6.13479e-12</wgt>
  <wgt id="633">6.30663e-12</wgt>
  <wgt id="634">6.34934e-12</wgt>
  <wgt id="635">6.22162e-12</wgt>
  <wgt id="636">6.41851e-12</wgt>
  <wgt id="637">6.37014e-12</wgt>
  <wgt id="638">6.13927e-12</wgt>
  <wgt id="639">6.28497e-12</wgt>
  <wgt id="640">6.37395e-12</wgt>
  <wgt id="641">6.42585e-12</wgt>
  <wgt id="642">6.18316e-12</wgt>
  <wgt id="643">6.33455e-12</wgt>
  <wgt id="644">6.08401e-12</wgt>
  <wgt id="645">6.42027e-12</wgt>
  <wgt id="646">6.43531e-12</wgt>
  <wgt id="647">6.28961e-12</wgt>
  <wgt id="648">6.42182e-12</wgt>
  <wgt id="649">6.45966e-12</wgt>
  <wgt id="650">6.2392e-12</wgt>
  <wgt id="651">6.44165e-12</wgt>
  <wgt id="652">6.32443e-12</wgt>
  <wgt id="653">6.19399e-12</wgt>
  <wgt id="654">6.32295e-12</wgt>
  <wgt id="655">6.26162e-12</wgt>
  <wgt id="656">6.38987e-12</wgt>
  <wgt id="657">6.61586e-12</wgt>
  <wgt id="658">6.40932e-12</wgt>
  <wgt id="659">6.12528e-12</wgt>
  <wgt id="660">6.47846e-12</wgt>
  <wgt id="661">6.27165e-12</wgt>
  <wgt id="662">6.35375e-12</wgt>
  <wgt id="663">6.37478e-12</wgt>
  <wgt id="664">6.28659e-12</wgt>
  <wgt id="665">6.35432e-12</wgt>
  <wgt id="666">6.32414e-12</wgt>
  <wgt id="667">6.58027e-12</wgt>
  <wgt id="668">6.3587e-12</wgt>
  <wgt id="669">6.52069e-12</wgt>
  <wgt id="670">6.49937e-12</wgt>
  <wgt id="671">6.31049e-12</wgt>
  <wgt id="672">6.1068e-12</wgt>
  <wgt id="673">6.39898e-12</wgt>
  <wgt id="674">6.24311e-12</wgt>
  <wgt id="675">6.2714e-12</wgt>
  <wgt id="676">8.02101e-12</wgt>
  <wgt id="677">8.11659e-12</wgt>
  <wgt id="678">8.41545e-12</wgt>
  <wgt id="679">7.56677e-12</wgt>
  <wgt id="680">7.82794e-12</wgt>
  <wgt id="681">8.18912e-12</wgt>
  <wgt id="682">8.23204e-12</wgt>
  <wgt id="683">7.90528e-12</wgt>
  <wgt id="684">8.37501e-12</wgt>
  <wgt id="685">7.63536e-12</wgt>
  <wgt id="686">7.89394e-12</wgt>
  <wgt id="687">8.39498e-12</wgt>
  <wgt id="688">7.95735e-12</wgt>
  <wgt id="689">8.61558e-12</wgt>
  <wgt id="690">8.42187e-12</wgt>
  <wgt id="691">8.46109e-12</wgt>
  <wgt id="692">7.94635e-12</wgt>
  <wgt id="693">9.40924e-12</wgt>
  <wgt id="694">8.50607e-12</wgt>
  <wgt id="695">7.76472e-12</wgt>
  <wgt id="696">7.63355e-12</wgt>
  <wgt id="697">7.75726e-12</wgt>
  <wgt id="698">7.37039e-12</wgt>
  <wgt id="699">7.3084e-12</wgt>
  <wgt id="700">7.04789e-12</wgt>
  <wgt id="701">8.04215e-12</wgt>
  <wgt id="702">7.76772e-12</wgt>
  <wgt id="703">9.19064e-12</wgt>
  <wgt id="704">8.7521e-12</wgt>
  <wgt id="705">8.41191e-12</wgt>
  <wgt id="706">7.50346e-12</wgt>
  <wgt id="707">7.69949e-12</wgt>
  <wgt id="708">7.90985e-12</wgt>
  <wgt id="709">7.87719e-12</wgt>
  <wgt id="710">7.23925e-12</wgt>
  <wgt id="711">7.98908e-12</wgt>
  <wgt id="712">7.86861e-12</wgt>
  <wgt id="713">8.6339e-12</wgt>
  <wgt id="714">7.88045e-12</wgt>
  <wgt id="715">7.92639e-12</wgt>
  <wgt id="716">7.72582e-12</wgt>
  <wgt id="717">7.62607e-12</wgt>
  <wgt id="718">7.99447e-12</wgt>
  <wgt id="719">7.30035e-12</wgt>
  <wgt id="720">7.60082e-12</wgt>
  <wgt id="721">7.40466e-12</wgt>
  <wgt id="722">7.12389e-12</wgt>
  <wgt id="723">8.54759e-12</wgt>
  <wgt id="724">8.39555e-12</wgt>
  <wgt id="725">8.45631e-12</wgt>
  <wgt id="726">8.09134e-12</wgt>
  <wgt id="727">7.84743e-12</wgt>
  <wgt id="728">7.86046e-12</wgt>
  <wgt id="729">7.41204e-12</wgt>
  <wgt id="730">8.62223e-12</wgt>
  <wgt id="731">7.92027e-12</wgt>
  <wgt id="732">8.8143e-12</wgt>
  <wgt id="733">7.97197e-12</wgt>
  <wgt id="734">8.21315e-12</wgt>
  <wgt id="735">8.00682e-12</wgt>
  <wgt id="736">7.85788e-12</wgt>
  <wgt id="737">8.13768e-12</wgt>
  <wgt id="738">7.65195e-12</wgt>
  <wgt id="739">8.14521e-12</wgt>
  <wgt id="740">8.91434e-12</wgt>
  <wgt id="741">7.1923e-12</wgt>
  <wgt id="742">7.90717e-12</wgt>
  <wgt id="743">7.66833e-12</wgt>
  <wgt id="744">7.85842e-12</wgt>
  <wgt id="745">8.37916e-12</wgt>
  <wgt id="746">8.51519e-12</wgt>
  <wgt id="747">7.26899e-12</wgt>
  <wgt id="748">7.90949e-12</wgt>
  <wgt id="749">8.43447e-12</wgt>
  <wgt id="750">8.18489e-12</wgt>
  <wgt id="751">8.26348e-12</wgt>
  <wgt id="752">7.36644e-12</wgt>
  <wgt id="753">7.60674e-12</wgt>
  <wgt id="754">8.33599e-12</wgt>
  <wgt id="755">8.04394e-12</wgt>
  <wgt id="756">8.04938e-12</wgt>
  <wgt id="757">7.38577e-12</wgt>
  <wgt id="758">8.07735e-12</wgt>
  <wgt id="759">8.21498e-12</wgt>
  <wgt id="760">8.10629e-12</wgt>
  <wgt id="761">8.46115e-12</wgt>
  <wgt id="762">8.49929e-12</wgt>
  <wgt id="763">8.00346e-12</wgt>
  <wgt id="764">8.33661e-12</wgt>
  <wgt id="765">8.12657e-12</wgt>
  <wgt id="766">8.00914e-12</wgt>
  <wgt id="767">8.21308e-12</wgt>
  <wgt id="768">7.57049e-12</wgt>
  <wgt id="769">8.49857e-12</wgt>
  <wgt id="770">7.81683e-12</wgt>
  <wgt id="771">9.46201e-12</wgt>
  <wgt id="772">7.58554e-12</wgt>
  <wgt id="773">7.96555e-12</wgt>
  <wgt id="774">7.11057e-12</wgt>
  <wgt id="775">8.42273e-12</wgt>
  <wgt id="776">8.75529e-12</wgt>
  <wgt id="777">7.63404e-12</wgt>
  <wgt id="778">5.90787e-12</wgt>
  <wgt id="779">4.86718e-12</wgt>
  <wgt id="780">3.9432e-12</wgt>
  <wgt id="781">6.15615e-12</wgt>
  <wgt id="782">6.29182e-12</wgt>
  <wgt id="783">4.92096e-12</wgt>
  <wgt id="784">5.13545e-12</wgt>
  <wgt id="785">7.24557e-12</wgt>
  <wgt id="786">4.52763e-12</wgt>
  <wgt id="787">6.74406e-12</wgt>
  <wgt id="788">3.64373e-12</wgt>
  <wgt id="789">4.76925e-12</wgt>
  <wgt id="790">4.47121e-12</wgt>
  <wgt id="791">5.60291e-12</wgt>
  <wgt id="792">7.73389e-12</wgt>
  <wgt id="793">5.78158e-12</wgt>
  <wgt id="794">4.4756e-12</wgt>
  <wgt id="795">6.94899e-12</wgt>
  <wgt id="796">7.76448e-12</wgt>
  <wgt id="797">6.88937e-12</wgt>
  <wgt id="798">5.40094e-12</wgt>
  <wgt id="799">6.73472e-12</wgt>
  <wgt id="800">4.81575e-12</wgt>
  <wgt id="801">5.50708e-12</wgt>
  <wgt id="802">4.4944e-12</wgt>
  <wgt id="803">7.83793e-12</wgt>
  <wgt id="804">6.89901e-12</wgt>
  <wgt id="805">7.00584e-12</wgt>
  <wgt id="806">6.57734e-12</wgt>
  <wgt id="807">5.63247e-12</wgt>
  <wgt id="808">5.73577e-12</wgt>
  <wgt id="809">5.44826e-12</wgt>
  <wgt id="810">6.6901e-12</wgt>
  <wgt id="811">6.42986e-12</wgt>
  <wgt id="812">4.46029e-12</wgt>
  <wgt id="813">4.57636e-12</wgt>
  <wgt id="814">4.97842e-12</wgt>
  <wgt id="815">4.87498e-12</wgt>
  <wgt id="816">4.33324e-12</wgt>
  <wgt id="817">6.18058e-12</wgt>
  <wgt id="818">5.93291e-12</wgt>
  <wgt id="819">4.87091e-12</wgt>
  <wgt id="820">5.89938e-12</wgt>
  <wgt id="821">6.79641e-12</wgt>
  <wgt id="822">4.8947e-12</wgt>
  <wgt id="823">6.85179e-12</wgt>
  <wgt id="824">7.96139e-12</wgt>
  <wgt id="825">4.3218e-12</wgt>
  <wgt id="826">6.28173e-12</wgt>
  <wgt id="827">3.57716e-12</wgt>
  <wgt id="828">7.56105e-12</wgt>
  <wgt id="829">6.13398e-12</wgt>
  <wgt id="830">4.09678e-12</wgt>
  <wgt id="831">6.38079e-12</wgt>
  <wgt id="832">9.69148e-12</wgt>
  <wgt id="833">5.46947e-12</wgt>
  <wgt id="834">9.10605e-12</wgt>
  <wgt id="835">4.78682e-12</wgt>
  <wgt id="836">5.82208e-12</wgt>
  <wgt id="837">6.70687e-12</wgt>
  <wgt id="838">5.58867e-12</wgt>
  <wgt id="839">6.33947e-12</wgt>
  <wgt id="840">5.50032e-12</wgt>
  <wgt id="841">7.3098e-12</wgt>
  <wgt id="842">5.37862e-12</wgt>
  <wgt id="843">5.84231e-12</wgt>
  <wgt id="844">6.17811e-12</wgt>
  <wgt id="845">8.38194e-12</wgt>
  <wgt id="846">5.63931e-12</wgt>
  <wgt id="847">5.97649e-12</wgt>
  <wgt id="848">5.04697e-12</wgt>
  <wgt id="849">6.07072e-12</wgt>
  <wgt id="850">7.74272e-12</wgt>
  <wgt id="851">6.49607e-12</wgt>
  <wgt id="852">4.96771e-12</wgt>
  <wgt id="853">6.51396e-12</wgt>
  <wgt id="854">7.22942e-12</wgt>
  <wgt id="855">6.85863e-12</wgt>
  <wgt id="856">4.19424e-12</wgt>
  <wgt id="857">5.88311e-12</wgt>
  <wgt id="858">5.79189e-12</wgt>
  <wgt id="859">5.51078e-12</wgt>
  <wgt id="860">6.41377e-12</wgt>
  <wgt id="861">5.18769e-12</wgt>
  <wgt id="862">6.01327e-12</wgt>
  <wgt id="863">6.27649e-12</wgt>
  <wgt id="864">6.26358e-12</wgt>
  <wgt id="865">8.49565e-12</wgt>
  <wgt id="866">9.30687e-12</wgt>
  <wgt id="867">6.02324e-12</wgt>
  <wgt id="868">5.85787e-12</wgt>
  <wgt id="869">4.54416e-12</wgt>
  <wgt id="870">4.79313e-12</wgt>
  <wgt id="871">4.64999e-12</wgt>
  <wgt id="872">7.10281e-12</wgt>
  <wgt id="873">4.88331e-12</wgt>
  <wgt id="874">6.23447e-12</wgt>
  <wgt id="875">5.11565e-12</wgt>
  <wgt id="876">7.0964e-12</wgt>
  <wgt id="877">6.76653e-12</wgt>
  <wgt id="878">5.04108e-12</wgt>
  <wgt id="879">8.02101e-12</wgt>
  <wgt id="880">8.11659e-12</wgt>
  <wgt id="881">8.41545e-12</wgt>
  <wgt id="882">7.56677e-12</wgt>
  <wgt id="883">7.82794e-12</wgt>
  <wgt id="884">8.18912e-12</wgt>
  <wgt id="885">8.23204e-12</wgt>
  <wgt id="886">7.90528e-12</wgt>
  <wgt id="887">8.37501e-12</wgt>
  <wgt id="888">7.63536e-12</wgt>
  <wgt id="889">7.89394e-12</wgt>
  <wgt id="890">8.39498e-12</wgt>
  <wgt id="891">7.95735e-12</wgt>
  <wgt id="892">8.61558e-12</wgt>
  <wgt id="893">8.42187e-12</wgt>
  <wgt id="894">8.46109e-12</wgt>
  <wgt id="895">7.94635e-12</wgt>
  <wgt id="896">9.40924e-12</wgt>
  <wgt id="897">8.50607e-12</wgt>
  <wgt id="898">7.76472e-12</wgt>
  <wgt id="899">7.63355e-12</wgt>
  <wgt id="900">7.75726e-12</wgt>
  <wgt id="901">7.37039e-12</wgt>
  <wgt id="902">7.3084e-12</wgt>
  <wgt id="903">7.04789e-12</wgt>
  <wgt id="904">8.04215e-12</wgt>
  <wgt id="905">7.76772e-12</wgt>
  <wgt id="906">9.19064e-12</wgt>
  <wgt id="907">8.7521e-12</wgt>
  <wgt id="908">8.41191e-12</wgt>
  <wgt id="909">7.50346e-12</wgt>
  <wgt id="910">7.69949e-12</wgt>
  <wgt id="911">7.90985e-12</wgt>
  <wgt id="912">7.87719e-12</wgt>
  <wgt id="913">7.23925e-12</wgt>
  <wgt id="914">7.98908e-12</wgt>
  <wgt id="915">7.86861e-12</wgt>
  <wgt id="916">8.6339e-12</wgt>
  <wgt id="917">7.88045e-12</wgt>
  <wgt id="918">7.92639e-12</wgt>
  <wgt id="919">7.72582e-12</wgt>
  <wgt id="920">7.62607e-12</wgt>
  <wgt id="921">7.99447e-12</wgt>
  <wgt id="922">7.30035e-12</wgt>
  <wgt id="923">7.60082e-12</wgt>
  <wgt id="924">7.40466e-12</wgt>
  <wgt id="925">7.12389e-12</wgt>
  <wgt id="926">8.54759e-12</wgt>
  <wgt id="927">8.39555e-12</wgt>
  <wgt id="928">8.45631e-12</wgt>
  <wgt id="929">8.09134e-12</wgt>
  <wgt id="930">7.84743e-12</wgt>
  <wgt id="931">7.86046e-12</wgt>
  <wgt id="932">7.41204e-12</wgt>
  <wgt id="933">8.62223e-12</wgt>
  <wgt id="934">7.92027e-12</wgt>
  <wgt id="935">8.8143e-12</wgt>
  <wgt id="936">7.97197e-12</wgt>
  <wgt id="937">8.21315e-12</wgt>
  <wgt id="938">8.00682e-12</wgt>
  <wgt id="939">7.85788e-12</wgt>
  <wgt id="940">8.13768e-12</wgt>
  <wgt id="941">7.65195e-12</wgt>
  <wgt id="942">8.14521e-12</wgt>
  <wgt id="943">8.91434e-12</wgt>
  <wgt id="944">7.1923e-12</wgt>
  <wgt id="945">7.90717e-12</wgt>
  <wgt id="946">7.66833e-12</wgt>
  <wgt id="947">7.85842e-12</wgt>
  <wgt id="948">8.37916e-12</wgt>
  <wgt id="949">8.51519e-12</wgt>
  <wgt id="950">7.26899e-12</wgt>
  <wgt id="951">7.90949e-12</wgt>
  <wgt id="952">8.43447e-12</wgt>
  <wgt id="953">8.18489e-12</wgt>
  <wgt id="954">8.26348e-12</wgt>
  <wgt id="955">7.36644e-12</wgt>
  <wgt id="956">7.60674e-12</wgt>
  <wgt id="957">8.33599e-12</wgt>
  <wgt id="958">8.04394e-12</wgt>
  <wgt id="959">8.04938e-12</wgt>
  <wgt id="960">7.38577e-12</wgt>
  <wgt id="961">8.07735e-12</wgt>
  <wgt id="962">8.21498e-12</wgt>
  <wgt id="963">8.10629e-12</wgt>
  <wgt id="964">8.46115e-12</wgt>
  <wgt id="965">8.49929e-12</wgt>
  <wgt id="966">8.00346e-12</wgt>
  <wgt id="967">8.33661e-12</wgt>
  <wgt id="968">8.12657e-12</wgt>
  <wgt id="969">8.00914e-12</wgt>
  <wgt id="970">8.21308e-12</wgt>
  <wgt id="971">7.57049e-12</wgt>
  <wgt id="972">8.49857e-12</wgt>
  <wgt id="973">7.81683e-12</wgt>
  <wgt id="974">9.46201e-12</wgt>
  <wgt id="975">7.58554e-12</wgt>
  <wgt id="976">7.96555e-12</wgt>
  <wgt id="977">7.11057e-12</wgt>
  <wgt id="978">8.42273e-12</wgt>
  <wgt id="979">8.75529e-12</wgt>
  <wgt id="980">8.01882e-12</wgt>
  <wgt id="981">8.06532e-12</wgt>
  <wgt id="982">7.78881e-12</wgt>
</rwgt>
</event>
<event>
 5   1  0.5790000E-11  0.2122051E+04  0.7818608E-02  0.7778883E-01
       21   -1    0    0  502  501  0.00000000000E+00  0.00000000000E+00  0.60355623961E+03  0.60355623961E+03  0.00000000000E+00 0. -1.
       21   -1    0    0  501  502 -0.00000000000E+00 -0.00000000000E+00 -0.18652371374E+04  0.18652371374E+04  0.00000000000E+00 0.  1.
       39    2    1    2    0    0  0.00000000000E+00  0.00000000000E+00 -0.12616808978E+04  0.24687933770E+04  0.21220513779E+04 0.  0.
       25    1    3    3    0    0 -0.72734534443E+03 -0.67505576080E+03 -0.21882786054E+03  0.10238369806E+04  0.12500000000E+03 0.  0.
       25    1    3    3    0    0  0.72734534443E+03  0.67505576080E+03 -0.10428530372E+04  0.14449563964E+04  0.12500000000E+03 0.  0.
<mgrwt>
<rscale>  0 0.21220514E+04</rscale>
<asrwt>0</asrwt>
<pdfrwt beam="1">  1       21 0.92854807E-01 0.21220514E+04</pdfrwt>
<pdfrwt beam="2">  1       21 0.28695956E+00 0.21220514E+04</pdfrwt>
<totfact> 0.15094057E+01</totfact>
</mgrwt>
<rwgt>
  <wgt id="1">5.79e-12</wgt>
  <wgt id="2">5.03468e-12</wgt>
  <wgt id="3">6.72841e-12</wgt>
  <wgt id="4">5.79e-12</wgt>
  <wgt id="5">5.03468e-12</wgt>
  <wgt id="6">6.72841e-12</wgt>
  <wgt id="7">5.79e-12</wgt>
  <wgt id="8">5.03468e-12</wgt>
  <wgt id="9">6.72841e-12</wgt>
  <wgt id="10">6.02469e-12</wgt>
  <wgt id="11">6.02162e-12</wgt>
  <wgt id="12">6.01417e-12</wgt>
  <wgt id="13">6.01008e-12</wgt>
  <wgt id="14">6.04637e-12</wgt>
  <wgt id="15">6.03487e-12</wgt>
  <wgt id="16">6.01506e-12</wgt>
  <wgt id="17">6.04935e-12</wgt>
  <wgt id="18">6.01568e-12</wgt>
  <wgt id="19">6.04272e-12</wgt>
  <wgt id="20">6.01772e-12</wgt>
  <wgt id="21">5.97778e-12</wgt>
  <wgt id="22">5.98499e-12</wgt>
  <wgt id="23">5.94384e-12</wgt>
  <wgt id="24">5.98398e-12</wgt>
  <wgt id="25">6.00298e-12</wgt>
  <wgt id="26">6.04271e-12</wgt>
  <wgt id="27">6.01611e-12</wgt>
  <wgt id="28">5.98822e-12</wgt>
  <wgt id="29">6.0277e-12</wgt>
  <wgt id="30">5.98279e-12</wgt>
  <wgt id="31">6.0516e-12</wgt>
  <wgt id="32">5.99188e-12</wgt>
  <wgt id="33">6.03426e-12</wgt>
  <wgt id="34">5.98939e-12</wgt>
  <wgt id="35">5.99803e-12</wgt>
  <wgt id="36">6.05192e-12</wgt>
  <wgt id="37">6.00657e-12</wgt>
  <wgt id="38">6.00163e-12</wgt>
  <wgt id="39">6.1171e-12</wgt>
  <wgt id="40">6.02732e-12</wgt>
  <wgt id="41">6.02175e-12</wgt>
  <wgt id="42">6.03148e-12</wgt>
  <wgt id="43">6.02399e-12</wgt>
  <wgt id="44">6.04673e-12</wgt>
  <wgt id="45">6.03407e-12</wgt>
  <wgt id="46">6.01179e-12</wgt>
  <wgt id="47">6.05888e-12</wgt>
  <wgt id="48">6.03949e-12</wgt>
  <wgt id="49">5.99059e-12</wgt>
  <wgt id="50">5.99335e-12</wgt>
  <wgt id="51">6.0036e-12</wgt>
  <wgt id="52">6.04485e-12</wgt>
  <wgt id="53">6.03584e-12</wgt>
  <wgt id="54">6.04099e-12</wgt>
  <wgt id="55">6.02392e-12</wgt>
  <wgt id="56">6.02883e-12</wgt>
  <wgt id="57">6.01466e-12</wgt>
  <wgt id="58">6.01355e-12</wgt>
  <wgt id="59">6.02266e-12</wgt>
  <wgt id="60">6.00679e-12</wgt>
  <wgt id="61">5.98661e-12</wgt>
  <wgt id="62">6.00311e-12</wgt>
  <wgt id="63">6.01625e-12</wgt>
  <wgt id="64">6.02306e-12</wgt>
  <wgt id="65">6.01913e-12</wgt>
  <wgt id="66">6.0221e-12</wgt>
  <wgt id="67">5.9999e-12</wgt>
  <wgt id="68">6.02407e-12</wgt>
  <wgt id="69">6.02036e-12</wgt>
  <wgt id="70">6.01995e-12</wgt>
  <wgt id="71">6.01938e-12</wgt>
  <wgt id="72">5.99666e-12</wgt>
  <wgt id="73">6.04343e-12</wgt>
  <wgt id="74">6.03566e-12</wgt>
  <wgt id="75">6.02483e-12</wgt>
  <wgt id="76">6.05223e-12</wgt>
  <wgt id="77">6.01801e-12</wgt>
  <wgt id="78">6.01982e-12</wgt>
  <wgt id="79">6.04065e-12</wgt>
  <wgt id="80">5.98773e-12</wgt>
  <wgt id="81">6.02406e-12</wgt>
  <wgt id="82">6.02777e-12</wgt>
  <wgt id="83">5.99647e-12</wgt>
  <wgt id="84">6.0132e-12</wgt>
  <wgt id="85">6.0072e-12</wgt>
  <wgt id="86">6.04263e-12</wgt>
  <wgt id="87">5.98265e-12</wgt>
  <wgt id="88">6.03509e-12</wgt>
  <wgt id="89">6.03055e-12</wgt>
  <wgt id="90">6.04243e-12</wgt>
  <wgt id="91">6.0312e-12</wgt>
  <wgt id="92">6.03755e-12</wgt>
  <wgt id="93">6.03222e-12</wgt>
  <wgt id="94">6.01471e-12</wgt>
  <wgt id="95">6.04276e-12</wgt>
  <wgt id="96">6.03483e-12</wgt>
  <wgt id="97">6.00729e-12</wgt>
  <wgt id="98">6.02525e-12</wgt>
  <wgt id="99">6.01211e-12</wgt>
  <wgt id="100">6.0387e-12</wgt>
  <wgt id="101">6.02377e-12</wgt>
  <wgt id="102">6.01976e-12</wgt>
  <wgt id="103">6.04052e-12</wgt>
  <wgt id="104">6.01572e-12</wgt>
  <wgt id="105">6.03385e-12</wgt>
  <wgt id="106">6.01258e-12</wgt>
  <wgt id="107">6.05194e-12</wgt>
  <wgt id="108">6.0147e-12</wgt>
  <wgt id="109">6.03233e-12</wgt>
  <wgt id="110">6.0217e-12</wgt>
  <wgt id="111">6.04895e-12</wgt>
  <wgt id="112">6.07475e-12</wgt>
  <wgt id="113">8.32518e-12</wgt>
  <wgt id="114">8.10929e-12</wgt>
  <wgt id="115">7.96352e-12</wgt>
  <wgt id="116">1.07294e-11</wgt>
  <wgt id="117">6.5951e-12</wgt>
  <wgt id="118">6.61705e-12</wgt>
  <wgt id="119">6.58262e-12</wgt>
  <wgt id="120">6.5956e-12</wgt>
  <wgt id="121">6.59481e-12</wgt>
  <wgt id="122">6.58399e-12</wgt>
  <wgt id="123">6.61041e-12</wgt>
  <wgt id="124">6.58586e-12</wgt>
  <wgt id="125">6.601e-12</wgt>
  <wgt id="126">6.60426e-12</wgt>
  <wgt id="127">6.58904e-12</wgt>
  <wgt id="128">6.61534e-12</wgt>
  <wgt id="129">6.57498e-12</wgt>
  <wgt id="130">6.62865e-12</wgt>
  <wgt id="131">6.56043e-12</wgt>
  <wgt id="132">6.42197e-12</wgt>
  <wgt id="133">6.79995e-12</wgt>
  <wgt id="134">6.52694e-12</wgt>
  <wgt id="135">6.64846e-12</wgt>
  <wgt id="136">6.68563e-12</wgt>
  <wgt id="137">6.48598e-12</wgt>
  <wgt id="138">6.86589e-12</wgt>
  <wgt id="139">6.33557e-12</wgt>
  <wgt id="140">6.55822e-12</wgt>
  <wgt id="141">6.62333e-12</wgt>
  <wgt id="142">6.5943e-12</wgt>
  <wgt id="143">6.61086e-12</wgt>
  <wgt id="144">6.37273e-12</wgt>
  <wgt id="145">6.80608e-12</wgt>
  <wgt id="146">6.66495e-12</wgt>
  <wgt id="147">6.5386e-12</wgt>
  <wgt id="148">6.61692e-12</wgt>
  <wgt id="149">6.59351e-12</wgt>
  <wgt id="150">6.64971e-12</wgt>
  <wgt id="151">6.56953e-12</wgt>
  <wgt id="152">6.59706e-12</wgt>
  <wgt id="153">6.59436e-12</wgt>
  <wgt id="154">6.62719e-12</wgt>
  <wgt id="155">6.54908e-12</wgt>
  <wgt id="156">6.76588e-12</wgt>
  <wgt id="157">6.42855e-12</wgt>
  <wgt id="158">7.92382e-12</wgt>
  <wgt id="159">7.95733e-12</wgt>
  <wgt id="160">7.89689e-12</wgt>
  <wgt id="161">7.9054e-12</wgt>
  <wgt id="162">7.94459e-12</wgt>
  <wgt id="163">7.91578e-12</wgt>
  <wgt id="164">7.93595e-12</wgt>
  <wgt id="165">7.92704e-12</wgt>
  <wgt id="166">7.92168e-12</wgt>
  <wgt id="167">7.91819e-12</wgt>
  <wgt id="168">7.9319e-12</wgt>
  <wgt id="169">7.89022e-12</wgt>
  <wgt id="170">7.94478e-12</wgt>
  <wgt id="171">7.91788e-12</wgt>
  <wgt id="172">7.93241e-12</wgt>
  <wgt id="173">7.9152e-12</wgt>
  <wgt id="174">7.92695e-12</wgt>
  <wgt id="175">7.70653e-12</wgt>
  <wgt id="176">8.20757e-12</wgt>
  <wgt id="177">7.9605e-12</wgt>
  <wgt id="178">7.89034e-12</wgt>
  <wgt id="179">8.28209e-12</wgt>
  <wgt id="180">7.36487e-12</wgt>
  <wgt id="181">7.68344e-12</wgt>
  <wgt id="182">8.08348e-12</wgt>
  <wgt id="183">7.77762e-12</wgt>
  <wgt id="184">7.99649e-12</wgt>
  <wgt id="185">7.84701e-12</wgt>
  <wgt id="186">8.01561e-12</wgt>
  <wgt id="187">7.84294e-12</wgt>
  <wgt id="188">8.06727e-12</wgt>
  <wgt id="189">7.8687e-12</wgt>
  <wgt id="190">7.94646e-12</wgt>
  <wgt id="191">7.94903e-12</wgt>
  <wgt id="192">7.90912e-12</wgt>
  <wgt id="193">8.04255e-12</wgt>
  <wgt id="194">7.86429e-12</wgt>
  <wgt id="195">7.69808e-12</wgt>
  <wgt id="196">8.30836e-12</wgt>
  <wgt id="197">7.96335e-12</wgt>
  <wgt id="198">7.91424e-12</wgt>
  <wgt id="199">7.92382e-12</wgt>
  <wgt id="200">7.99508e-12</wgt>
  <wgt id="201">7.97024e-12</wgt>
  <wgt id="202">7.94611e-12</wgt>
  <wgt id="203">7.91118e-12</wgt>
  <wgt id="204">7.89393e-12</wgt>
  <wgt id="205">7.87934e-12</wgt>
  <wgt id="206">7.75254e-12</wgt>
  <wgt id="207">7.79783e-12</wgt>
  <wgt id="208">7.70741e-12</wgt>
  <wgt id="209">7.77288e-12</wgt>
  <wgt id="210">7.73763e-12</wgt>
  <wgt id="211">7.75041e-12</wgt>
  <wgt id="212">7.75417e-12</wgt>
  <wgt id="213">7.7518e-12</wgt>
  <wgt id="214">7.75351e-12</wgt>
  <wgt id="215">7.75757e-12</wgt>
  <wgt id="216">7.74909e-12</wgt>
  <wgt id="217">7.77054e-12</wgt>
  <wgt id="218">7.73842e-12</wgt>
  <wgt id="219">7.74099e-12</wgt>
  <wgt id="220">7.75954e-12</wgt>
  <wgt id="221">7.75335e-12</wgt>
  <wgt id="222">7.74904e-12</wgt>
  <wgt id="223">7.34124e-12</wgt>
  <wgt id="224">8.12794e-12</wgt>
  <wgt id="225">7.66203e-12</wgt>
  <wgt id="226">7.86696e-12</wgt>
  <wgt id="227">7.68155e-12</wgt>
  <wgt id="228">7.78363e-12</wgt>
  <wgt id="229">7.64724e-12</wgt>
  <wgt id="230">7.80462e-12</wgt>
  <wgt id="231">7.99029e-12</wgt>
  <wgt id="232">7.55721e-12</wgt>
  <wgt id="233">7.70878e-12</wgt>
  <wgt id="234">7.82395e-12</wgt>
  <wgt id="235">7.51395e-12</wgt>
  <wgt id="236">7.95489e-12</wgt>
  <wgt id="237">7.60719e-12</wgt>
  <wgt id="238">7.80105e-12</wgt>
  <wgt id="239">7.69234e-12</wgt>
  <wgt id="240">7.86089e-12</wgt>
  <wgt id="241">7.66814e-12</wgt>
  <wgt id="242">7.85244e-12</wgt>
  <wgt id="243">7.85697e-12</wgt>
  <wgt id="244">7.77065e-12</wgt>
  <wgt id="245">7.74826e-12</wgt>
  <wgt id="246">7.79992e-12</wgt>
  <wgt id="247">7.75254e-12</wgt>
  <wgt id="248">7.82743e-12</wgt>
  <wgt id="249">7.80085e-12</wgt>
  <wgt id="250">7.77418e-12</wgt>
  <wgt id="251">7.73665e-12</wgt>
  <wgt id="252">7.71823e-12</wgt>
  <wgt id="253">7.70518e-12</wgt>
  <wgt id="254">7.51465e-12</wgt>
  <wgt id="255">7.52121e-12</wgt>
  <wgt id="256">7.50736e-12</wgt>
  <wgt id="257">7.52071e-12</wgt>
  <wgt id="258">7.51014e-12</wgt>
  <wgt id="259">7.56454e-12</wgt>
  <wgt id="260">7.46641e-12</wgt>
  <wgt id="261">7.52378e-12</wgt>
  <wgt id="262">7.50402e-12</wgt>
  <wgt id="263">7.51036e-12</wgt>
  <wgt id="264">7.51939e-12</wgt>
  <wgt id="265">7.5065e-12</wgt>
  <wgt id="266">7.53076e-12</wgt>
  <wgt id="267">7.51707e-12</wgt>
  <wgt id="268">7.51125e-12</wgt>
  <wgt id="269">7.53619e-12</wgt>
  <wgt id="270">7.5e-12</wgt>
  <wgt id="271">7.497e-12</wgt>
  <wgt id="272">7.5344e-12</wgt>
  <wgt id="273">7.49481e-12</wgt>
  <wgt id="274">7.52961e-12</wgt>
  <wgt id="275">7.4764e-12</wgt>
  <wgt id="276">7.5543e-12</wgt>
  <wgt id="277">7.47197e-12</wgt>
  <wgt id="278">7.55393e-12</wgt>
  <wgt id="279">7.38214e-12</wgt>
  <wgt id="280">7.681e-12</wgt>
  <wgt id="281">7.48295e-12</wgt>
  <wgt id="282">7.52007e-12</wgt>
  <wgt id="283">7.29221e-12</wgt>
  <wgt id="284">7.79026e-12</wgt>
  <wgt id="285">7.14381e-12</wgt>
  <wgt id="286">7.8247e-12</wgt>
  <wgt id="287">7.53945e-12</wgt>
  <wgt id="288">7.48277e-12</wgt>
  <wgt id="289">7.56998e-12</wgt>
  <wgt id="290">7.38996e-12</wgt>
  <wgt id="291">7.48996e-12</wgt>
  <wgt id="292">7.51728e-12</wgt>
  <wgt id="293">7.4544e-12</wgt>
  <wgt id="294">7.57449e-12</wgt>
  <wgt id="295">7.36706e-12</wgt>
  <wgt id="296">7.69482e-12</wgt>
  <wgt id="297">7.50624e-12</wgt>
  <wgt id="298">7.54539e-12</wgt>
  <wgt id="299">7.49081e-12</wgt>
  <wgt id="300">7.57752e-12</wgt>
  <wgt id="301">7.39651e-12</wgt>
  <wgt id="302">7.80059e-12</wgt>
  <wgt id="303">7.44851e-12</wgt>
  <wgt id="304">7.55216e-12</wgt>
  <wgt id="305">7.48941e-12</wgt>
  <wgt id="306">7.49643e-12</wgt>
  <wgt id="307">7.48197e-12</wgt>
  <wgt id="308">7.49608e-12</wgt>
  <wgt id="309">7.48517e-12</wgt>
  <wgt id="310">7.54083e-12</wgt>
  <wgt id="311">7.44221e-12</wgt>
  <wgt id="312">7.49672e-12</wgt>
  <wgt id="313">7.48174e-12</wgt>
  <wgt id="314">7.48516e-12</wgt>
  <wgt id="315">7.49361e-12</wgt>
  <wgt id="316">7.48153e-12</wgt>
  <wgt id="317">7.50674e-12</wgt>
  <wgt id="318">7.49471e-12</wgt>
  <wgt id="319">7.48037e-12</wgt>
  <wgt id="320">7.51243e-12</wgt>
  <wgt id="321">7.47676e-12</wgt>
  <wgt id="322">7.4692e-12</wgt>
  <wgt id="323">7.51325e-12</wgt>
  <wgt id="324">7.47444e-12</wgt>
  <wgt id="325">7.50242e-12</wgt>
  <wgt id="326">7.45806e-12</wgt>
  <wgt id="327">7.52976e-12</wgt>
  <wgt id="328">7.45011e-12</wgt>
  <wgt id="329">7.51174e-12</wgt>
  <wgt id="330">7.69484e-12</wgt>
  <wgt id="331">7.29376e-12</wgt>
  <wgt id="332">7.46325e-12</wgt>
  <wgt id="333">7.49274e-12</wgt>
  <wgt id="334">7.31791e-12</wgt>
  <wgt id="335">7.70352e-12</wgt>
  <wgt id="336">7.22387e-12</wgt>
  <wgt id="337">7.81546e-12</wgt>
  <wgt id="338">7.57569e-12</wgt>
  <wgt id="339">7.40979e-12</wgt>
  <wgt id="340">7.54042e-12</wgt>
  <wgt id="341">7.36204e-12</wgt>
  <wgt id="342">7.47211e-12</wgt>
  <wgt id="343">7.479e-12</wgt>
  <wgt id="344">7.43589e-12</wgt>
  <wgt id="345">7.55192e-12</wgt>
  <wgt id="346">7.33796e-12</wgt>
  <wgt id="347">7.66346e-12</wgt>
  <wgt id="348">7.48391e-12</wgt>
  <wgt id="349">7.51572e-12</wgt>
  <wgt id="350">7.45973e-12</wgt>
  <wgt id="351">7.56469e-12</wgt>
  <wgt id="352">7.36721e-12</wgt>
  <wgt id="353">7.7754e-12</wgt>
  <wgt id="354">7.3937e-12</wgt>
  <wgt id="355">7.54712e-12</wgt>
  <wgt id="356">7.51465e-12</wgt>
  <wgt id="357">7.50659e-12</wgt>
  <wgt id="358">7.48941e-12</wgt>
  <wgt id="359">7.5263e-12</wgt>
  <wgt id="360">7.60537e-12</wgt>
  <wgt id="361">7.54595e-12</wgt>
  <wgt id="362">7.68119e-12</wgt>
  <wgt id="363">7.66331e-12</wgt>
  <wgt id="364">7.63205e-12</wgt>
  <wgt id="365">7.60574e-12</wgt>
  <wgt id="366">7.57798e-12</wgt>
  <wgt id="367">7.52304e-12</wgt>
  <wgt id="368">7.48982e-12</wgt>
  <wgt id="369">7.45404e-12</wgt>
  <wgt id="370">7.54595e-12</wgt>
  <wgt id="371">7.57728e-12</wgt>
  <wgt id="372">7.55964e-12</wgt>
  <wgt id="373">7.53441e-12</wgt>
  <wgt id="374">7.53883e-12</wgt>
  <wgt id="375">8.34537e-12</wgt>
  <wgt id="376">8.3458e-12</wgt>
  <wgt id="377">8.34479e-12</wgt>
  <wgt id="378">8.37617e-12</wgt>
  <wgt id="379">8.31469e-12</wgt>
  <wgt id="380">8.36911e-12</wgt>
  <wgt id="381">8.33579e-12</wgt>
  <wgt id="382">8.38287e-12</wgt>
  <wgt id="383">8.30822e-12</wgt>
  <wgt id="384">8.35066e-12</wgt>
  <wgt id="385">8.34037e-12</wgt>
  <wgt id="386">8.37225e-12</wgt>
  <wgt id="387">8.33372e-12</wgt>
  <wgt id="388">8.3384e-12</wgt>
  <wgt id="389">8.3538e-12</wgt>
  <wgt id="390">8.36441e-12</wgt>
  <wgt id="391">8.32506e-12</wgt>
  <wgt id="392">8.2801e-12</wgt>
  <wgt id="393">8.38219e-12</wgt>
  <wgt id="394">8.35297e-12</wgt>
  <wgt id="395">8.33463e-12</wgt>
  <wgt id="396">8.35524e-12</wgt>
  <wgt id="397">8.33823e-12</wgt>
  <wgt id="398">8.32807e-12</wgt>
  <wgt id="399">8.3619e-12</wgt>
  <wgt id="400">8.33415e-12</wgt>
  <wgt id="401">8.36949e-12</wgt>
  <wgt id="402">8.2769e-12</wgt>
  <wgt id="403">8.38273e-12</wgt>
  <wgt id="404">8.55609e-12</wgt>
  <wgt id="405">7.84053e-12</wgt>
  <wgt id="406">8.19213e-12</wgt>
  <wgt id="407">8.68213e-12</wgt>
  <wgt id="408">8.42437e-12</wgt>
  <wgt id="409">8.19733e-12</wgt>
  <wgt id="410">8.09642e-12</wgt>
  <wgt id="411">8.46326e-12</wgt>
  <wgt id="412">8.32803e-12</wgt>
  <wgt id="413">8.37001e-12</wgt>
  <wgt id="414">8.24563e-12</wgt>
  <wgt id="415">8.42268e-12</wgt>
  <wgt id="416">8.58975e-12</wgt>
  <wgt id="417">8.00761e-12</wgt>
  <wgt id="418">8.35994e-12</wgt>
  <wgt id="419">8.26726e-12</wgt>
  <wgt id="420">8.4982e-12</wgt>
  <wgt id="421">8.24768e-12</wgt>
  <wgt id="422">8.3155e-12</wgt>
  <wgt id="423">8.35994e-12</wgt>
  <wgt id="424">8.54411e-12</wgt>
  <wgt id="425">8.21271e-12</wgt>
  <wgt id="426">8.34537e-12</wgt>
  <wgt id="427">8.22507e-12</wgt>
  <wgt id="428">8.63778e-12</wgt>
  <wgt id="429">8.43692e-12</wgt>
  <wgt id="430">8.68467e-12</wgt>
  <wgt id="431">8.63519e-12</wgt>
  <wgt id="432">8.58911e-12</wgt>
  <wgt id="433">8.54387e-12</wgt>
  <wgt id="434">8.48732e-12</wgt>
  <wgt id="435">8.37353e-12</wgt>
  <wgt id="436">8.31548e-12</wgt>
  <wgt id="437">8.25952e-12</wgt>
  <wgt id="438">8.43692e-12</wgt>
  <wgt id="439">8.46307e-12</wgt>
  <wgt id="440">8.44699e-12</wgt>
  <wgt id="441">8.42933e-12</wgt>
  <wgt id="442">8.42335e-12</wgt>
  <wgt id="443">7.85972e-12</wgt>
  <wgt id="444">7.92704e-12</wgt>
  <wgt id="445">7.90847e-12</wgt>
  <wgt id="446">7.80168e-12</wgt>
  <wgt id="447">7.85982e-12</wgt>
  <wgt id="448">7.6706e-12</wgt>
  <wgt id="449">8.00012e-12</wgt>
  <wgt id="450">7.92457e-12</wgt>
  <wgt id="451">7.84056e-12</wgt>
  <wgt id="452">8.02571e-12</wgt>
  <wgt id="453">7.93897e-12</wgt>
  <wgt id="454">7.49845e-12</wgt>
  <wgt id="455">7.90626e-12</wgt>
  <wgt id="456">7.94019e-12</wgt>
  <wgt id="457">7.88339e-12</wgt>
  <wgt id="458">7.98644e-12</wgt>
  <wgt id="459">7.92749e-12</wgt>
  <wgt id="460">7.98057e-12</wgt>
  <wgt id="461">7.69209e-12</wgt>
  <wgt id="462">7.81031e-12</wgt>
  <wgt id="463">7.7479e-12</wgt>
  <wgt id="464">7.82365e-12</wgt>
  <wgt id="465">7.94011e-12</wgt>
  <wgt id="466">7.71698e-12</wgt>
  <wgt id="467">7.79576e-12</wgt>
  <wgt id="468">7.84758e-12</wgt>
  <wgt id="469">7.84571e-12</wgt>
  <wgt id="470">7.75784e-12</wgt>
  <wgt id="471">7.77744e-12</wgt>
  <wgt id="472">7.90274e-12</wgt>
  <wgt id="473">7.62868e-12</wgt>
  <wgt id="474">5.79e-12</wgt>
  <wgt id="475">5.83215e-12</wgt>
  <wgt id="476">5.71385e-12</wgt>
  <wgt id="477">5.73222e-12</wgt>
  <wgt id="478">5.84656e-12</wgt>
  <wgt id="479">5.59265e-12</wgt>
  <wgt id="480">6.069e-12</wgt>
  <wgt id="481">5.81301e-12</wgt>
  <wgt id="482">5.76297e-12</wgt>
  <wgt id="483">5.70526e-12</wgt>
  <wgt id="484">5.9899e-12</wgt>
  <wgt id="485">5.47161e-12</wgt>
  <wgt id="486">6.09103e-12</wgt>
  <wgt id="487">5.72109e-12</wgt>
  <wgt id="488">5.891e-12</wgt>
  <wgt id="489">5.37421e-12</wgt>
  <wgt id="490">5.61133e-12</wgt>
  <wgt id="491">5.75501e-12</wgt>
  <wgt id="492">5.70996e-12</wgt>
  <wgt id="493">5.45796e-12</wgt>
  <wgt id="494">5.50577e-12</wgt>
  <wgt id="495">5.79534e-12</wgt>
  <wgt id="496">5.56066e-12</wgt>
  <wgt id="497">5.48078e-12</wgt>
  <wgt id="498">5.96247e-12</wgt>
  <wgt id="499">5.7837e-12</wgt>
  <wgt id="500">5.66192e-12</wgt>
  <wgt id="501">5.97887e-12</wgt>
  <wgt id="502">5.88692e-12</wgt>
  <wgt id="503">5.75722e-12</wgt>
  <wgt id="504">5.95793e-12</wgt>
  <wgt id="505">5.86107e-12</wgt>
  <wgt id="506">5.60405e-12</wgt>
  <wgt id="507">5.78117e-12</wgt>
  <wgt id="508">6.05516e-12</wgt>
  <wgt id="509">5.44254e-12</wgt>
  <wgt id="510">5.87344e-12</wgt>
  <wgt id="511">5.54124e-12</wgt>
  <wgt id="512">6.06449e-12</wgt>
  <wgt id="513">5.99342e-12</wgt>
  <wgt id="514">5.98065e-12</wgt>
  <wgt id="515">5.84534e-12</wgt>
  <wgt id="516">6.25047e-12</wgt>
  <wgt id="517">5.92098e-12</wgt>
  <wgt id="518">5.96467e-12</wgt>
  <wgt id="519">5.59032e-12</wgt>
  <wgt id="520">5.92142e-12</wgt>
  <wgt id="521">5.78981e-12</wgt>
  <wgt id="522">6.03417e-12</wgt>
  <wgt id="523">5.59038e-12</wgt>
  <wgt id="524">5.76846e-12</wgt>
  <wgt id="525">5.82864e-12</wgt>
  <wgt id="526">5.96564e-12</wgt>
  <wgt id="527">5.75327e-12</wgt>
  <wgt id="528">5.8123e-12</wgt>
  <wgt id="529">5.64793e-12</wgt>
  <wgt id="530">6.01555e-12</wgt>
  <wgt id="531">5.62361e-12</wgt>
  <wgt id="532">6.20041e-12</wgt>
  <wgt id="533">5.66495e-12</wgt>
  <wgt id="534">5.67667e-12</wgt>
  <wgt id="535">5.78842e-12</wgt>
  <wgt id="536">5.86847e-12</wgt>
  <wgt id="537">5.63913e-12</wgt>
  <wgt id="538">5.78941e-12</wgt>
  <wgt id="539">5.68304e-12</wgt>
  <wgt id="540">5.98375e-12</wgt>
  <wgt id="541">5.71857e-12</wgt>
  <wgt id="542">5.72606e-12</wgt>
  <wgt id="543">5.69941e-12</wgt>
  <wgt id="544">5.92248e-12</wgt>
  <wgt id="545">5.57277e-12</wgt>
  <wgt id="546">5.43721e-12</wgt>
  <wgt id="547">5.64604e-12</wgt>
  <wgt id="548">5.56456e-12</wgt>
  <wgt id="549">5.69628e-12</wgt>
  <wgt id="550">5.67134e-12</wgt>
  <wgt id="551">5.85048e-12</wgt>
  <wgt id="552">5.4238e-12</wgt>
  <wgt id="553">5.58548e-12</wgt>
  <wgt id="554">6.12412e-12</wgt>
  <wgt id="555">5.93381e-12</wgt>
  <wgt id="556">5.61133e-12</wgt>
  <wgt id="557">5.9469e-12</wgt>
  <wgt id="558">5.70564e-12</wgt>
  <wgt id="559">5.72145e-12</wgt>
  <wgt id="560">6.3745e-12</wgt>
  <wgt id="561">5.83e-12</wgt>
  <wgt id="562">6.00728e-12</wgt>
  <wgt id="563">6.17166e-12</wgt>
  <wgt id="564">6.06483e-12</wgt>
  <wgt id="565">5.81251e-12</wgt>
  <wgt id="566">5.76516e-12</wgt>
  <wgt id="567">5.76901e-12</wgt>
  <wgt id="568">5.68197e-12</wgt>
  <wgt id="569">5.88868e-12</wgt>
  <wgt id="570">5.58176e-12</wgt>
  <wgt id="571">6.36838e-12</wgt>
  <wgt id="572">5.67249e-12</wgt>
  <wgt id="573">5.62617e-12</wgt>
  <wgt id="574">5.64382e-12</wgt>
  <wgt id="575">6.36544e-12</wgt>
  <wgt id="576">6.72156e-12</wgt>
  <wgt id="577">6.62813e-12</wgt>
  <wgt id="578">6.5529e-12</wgt>
  <wgt id="579">6.60436e-12</wgt>
  <wgt id="580">6.71942e-12</wgt>
  <wgt id="581">6.96385e-12</wgt>
  <wgt id="582">6.67573e-12</wgt>
  <wgt id="583">6.44804e-12</wgt>
  <wgt id="584">6.30572e-12</wgt>
  <wgt id="585">6.04488e-12</wgt>
  <wgt id="586">6.06962e-12</wgt>
  <wgt id="587">6.48945e-12</wgt>
  <wgt id="588">6.66243e-12</wgt>
  <wgt id="589">6.76836e-12</wgt>
  <wgt id="590">6.31514e-12</wgt>
  <wgt id="591">6.56477e-12</wgt>
  <wgt id="592">5.87078e-12</wgt>
  <wgt id="593">6.23023e-12</wgt>
  <wgt id="594">6.36462e-12</wgt>
  <wgt id="595">6.54634e-12</wgt>
  <wgt id="596">7.13626e-12</wgt>
  <wgt id="597">6.39102e-12</wgt>
  <wgt id="598">6.24486e-12</wgt>
  <wgt id="599">6.71304e-12</wgt>
  <wgt id="600">6.57769e-12</wgt>
  <wgt id="601">6.14507e-12</wgt>
  <wgt id="602">6.1767e-12</wgt>
  <wgt id="603">6.06385e-12</wgt>
  <wgt id="604">6.49332e-12</wgt>
  <wgt id="605">6.50615e-12</wgt>
  <wgt id="606">6.47374e-12</wgt>
  <wgt id="607">6.52028e-12</wgt>
  <wgt id="608">6.57594e-12</wgt>
  <wgt id="609">6.24541e-12</wgt>
  <wgt id="610">6.12084e-12</wgt>
  <wgt id="611">6.16003e-12</wgt>
  <wgt id="612">6.61776e-12</wgt>
  <wgt id="613">6.18699e-12</wgt>
  <wgt id="614">6.33145e-12</wgt>
  <wgt id="615">6.3938e-12</wgt>
  <wgt id="616">6.3365e-12</wgt>
  <wgt id="617">6.57547e-12</wgt>
  <wgt id="618">6.96313e-12</wgt>
  <wgt id="619">6.25802e-12</wgt>
  <wgt id="620">6.60065e-12</wgt>
  <wgt id="621">6.3143e-12</wgt>
  <wgt id="622">6.48945e-12</wgt>
  <wgt id="623">6.46403e-12</wgt>
  <wgt id="624">6.41315e-12</wgt>
  <wgt id="625">6.15002e-12</wgt>
  <wgt id="626">5.88525e-12</wgt>
  <wgt id="627">5.91159e-12</wgt>
  <wgt id="628">6.3787e-12</wgt>
  <wgt id="629">6.36998e-12</wgt>
  <wgt id="630">6.09837e-12</wgt>
  <wgt id="631">6.46982e-12</wgt>
  <wgt id="632">5.91108e-12</wgt>
  <wgt id="633">6.34623e-12</wgt>
  <wgt id="634">6.14496e-12</wgt>
  <wgt id="635">5.92722e-12</wgt>
  <wgt id="636">6.4659e-12</wgt>
  <wgt id="637">6.30494e-12</wgt>
  <wgt id="638">6.12608e-12</wgt>
  <wgt id="639">6.18252e-12</wgt>
  <wgt id="640">6.29182e-12</wgt>
  <wgt id="641">6.60867e-12</wgt>
  <wgt id="642">5.91701e-12</wgt>
  <wgt id="643">6.25359e-12</wgt>
  <wgt id="644">5.74144e-12</wgt>
  <wgt id="645">6.36927e-12</wgt>
  <wgt id="646">6.01759e-12</wgt>
  <wgt id="647">6.37897e-12</wgt>
  <wgt id="648">6.57982e-12</wgt>
  <wgt id="649">6.38709e-12</wgt>
  <wgt id="650">6.11257e-12</wgt>
  <wgt id="651">6.73618e-12</wgt>
  <wgt id="652">6.16191e-12</wgt>
  <wgt id="653">6.12656e-12</wgt>
  <wgt id="654">6.29741e-12</wgt>
  <wgt id="655">6.23252e-12</wgt>
  <wgt id="656">6.3906e-12</wgt>
  <wgt id="657">6.93389e-12</wgt>
  <wgt id="658">6.33556e-12</wgt>
  <wgt id="659">6.10201e-12</wgt>
  <wgt id="660">6.29819e-12</wgt>
  <wgt id="661">6.24935e-12</wgt>
  <wgt id="662">6.30096e-12</wgt>
  <wgt id="663">6.45597e-12</wgt>
  <wgt id="664">6.39522e-12</wgt>
  <wgt id="665">6.34359e-12</wgt>
  <wgt id="666">6.2481e-12</wgt>
  <wgt id="667">6.66484e-12</wgt>
  <wgt id="668">6.32163e-12</wgt>
  <wgt id="669">6.42495e-12</wgt>
  <wgt id="670">6.6303e-12</wgt>
  <wgt id="671">6.41166e-12</wgt>
  <wgt id="672">6.14575e-12</wgt>
  <wgt id="673">6.63323e-12</wgt>
  <wgt id="674">6.18985e-12</wgt>
  <wgt id="675">6.24662e-12</wgt>
  <wgt id="676">8.12958e-12</wgt>
  <wgt id="677">8.23968e-12</wgt>
  <wgt id="678">8.73238e-12</wgt>
  <wgt id="679">8.02516e-12</wgt>
  <wgt id="680">8.14651e-12</wgt>
  <wgt id="681">8.06121e-12</wgt>
  <wgt id="682">8.50411e-12</wgt>
  <wgt id="683">7.72023e-12</wgt>
  <wgt id="684">8.48067e-12</wgt>
  <wgt id="685">8.04179e-12</wgt>
  <wgt id="686">7.98911e-12</wgt>
  <wgt id="687">8.36388e-12</wgt>
  <wgt id="688">7.94783e-12</wgt>
  <wgt id="689">8.47084e-12</wgt>
  <wgt id="690">8.32848e-12</wgt>
  <wgt id="691">8.42403e-12</wgt>
  <wgt id="692">7.99073e-12</wgt>
  <wgt id="693">1.01755e-11</wgt>
  <wgt id="694">8.80525e-12</wgt>
  <wgt id="695">7.77893e-12</wgt>
  <wgt id="696">7.89501e-12</wgt>
  <wgt id="697">7.60477e-12</wgt>
  <wgt id="698">6.99047e-12</wgt>
  <wgt id="699">7.0687e-12</wgt>
  <wgt id="700">7.2023e-12</wgt>
  <wgt id="701">8.11435e-12</wgt>
  <wgt id="702">7.98792e-12</wgt>
  <wgt id="703">9.66766e-12</wgt>
  <wgt id="704">9.04391e-12</wgt>
  <wgt id="705">8.97826e-12</wgt>
  <wgt id="706">7.7325e-12</wgt>
  <wgt id="707">7.70427e-12</wgt>
  <wgt id="708">7.86746e-12</wgt>
  <wgt id="709">7.90027e-12</wgt>
  <wgt id="710">7.24108e-12</wgt>
  <wgt id="711">8.31892e-12</wgt>
  <wgt id="712">7.72291e-12</wgt>
  <wgt id="713">8.76144e-12</wgt>
  <wgt id="714">7.54335e-12</wgt>
  <wgt id="715">7.89671e-12</wgt>
  <wgt id="716">7.83848e-12</wgt>
  <wgt id="717">7.35493e-12</wgt>
  <wgt id="718">8.3103e-12</wgt>
  <wgt id="719">7.40763e-12</wgt>
  <wgt id="720">8.09523e-12</wgt>
  <wgt id="721">7.07378e-12</wgt>
  <wgt id="722">6.78558e-12</wgt>
  <wgt id="723">8.90823e-12</wgt>
  <wgt id="724">8.68802e-12</wgt>
  <wgt id="725">8.46301e-12</wgt>
  <wgt id="726">8.09449e-12</wgt>
  <wgt id="727">8.08052e-12</wgt>
  <wgt id="728">7.87074e-12</wgt>
  <wgt id="729">7.78345e-12</wgt>
  <wgt id="730">8.83929e-12</wgt>
  <wgt id="731">7.96094e-12</wgt>
  <wgt id="732">9.21963e-12</wgt>
  <wgt id="733">7.73255e-12</wgt>
  <wgt id="734">8.33361e-12</wgt>
  <wgt id="735">8.24434e-12</wgt>
  <wgt id="736">7.69147e-12</wgt>
  <wgt id="737">7.91883e-12</wgt>
  <wgt id="738">7.77971e-12</wgt>
  <wgt id="739">8.62092e-12</wgt>
  <wgt id="740">9.29362e-12</wgt>
  <wgt id="741">7.97013e-12</wgt>
  <wgt id="742">7.97084e-12</wgt>
  <wgt id="743">7.56453e-12</wgt>
  <wgt id="744">7.9675e-12</wgt>
  <wgt id="745">8.65469e-12</wgt>
  <wgt id="746">8.87395e-12</wgt>
  <wgt id="747">6.96443e-12</wgt>
  <wgt id="748">7.967e-12</wgt>
  <wgt id="749">8.39783e-12</wgt>
  <wgt id="750">8.73236e-12</wgt>
  <wgt id="751">8.18779e-12</wgt>
  <wgt id="752">7.39651e-12</wgt>
  <wgt id="753">7.45291e-12</wgt>
  <wgt id="754">8.50385e-12</wgt>
  <wgt id="755">8.01614e-12</wgt>
  <wgt id="756">7.97193e-12</wgt>
  <wgt id="757">7.23462e-12</wgt>
  <wgt id="758">7.95111e-12</wgt>
  <wgt id="759">8.92536e-12</wgt>
  <wgt id="760">7.92444e-12</wgt>
  <wgt id="761">8.77909e-12</wgt>
  <wgt id="762">8.81347e-12</wgt>
  <wgt id="763">8.1718e-12</wgt>
  <wgt id="764">8.55246e-12</wgt>
  <wgt id="765">8.2803e-12</wgt>
  <wgt id="766">8.17255e-12</wgt>
  <wgt id="767">8.27431e-12</wgt>
  <wgt id="768">7.50261e-12</wgt>
  <wgt id="769">8.58081e-12</wgt>
  <wgt id="770">7.85716e-12</wgt>
  <wgt id="771">9.7028e-12</wgt>
  <wgt id="772">7.87993e-12</wgt>
  <wgt id="773">8.09501e-12</wgt>
  <wgt id="774">6.6903e-12</wgt>
  <wgt id="775">8.50824e-12</wgt>
  <wgt id="776">8.9959e-12</wgt>
  <wgt id="777">7.43293e-12</wgt>
  <wgt id="778">5.63768e-12</wgt>
  <wgt id="779">3.94685e-12</wgt>
  <wgt id="780">2.73135e-12</wgt>
  <wgt id="781">6.51761e-12</wgt>
  <wgt id="782">6.5595e-12</wgt>
  <wgt id="783">3.77975e-12</wgt>
  <wgt id="784">4.37675e-12</wgt>
  <wgt id="785">7.85633e-12</wgt>
  <wgt id="786">3.76549e-12</wgt>
  <wgt id="787">6.89581e-12</wgt>
  <wgt id="788">2.15084e-12</wgt>
  <wgt id="789">4.4166e-12</wgt>
  <wgt id="790">3.69225e-12</wgt>
  <wgt id="791">6.14398e-12</wgt>
  <wgt id="792">7.58718e-12</wgt>
  <wgt id="793">5.49019e-12</wgt>
  <wgt id="794">3.4657e-12</wgt>
  <wgt id="795">7.25571e-12</wgt>
  <wgt id="796">7.70927e-12</wgt>
  <wgt id="797">7.13604e-12</wgt>
  <wgt id="798">4.59545e-12</wgt>
  <wgt id="799">6.74507e-12</wgt>
  <wgt id="800">4.57181e-12</wgt>
  <wgt id="801">5.24282e-12</wgt>
  <wgt id="802">3.39765e-12</wgt>
  <wgt id="803">8.61773e-12</wgt>
  <wgt id="804">7.3159e-12</wgt>
  <wgt id="805">7.11857e-12</wgt>
  <wgt id="806">6.14174e-12</wgt>
  <wgt id="807">5.44444e-12</wgt>
  <wgt id="808">5.34896e-12</wgt>
  <wgt id="809">5.19989e-12</wgt>
  <wgt id="810">6.25766e-12</wgt>
  <wgt id="811">5.9443e-12</wgt>
  <wgt id="812">3.71063e-12</wgt>
  <wgt id="813">3.92766e-12</wgt>
  <wgt id="814">4.25156e-12</wgt>
  <wgt id="815">3.82033e-12</wgt>
  <wgt id="816">3.89091e-12</wgt>
  <wgt id="817">5.68986e-12</wgt>
  <wgt id="818">6.78387e-12</wgt>
  <wgt id="819">3.92394e-12</wgt>
  <wgt id="820">5.42627e-12</wgt>
  <wgt id="821">6.62459e-12</wgt>
  <wgt id="822">4.53877e-12</wgt>
  <wgt id="823">6.91065e-12</wgt>
  <wgt id="824">8.28295e-12</wgt>
  <wgt id="825">3.30669e-12</wgt>
  <wgt id="826">6.63208e-12</wgt>
  <wgt id="827">2.87598e-12</wgt>
  <wgt id="828">7.21463e-12</wgt>
  <wgt id="829">5.79752e-12</wgt>
  <wgt id="830">3.14213e-12</wgt>
  <wgt id="831">6.41014e-12</wgt>
  <wgt id="832">9.72519e-12</wgt>
  <wgt id="833">4.74062e-12</wgt>
  <wgt id="834">9.42452e-12</wgt>
  <wgt id="835">4.27749e-12</wgt>
  <wgt id="836">4.94852e-12</wgt>
  <wgt id="837">6.50574e-12</wgt>
  <wgt id="838">4.80032e-12</wgt>
  <wgt id="839">6.36822e-12</wgt>
  <wgt id="840">4.9401e-12</wgt>
  <wgt id="841">7.58367e-12</wgt>
  <wgt id="842">5.41887e-12</wgt>
  <wgt id="843">5.98186e-12</wgt>
  <wgt id="844">6.10294e-12</wgt>
  <wgt id="845">9.43777e-12</wgt>
  <wgt id="846">5.89839e-12</wgt>
  <wgt id="847">5.95961e-12</wgt>
  <wgt id="848">3.97179e-12</wgt>
  <wgt id="849">5.98545e-12</wgt>
  <wgt id="850">8.10556e-12</wgt>
  <wgt id="851">6.47921e-12</wgt>
  <wgt id="852">3.59226e-12</wgt>
  <wgt id="853">6.69226e-12</wgt>
  <wgt id="854">7.48036e-12</wgt>
  <wgt id="855">6.71795e-12</wgt>
  <wgt id="856">3.13631e-12</wgt>
  <wgt id="857">5.15669e-12</wgt>
  <wgt id="858">5.2423e-12</wgt>
  <wgt id="859">5.40135e-12</wgt>
  <wgt id="860">6.87821e-12</wgt>
  <wgt id="861">4.81274e-12</wgt>
  <wgt id="862">5.70364e-12</wgt>
  <wgt id="863">6.32865e-12</wgt>
  <wgt id="864">5.89434e-12</wgt>
  <wgt id="865">8.60359e-12</wgt>
  <wgt id="866">9.62005e-12</wgt>
  <wgt id="867">5.73075e-12</wgt>
  <wgt id="868">5.6679e-12</wgt>
  <wgt id="869">3.66876e-12</wgt>
  <wgt id="870">4.10746e-12</wgt>
  <wgt id="871">4.03911e-12</wgt>
  <wgt id="872">7.56149e-12</wgt>
  <wgt id="873">4.61419e-12</wgt>
  <wgt id="874">6.13512e-12</wgt>
  <wgt id="875">4.5888e-12</wgt>
  <wgt id="876">7.31939e-12</wgt>
  <wgt id="877">6.37369e-12</wgt>
  <wgt id="878">4.54674e-12</wgt>
  <wgt id="879">8.12958e-12</wgt>
  <wgt id="880">8.23968e-12</wgt>
  <wgt id="881">8.73238e-12</wgt>
  <wgt id="882">8.02516e-12</wgt>
  <wgt id="883">8.14651e-12</wgt>
  <wgt id="884">8.06121e-12</wgt>
  <wgt id="885">8.50411e-12</wgt>
  <wgt id="886">7.72023e-12</wgt>
  <wgt id="887">8.48067e-12</wgt>
  <wgt id="888">8.04179e-12</wgt>
  <wgt id="889">7.98911e-12</wgt>
  <wgt id="890">8.36388e-12</wgt>
  <wgt id="891">7.94783e-12</wgt>
  <wgt id="892">8.47084e-12</wgt>
  <wgt id="893">8.32848e-12</wgt>
  <wgt id="894">8.42403e-12</wgt>
  <wgt id="895">7.99073e-12</wgt>
  <wgt id="896">1.01755e-11</wgt>
  <wgt id="897">8.80525e-12</wgt>
  <wgt id="898">7.77893e-12</wgt>
  <wgt id="899">7.89501e-12</wgt>
  <wgt id="900">7.60477e-12</wgt>
  <wgt id="901">6.99047e-12</wgt>
  <wgt id="902">7.0687e-12</wgt>
  <wgt id="903">7.2023e-12</wgt>
  <wgt id="904">8.11435e-12</wgt>
  <wgt id="905">7.98792e-12</wgt>
  <wgt id="906">9.66766e-12</wgt>
  <wgt id="907">9.04391e-12</wgt>
  <wgt id="908">8.97826e-12</wgt>
  <wgt id="909">7.7325e-12</wgt>
  <wgt id="910">7.70427e-12</wgt>
  <wgt id="911">7.86746e-12</wgt>
  <wgt id="912">7.90027e-12</wgt>
  <wgt id="913">7.24108e-12</wgt>
  <wgt id="914">8.31892e-12</wgt>
  <wgt id="915">7.72291e-12</wgt>
  <wgt id="916">8.76144e-12</wgt>
  <wgt id="917">7.54335e-12</wgt>
  <wgt id="918">7.89671e-12</wgt>
  <wgt id="919">7.83848e-12</wgt>
  <wgt id="920">7.35493e-12</wgt>
  <wgt id="921">8.3103e-12</wgt>
  <wgt id="922">7.40763e-12</wgt>
  <wgt id="923">8.09523e-12</wgt>
  <wgt id="924">7.07378e-12</wgt>
  <wgt id="925">6.78558e-12</wgt>
  <wgt id="926">8.90823e-12</wgt>
  <wgt id="927">8.68802e-12</wgt>
  <wgt id="928">8.46301e-12</wgt>
  <wgt id="929">8.09449e-12</wgt>
  <wgt id="930">8.08052e-12</wgt>
  <wgt id="931">7.87074e-12</wgt>
  <wgt id="932">7.78345e-12</wgt>
  <wgt id="933">8.83929e-12</wgt>
  <wgt id="934">7.96094e-12</wgt>
  <wgt id="935">9.21963e-12</wgt>
  <wgt id="936">7.73255e-12</wgt>
  <wgt id="937">8.33361e-12</wgt>
  <wgt id="938">8.24434e-12</wgt>
  <wgt id="939">7.69147e-12</wgt>
  <wgt id="940">7.91883e-12</wgt>
  <wgt id="941">7.77971e-12</wgt>
  <wgt id="942">8.62092e-12</wgt>
  <wgt id="943">9.29362e-12</wgt>
  <wgt id="944">7.97013e-12</wgt>
  <wgt id="945">7.97084e-12</wgt>
  <wgt id="946">7.56453e-12</wgt>
  <wgt id="947">7.9675e-12</wgt>
  <wgt id="948">8.65469e-12</wgt>
  <wgt id="949">8.87395e-12</wgt>
  <wgt id="950">6.96443e-12</wgt>
  <wgt id="951">7.967e-12</wgt>
  <wgt id="952">8.39783e-12</wgt>
  <wgt id="953">8.73236e-12</wgt>
  <wgt id="954">8.18779e-12</wgt>
  <wgt id="955">7.39651e-12</wgt>
  <wgt id="956">7.45291e-12</wgt>
  <wgt id="957">8.50385e-12</wgt>
  <wgt id="958">8.01614e-12</wgt>
  <wgt id="959">7.97193e-12</wgt>
  <wgt id="960">7.23462e-12</wgt>
  <wgt id="961">7.95111e-12</wgt>
  <wgt id="962">8.92536e-12</wgt>
  <wgt id="963">7.92444e-12</wgt>
  <wgt id="964">8.77909e-12</wgt>
  <wgt id="965">8.81347e-12</wgt>
  <wgt id="966">8.1718e-12</wgt>
  <wgt id="967">8.55246e-12</wgt>
  <wgt id="968">8.2803e-12</wgt>
  <wgt id="969">8.17255e-12</wgt>
  <wgt id="970">8.27431e-12</wgt>
  <wgt id="971">7.50261e-12</wgt>
  <wgt id="972">8.58081e-12</wgt>
  <wgt id="973">7.85716e-12</wgt>
  <wgt id="974">9.7028e-12</wgt>
  <wgt id="975">7.87993e-12</wgt>
  <wgt id="976">8.09501e-12</wgt>
  <wgt id="977">6.6903e-12</wgt>
  <wgt id="978">8.50824e-12</wgt>
  <wgt id="979">8.9959e-12</wgt>
  <wgt id="980">8.08495e-12</wgt>
  <wgt id="981">8.24132e-12</wgt>
  <wgt id="982">7.86952e-12</wgt>
</rwgt>
</event>
<event>
 5   1  0.5790000E-11  0.2197422E+04  0.7818608E-02  0.7749841E-01
       21   -1    0    0  502  501  0.00000000000E+00  0.00000000000E+00  0.22741539475E+04  0.22741539475E+04  0.00000000000E+00 0.  1.
       21   -1    0    0  501  502 -0.00000000000E+00 -0.00000000000E+00 -0.53081961290E+03  0.53081961290E+03  0.00000000000E+00 0. -1.
       39    2    1    2    0    0  0.00000000000E+00  0.00000000000E+00  0.17433343346E+04  0.28049735604E+04  0.21974216874E+04 0.  0.
       25    1    3    3    0    0  0.38802501083E+02 -0.95291051302E+03  0.19381158495E+03  0.98118907983E+03  0.12500000000E+03 0.  0.
       25    1    3    3    0    0 -0.38802501083E+02  0.95291051302E+03  0.15495227497E+04  0.18237844806E+04  0.12500000000E+03 0.  0.
<mgrwt>
<rscale>  0 0.21974217E+04</rscale>
<asrwt>0</asrwt>
<pdfrwt beam="1">  1       21 0.34986983E+00 0.21974217E+04</pdfrwt>
<pdfrwt beam="2">  1       21 0.81664557E-01 0.21974217E+04</pdfrwt>
<totfact> 0.81554313E+00</totfact>
</mgrwt>
<rwgt>
  <wgt id="1">5.79e-12</wgt>
  <wgt id="2">4.99105e-12</wgt>
  <wgt id="3">6.79336e-12</wgt>
  <wgt id="4">5.79e-12</wgt>
  <wgt id="5">4.99105e-12</wgt>
  <wgt id="6">6.79336e-12</wgt>
  <wgt id="7">5.79e-12</wgt>
  <wgt id="8">4.99105e-12</wgt>
  <wgt id="9">6.79336e-12</wgt>
  <wgt id="10">6.10929e-12</wgt>
  <wgt id="11">6.10923e-12</wgt>
  <wgt id="12">6.09178e-12</wgt>
  <wgt id="13">6.10016e-12</wgt>
  <wgt id="14">6.1258e-12</wgt>
  <wgt id="15">6.11814e-12</wgt>
  <wgt id="16">6.08931e-12</wgt>
  <wgt id="17">6.14856e-12</wgt>
  <wgt id="18">6.10531e-12</wgt>
  <wgt id="19">6.13879e-12</wgt>
  <wgt id="20">6.11227e-12</wgt>
  <wgt id="21">6.05672e-12</wgt>
  <wgt id="22">6.05958e-12</wgt>
  <wgt id="23">6.00385e-12</wgt>
  <wgt id="24">6.05701e-12</wgt>
  <wgt id="25">6.08629e-12</wgt>
  <wgt id="26">6.12427e-12</wgt>
  <wgt id="27">6.09455e-12</wgt>
  <wgt id="28">6.06765e-12</wgt>
  <wgt id="29">6.11035e-12</wgt>
  <wgt id="30">6.05112e-12</wgt>
  <wgt id="31">6.13601e-12</wgt>
  <wgt id="32">6.05122e-12</wgt>
  <wgt id="33">6.11543e-12</wgt>
  <wgt id="34">6.06191e-12</wgt>
  <wgt id="35">6.05503e-12</wgt>
  <wgt id="36">6.14326e-12</wgt>
  <wgt id="37">6.08765e-12</wgt>
  <wgt id="38">6.07829e-12</wgt>
  <wgt id="39">6.23243e-12</wgt>
  <wgt id="40">6.11869e-12</wgt>
  <wgt id="41">6.10587e-12</wgt>
  <wgt id="42">6.12153e-12</wgt>
  <wgt id="43">6.11734e-12</wgt>
  <wgt id="44">6.15666e-12</wgt>
  <wgt id="45">6.11667e-12</wgt>
  <wgt id="46">6.07515e-12</wgt>
  <wgt id="47">6.19563e-12</wgt>
  <wgt id="48">6.16055e-12</wgt>
  <wgt id="49">6.06814e-12</wgt>
  <wgt id="50">6.03729e-12</wgt>
  <wgt id="51">6.05714e-12</wgt>
  <wgt id="52">6.12629e-12</wgt>
  <wgt id="53">6.20356e-12</wgt>
  <wgt id="54">6.15312e-12</wgt>
  <wgt id="55">6.09989e-12</wgt>
  <wgt id="56">6.04892e-12</wgt>
  <wgt id="57">6.04922e-12</wgt>
  <wgt id="58">6.10943e-12</wgt>
  <wgt id="59">6.12944e-12</wgt>
  <wgt id="60">6.0344e-12</wgt>
  <wgt id="61">6.08494e-12</wgt>
  <wgt id="62">6.1112e-12</wgt>
  <wgt id="63">6.1051e-12</wgt>
  <wgt id="64">6.10132e-12</wgt>
  <wgt id="65">6.06804e-12</wgt>
  <wgt id="66">6.1269e-12</wgt>
  <wgt id="67">6.12486e-12</wgt>
  <wgt id="68">6.10629e-12</wgt>
  <wgt id="69">6.09376e-12</wgt>
  <wgt id="70">6.07565e-12</wgt>
  <wgt id="71">6.11766e-12</wgt>
  <wgt id="72">6.08609e-12</wgt>
  <wgt id="73">6.12538e-12</wgt>
  <wgt id="74">6.14405e-12</wgt>
  <wgt id="75">6.09245e-12</wgt>
  <wgt id="76">6.15704e-12</wgt>
  <wgt id="77">6.09511e-12</wgt>
  <wgt id="78">6.10378e-12</wgt>
  <wgt id="79">6.12398e-12</wgt>
  <wgt id="80">6.0513e-12</wgt>
  <wgt id="81">6.10383e-12</wgt>
  <wgt id="82">6.11635e-12</wgt>
  <wgt id="83">6.06149e-12</wgt>
  <wgt id="84">6.07809e-12</wgt>
  <wgt id="85">6.07661e-12</wgt>
  <wgt id="86">6.1455e-12</wgt>
  <wgt id="87">6.03645e-12</wgt>
  <wgt id="88">6.13363e-12</wgt>
  <wgt id="89">6.12663e-12</wgt>
  <wgt id="90">6.13551e-12</wgt>
  <wgt id="91">6.1176e-12</wgt>
  <wgt id="92">6.13217e-12</wgt>
  <wgt id="93">6.11597e-12</wgt>
  <wgt id="94">6.08591e-12</wgt>
  <wgt id="95">6.13109e-12</wgt>
  <wgt id="96">6.13104e-12</wgt>
  <wgt id="97">6.07738e-12</wgt>
  <wgt id="98">6.11003e-12</wgt>
  <wgt id="99">6.10488e-12</wgt>
  <wgt id="100">6.1223e-12</wgt>
  <wgt id="101">6.09468e-12</wgt>
  <wgt id="102">6.0935e-12</wgt>
  <wgt id="103">6.13563e-12</wgt>
  <wgt id="104">6.09787e-12</wgt>
  <wgt id="105">6.13037e-12</wgt>
  <wgt id="106">6.08838e-12</wgt>
  <wgt id="107">6.15369e-12</wgt>
  <wgt id="108">6.0952e-12</wgt>
  <wgt id="109">6.10962e-12</wgt>
  <wgt id="110">6.10933e-12</wgt>
  <wgt id="111">6.08223e-12</wgt>
  <wgt id="112">6.20655e-12</wgt>
  <wgt id="113">8.89405e-12</wgt>
  <wgt id="114">7.96972e-12</wgt>
  <wgt id="115">7.81058e-12</wgt>
  <wgt id="116">1.05995e-11</wgt>
  <wgt id="117">6.64958e-12</wgt>
  <wgt id="118">6.67362e-12</wgt>
  <wgt id="119">6.63582e-12</wgt>
  <wgt id="120">6.64967e-12</wgt>
  <wgt id="121">6.64942e-12</wgt>
  <wgt id="122">6.63931e-12</wgt>
  <wgt id="123">6.6638e-12</wgt>
  <wgt id="124">6.64088e-12</wgt>
  <wgt id="125">6.65511e-12</wgt>
  <wgt id="126">6.65763e-12</wgt>
  <wgt id="127">6.64423e-12</wgt>
  <wgt id="128">6.66966e-12</wgt>
  <wgt id="129">6.62975e-12</wgt>
  <wgt id="130">6.67964e-12</wgt>
  <wgt id="131">6.61824e-12</wgt>
  <wgt id="132">6.46369e-12</wgt>
  <wgt id="133">6.87089e-12</wgt>
  <wgt id="134">6.57967e-12</wgt>
  <wgt id="135">6.70452e-12</wgt>
  <wgt id="136">6.75542e-12</wgt>
  <wgt id="137">6.52229e-12</wgt>
  <wgt id="138">6.96272e-12</wgt>
  <wgt id="139">6.35384e-12</wgt>
  <wgt id="140">6.62164e-12</wgt>
  <wgt id="141">6.66997e-12</wgt>
  <wgt id="142">6.64706e-12</wgt>
  <wgt id="143">6.67304e-12</wgt>
  <wgt id="144">6.3517e-12</wgt>
  <wgt id="145">6.9424e-12</wgt>
  <wgt id="146">6.74601e-12</wgt>
  <wgt id="147">6.5699e-12</wgt>
  <wgt id="148">6.67436e-12</wgt>
  <wgt id="149">6.64769e-12</wgt>
  <wgt id="150">6.70433e-12</wgt>
  <wgt id="151">6.62398e-12</wgt>
  <wgt id="152">6.65072e-12</wgt>
  <wgt id="153">6.64902e-12</wgt>
  <wgt id="154">6.65263e-12</wgt>
  <wgt id="155">6.62886e-12</wgt>
  <wgt id="156">6.90032e-12</wgt>
  <wgt id="157">6.42641e-12</wgt>
  <wgt id="158">7.95453e-12</wgt>
  <wgt id="159">7.98894e-12</wgt>
  <wgt id="160">7.92714e-12</wgt>
  <wgt id="161">7.93512e-12</wgt>
  <wgt id="162">7.97662e-12</wgt>
  <wgt id="163">7.946e-12</wgt>
  <wgt id="164">7.96755e-12</wgt>
  <wgt id="165">7.95738e-12</wgt>
  <wgt id="166">7.95277e-12</wgt>
  <wgt id="167">7.94941e-12</wgt>
  <wgt id="168">7.96237e-12</wgt>
  <wgt id="169">7.92214e-12</wgt>
  <wgt id="170">7.97492e-12</wgt>
  <wgt id="171">7.95038e-12</wgt>
  <wgt id="172">7.96077e-12</wgt>
  <wgt id="173">7.93596e-12</wgt>
  <wgt id="174">7.96148e-12</wgt>
  <wgt id="175">7.72461e-12</wgt>
  <wgt id="176">8.25611e-12</wgt>
  <wgt id="177">7.98807e-12</wgt>
  <wgt id="178">7.92455e-12</wgt>
  <wgt id="179">8.3774e-12</wgt>
  <wgt id="180">7.30714e-12</wgt>
  <wgt id="181">7.68205e-12</wgt>
  <wgt id="182">8.13728e-12</wgt>
  <wgt id="183">7.78937e-12</wgt>
  <wgt id="184">8.03691e-12</wgt>
  <wgt id="185">7.85989e-12</wgt>
  <wgt id="186">8.0686e-12</wgt>
  <wgt id="187">7.85887e-12</wgt>
  <wgt id="188">8.12299e-12</wgt>
  <wgt id="189">7.88989e-12</wgt>
  <wgt id="190">7.98137e-12</wgt>
  <wgt id="191">7.98532e-12</wgt>
  <wgt id="192">7.93646e-12</wgt>
  <wgt id="193">8.09259e-12</wgt>
  <wgt id="194">7.88476e-12</wgt>
  <wgt id="195">7.64548e-12</wgt>
  <wgt id="196">8.45253e-12</wgt>
  <wgt id="197">7.9971e-12</wgt>
  <wgt id="198">7.94422e-12</wgt>
  <wgt id="199">7.95453e-12</wgt>
  <wgt id="200">8.03405e-12</wgt>
  <wgt id="201">8.00786e-12</wgt>
  <wgt id="202">7.98195e-12</wgt>
  <wgt id="203">7.94633e-12</wgt>
  <wgt id="204">7.92766e-12</wgt>
  <wgt id="205">7.91208e-12</wgt>
  <wgt id="206">7.81256e-12</wgt>
  <wgt id="207">7.85897e-12</wgt>
  <wgt id="208">7.76568e-12</wgt>
  <wgt id="209">7.83392e-12</wgt>
  <wgt id="210">7.79655e-12</wgt>
  <wgt id="211">7.81014e-12</wgt>
  <wgt id="212">7.81427e-12</wgt>
  <wgt id="213">7.81143e-12</wgt>
  <wgt id="214">7.81321e-12</wgt>
  <wgt id="215">7.818e-12</wgt>
  <wgt id="216">7.80864e-12</wgt>
  <wgt id="217">7.82787e-12</wgt>
  <wgt id="218">7.79984e-12</wgt>
  <wgt id="219">7.80073e-12</wgt>
  <wgt id="220">7.81954e-12</wgt>
  <wgt id="221">7.81733e-12</wgt>
  <wgt id="222">7.798e-12</wgt>
  <wgt id="223">7.36084e-12</wgt>
  <wgt id="224">8.22664e-12</wgt>
  <wgt id="225">7.71612e-12</wgt>
  <wgt id="226">7.93513e-12</wgt>
  <wgt id="227">7.7379e-12</wgt>
  <wgt id="228">7.8453e-12</wgt>
  <wgt id="229">7.69996e-12</wgt>
  <wgt id="230">7.86802e-12</wgt>
  <wgt id="231">8.08988e-12</wgt>
  <wgt id="232">7.58568e-12</wgt>
  <wgt id="233">7.75962e-12</wgt>
  <wgt id="234">7.90172e-12</wgt>
  <wgt id="235">7.44155e-12</wgt>
  <wgt id="236">8.11132e-12</wgt>
  <wgt id="237">7.60098e-12</wgt>
  <wgt id="238">7.8824e-12</wgt>
  <wgt id="239">7.72812e-12</wgt>
  <wgt id="240">7.96372e-12</wgt>
  <wgt id="241">7.71238e-12</wgt>
  <wgt id="242">7.9293e-12</wgt>
  <wgt id="243">7.95869e-12</wgt>
  <wgt id="244">7.80055e-12</wgt>
  <wgt id="245">7.81043e-12</wgt>
  <wgt id="246">7.85006e-12</wgt>
  <wgt id="247">7.81256e-12</wgt>
  <wgt id="248">7.90049e-12</wgt>
  <wgt id="249">7.87116e-12</wgt>
  <wgt id="250">7.83898e-12</wgt>
  <wgt id="251">7.79714e-12</wgt>
  <wgt id="252">7.77512e-12</wgt>
  <wgt id="253">7.76049e-12</wgt>
  <wgt id="254">7.49565e-12</wgt>
  <wgt id="255">7.50184e-12</wgt>
  <wgt id="256">7.48864e-12</wgt>
  <wgt id="257">7.50152e-12</wgt>
  <wgt id="258">7.49122e-12</wgt>
  <wgt id="259">7.54603e-12</wgt>
  <wgt id="260">7.44726e-12</wgt>
  <wgt id="261">7.50697e-12</wgt>
  <wgt id="262">7.48249e-12</wgt>
  <wgt id="263">7.48957e-12</wgt>
  <wgt id="264">7.50213e-12</wgt>
  <wgt id="265">7.48686e-12</wgt>
  <wgt id="266">7.51315e-12</wgt>
  <wgt id="267">7.49837e-12</wgt>
  <wgt id="268">7.49228e-12</wgt>
  <wgt id="269">7.51761e-12</wgt>
  <wgt id="270">7.48061e-12</wgt>
  <wgt id="271">7.47273e-12</wgt>
  <wgt id="272">7.52161e-12</wgt>
  <wgt id="273">7.47725e-12</wgt>
  <wgt id="274">7.50961e-12</wgt>
  <wgt id="275">7.44611e-12</wgt>
  <wgt id="276">7.54741e-12</wgt>
  <wgt id="277">7.45259e-12</wgt>
  <wgt id="278">7.5351e-12</wgt>
  <wgt id="279">7.36019e-12</wgt>
  <wgt id="280">7.66639e-12</wgt>
  <wgt id="281">7.45917e-12</wgt>
  <wgt id="282">7.51017e-12</wgt>
  <wgt id="283">7.24221e-12</wgt>
  <wgt id="284">7.81334e-12</wgt>
  <wgt id="285">7.07704e-12</wgt>
  <wgt id="286">7.85247e-12</wgt>
  <wgt id="287">7.52326e-12</wgt>
  <wgt id="288">7.46029e-12</wgt>
  <wgt id="289">7.55892e-12</wgt>
  <wgt id="290">7.35853e-12</wgt>
  <wgt id="291">7.46509e-12</wgt>
  <wgt id="292">7.49364e-12</wgt>
  <wgt id="293">7.42735e-12</wgt>
  <wgt id="294">7.56372e-12</wgt>
  <wgt id="295">7.32976e-12</wgt>
  <wgt id="296">7.69895e-12</wgt>
  <wgt id="297">7.47141e-12</wgt>
  <wgt id="298">7.53601e-12</wgt>
  <wgt id="299">7.46967e-12</wgt>
  <wgt id="300">7.56429e-12</wgt>
  <wgt id="301">7.32892e-12</wgt>
  <wgt id="302">7.87297e-12</wgt>
  <wgt id="303">7.40446e-12</wgt>
  <wgt id="304">7.54642e-12</wgt>
  <wgt id="305">7.39838e-12</wgt>
  <wgt id="306">7.4051e-12</wgt>
  <wgt id="307">7.39137e-12</wgt>
  <wgt id="308">7.40495e-12</wgt>
  <wgt id="309">7.39454e-12</wgt>
  <wgt id="310">7.4495e-12</wgt>
  <wgt id="311">7.352e-12</wgt>
  <wgt id="312">7.40893e-12</wgt>
  <wgt id="313">7.38748e-12</wgt>
  <wgt id="314">7.39254e-12</wgt>
  <wgt id="315">7.40451e-12</wgt>
  <wgt id="316">7.38979e-12</wgt>
  <wgt id="317">7.41796e-12</wgt>
  <wgt id="318">7.40435e-12</wgt>
  <wgt id="319">7.38877e-12</wgt>
  <wgt id="320">7.42248e-12</wgt>
  <wgt id="321">7.38557e-12</wgt>
  <wgt id="322">7.37448e-12</wgt>
  <wgt id="323">7.42727e-12</wgt>
  <wgt id="324">7.38619e-12</wgt>
  <wgt id="325">7.40932e-12</wgt>
  <wgt id="326">7.35733e-12</wgt>
  <wgt id="327">7.45168e-12</wgt>
  <wgt id="328">7.36076e-12</wgt>
  <wgt id="329">7.41944e-12</wgt>
  <wgt id="330">7.60467e-12</wgt>
  <wgt id="331">7.2031e-12</wgt>
  <wgt id="332">7.36839e-12</wgt>
  <wgt id="333">7.40852e-12</wgt>
  <wgt id="334">7.20793e-12</wgt>
  <wgt id="335">7.63868e-12</wgt>
  <wgt id="336">7.10473e-12</wgt>
  <wgt id="337">7.76504e-12</wgt>
  <wgt id="338">7.49349e-12</wgt>
  <wgt id="339">7.3118e-12</wgt>
  <wgt id="340">7.45443e-12</wgt>
  <wgt id="341">7.26305e-12</wgt>
  <wgt id="342">7.37753e-12</wgt>
  <wgt id="343">7.38041e-12</wgt>
  <wgt id="344">7.33961e-12</wgt>
  <wgt id="345">7.46761e-12</wgt>
  <wgt id="346">7.23101e-12</wgt>
  <wgt id="347">7.59056e-12</wgt>
  <wgt id="348">7.37589e-12</wgt>
  <wgt id="349">7.43546e-12</wgt>
  <wgt id="350">7.36693e-12</wgt>
  <wgt id="351">7.47928e-12</wgt>
  <wgt id="352">7.23324e-12</wgt>
  <wgt id="353">7.75833e-12</wgt>
  <wgt id="354">7.27209e-12</wgt>
  <wgt id="355">7.47282e-12</wgt>
  <wgt id="356">7.49565e-12</wgt>
  <wgt id="357">7.39613e-12</wgt>
  <wgt id="358">7.39838e-12</wgt>
  <wgt id="359">7.48486e-12</wgt>
  <wgt id="360">7.65267e-12</wgt>
  <wgt id="361">7.53994e-12</wgt>
  <wgt id="362">7.69651e-12</wgt>
  <wgt id="363">7.67652e-12</wgt>
  <wgt id="364">7.63488e-12</wgt>
  <wgt id="365">7.60478e-12</wgt>
  <wgt id="366">7.57524e-12</wgt>
  <wgt id="367">7.51969e-12</wgt>
  <wgt id="368">7.48265e-12</wgt>
  <wgt id="369">7.44281e-12</wgt>
  <wgt id="370">7.53994e-12</wgt>
  <wgt id="371">7.5695e-12</wgt>
  <wgt id="372">7.55247e-12</wgt>
  <wgt id="373">7.52905e-12</wgt>
  <wgt id="374">7.54281e-12</wgt>
  <wgt id="375">8.83533e-12</wgt>
  <wgt id="376">8.83548e-12</wgt>
  <wgt id="377">8.83512e-12</wgt>
  <wgt id="378">8.86977e-12</wgt>
  <wgt id="379">8.80124e-12</wgt>
  <wgt id="380">8.86124e-12</wgt>
  <wgt id="381">8.82497e-12</wgt>
  <wgt id="382">8.87324e-12</wgt>
  <wgt id="383">8.79796e-12</wgt>
  <wgt id="384">8.84111e-12</wgt>
  <wgt id="385">8.82999e-12</wgt>
  <wgt id="386">8.85948e-12</wgt>
  <wgt id="387">8.82505e-12</wgt>
  <wgt id="388">8.82831e-12</wgt>
  <wgt id="389">8.84382e-12</wgt>
  <wgt id="390">8.85341e-12</wgt>
  <wgt id="391">8.81659e-12</wgt>
  <wgt id="392">8.75464e-12</wgt>
  <wgt id="393">8.88082e-12</wgt>
  <wgt id="394">8.83928e-12</wgt>
  <wgt id="395">8.82961e-12</wgt>
  <wgt id="396">8.85333e-12</wgt>
  <wgt id="397">8.82277e-12</wgt>
  <wgt id="398">8.82853e-12</wgt>
  <wgt id="399">8.84159e-12</wgt>
  <wgt id="400">8.82239e-12</wgt>
  <wgt id="401">8.86319e-12</wgt>
  <wgt id="402">8.74962e-12</wgt>
  <wgt id="403">8.89551e-12</wgt>
  <wgt id="404">9.10987e-12</wgt>
  <wgt id="405">8.18499e-12</wgt>
  <wgt id="406">8.63592e-12</wgt>
  <wgt id="407">9.28068e-12</wgt>
  <wgt id="408">8.93875e-12</wgt>
  <wgt id="409">8.64486e-12</wgt>
  <wgt id="410">8.51457e-12</wgt>
  <wgt id="411">8.99111e-12</wgt>
  <wgt id="412">8.81305e-12</wgt>
  <wgt id="413">8.86682e-12</wgt>
  <wgt id="414">8.70787e-12</wgt>
  <wgt id="415">8.93433e-12</wgt>
  <wgt id="416">9.16385e-12</wgt>
  <wgt id="417">8.38569e-12</wgt>
  <wgt id="418">8.85603e-12</wgt>
  <wgt id="419">8.72491e-12</wgt>
  <wgt id="420">9.08133e-12</wgt>
  <wgt id="421">8.66664e-12</wgt>
  <wgt id="422">8.76562e-12</wgt>
  <wgt id="423">8.86697e-12</wgt>
  <wgt id="424">9.13194e-12</wgt>
  <wgt id="425">8.63012e-12</wgt>
  <wgt id="426">8.83533e-12</wgt>
  <wgt id="427">8.62131e-12</wgt>
  <wgt id="428">9.30496e-12</wgt>
  <wgt id="429">8.9713e-12</wgt>
  <wgt id="430">9.28612e-12</wgt>
  <wgt id="431">9.22172e-12</wgt>
  <wgt id="432">9.16415e-12</wgt>
  <wgt id="433">9.10723e-12</wgt>
  <wgt id="434">9.03358e-12</wgt>
  <wgt id="435">8.89364e-12</wgt>
  <wgt id="436">8.82392e-12</wgt>
  <wgt id="437">8.7547e-12</wgt>
  <wgt id="438">8.9713e-12</wgt>
  <wgt id="439">8.99792e-12</wgt>
  <wgt id="440">8.98061e-12</wgt>
  <wgt id="441">8.96522e-12</wgt>
  <wgt id="442">8.96067e-12</wgt>
  <wgt id="443">7.86374e-12</wgt>
  <wgt id="444">7.9615e-12</wgt>
  <wgt id="445">7.98732e-12</wgt>
  <wgt id="446">7.80458e-12</wgt>
  <wgt id="447">7.86967e-12</wgt>
  <wgt id="448">7.68195e-12</wgt>
  <wgt id="449">8.05055e-12</wgt>
  <wgt id="450">8.00739e-12</wgt>
  <wgt id="451">7.83913e-12</wgt>
  <wgt id="452">8.0329e-12</wgt>
  <wgt id="453">7.98427e-12</wgt>
  <wgt id="454">7.42243e-12</wgt>
  <wgt id="455">7.95042e-12</wgt>
  <wgt id="456">8.06428e-12</wgt>
  <wgt id="457">7.88747e-12</wgt>
  <wgt id="458">8.02397e-12</wgt>
  <wgt id="459">7.93919e-12</wgt>
  <wgt id="460">8.06864e-12</wgt>
  <wgt id="461">7.65764e-12</wgt>
  <wgt id="462">7.80912e-12</wgt>
  <wgt id="463">7.72423e-12</wgt>
  <wgt id="464">7.82631e-12</wgt>
  <wgt id="465">7.94772e-12</wgt>
  <wgt id="466">7.62889e-12</wgt>
  <wgt id="467">7.8088e-12</wgt>
  <wgt id="468">7.86585e-12</wgt>
  <wgt id="469">7.84163e-12</wgt>
  <wgt id="470">7.72058e-12</wgt>
  <wgt id="471">7.75057e-12</wgt>
  <wgt id="472">7.9277e-12</wgt>
  <wgt id="473">7.59724e-12</wgt>
  <wgt id="474">5.79e-12</wgt>
  <wgt id="475">5.77946e-12</wgt>
  <wgt id="476">5.79194e-12</wgt>
  <wgt id="477">5.9417e-12</wgt>
  <wgt id="478">5.91986e-12</wgt>
  <wgt id="479">5.4e-12</wgt>
  <wgt id="480">6.17196e-12</wgt>
  <wgt id="481">5.86726e-12</wgt>
  <wgt id="482">5.87865e-12</wgt>
  <wgt id="483">5.98428e-12</wgt>
  <wgt id="484">6.05496e-12</wgt>
  <wgt id="485">5.17743e-12</wgt>
  <wgt id="486">6.11136e-12</wgt>
  <wgt id="487">5.557e-12</wgt>
  <wgt id="488">5.79708e-12</wgt>
  <wgt id="489">5.04879e-12</wgt>
  <wgt id="490">5.7608e-12</wgt>
  <wgt id="491">5.69366e-12</wgt>
  <wgt id="492">5.70549e-12</wgt>
  <wgt id="493">5.22427e-12</wgt>
  <wgt id="494">5.22974e-12</wgt>
  <wgt id="495">5.85887e-12</wgt>
  <wgt id="496">5.39958e-12</wgt>
  <wgt id="497">5.34626e-12</wgt>
  <wgt id="498">5.94853e-12</wgt>
  <wgt id="499">5.90303e-12</wgt>
  <wgt id="500">5.84316e-12</wgt>
  <wgt id="501">6.02789e-12</wgt>
  <wgt id="502">6.20479e-12</wgt>
  <wgt id="503">5.64396e-12</wgt>
  <wgt id="504">6.02285e-12</wgt>
  <wgt id="505">6.12456e-12</wgt>
  <wgt id="506">5.22986e-12</wgt>
  <wgt id="507">5.55836e-12</wgt>
  <wgt id="508">6.14943e-12</wgt>
  <wgt id="509">5.63645e-12</wgt>
  <wgt id="510">5.79324e-12</wgt>
  <wgt id="511">5.44348e-12</wgt>
  <wgt id="512">6.30464e-12</wgt>
  <wgt id="513">6.11889e-12</wgt>
  <wgt id="514">6.27008e-12</wgt>
  <wgt id="515">6.08986e-12</wgt>
  <wgt id="516">6.55132e-12</wgt>
  <wgt id="517">5.93286e-12</wgt>
  <wgt id="518">6.0719e-12</wgt>
  <wgt id="519">5.54746e-12</wgt>
  <wgt id="520">5.81818e-12</wgt>
  <wgt id="521">5.521e-12</wgt>
  <wgt id="522">5.98389e-12</wgt>
  <wgt id="523">5.44941e-12</wgt>
  <wgt id="524">6.03006e-12</wgt>
  <wgt id="525">5.54721e-12</wgt>
  <wgt id="526">6.21858e-12</wgt>
  <wgt id="527">5.67629e-12</wgt>
  <wgt id="528">5.71783e-12</wgt>
  <wgt id="529">5.37701e-12</wgt>
  <wgt id="530">6.16788e-12</wgt>
  <wgt id="531">5.49027e-12</wgt>
  <wgt id="532">6.31659e-12</wgt>
  <wgt id="533">5.89823e-12</wgt>
  <wgt id="534">5.45192e-12</wgt>
  <wgt id="535">5.96285e-12</wgt>
  <wgt id="536">6.07483e-12</wgt>
  <wgt id="537">5.36241e-12</wgt>
  <wgt id="538">5.70676e-12</wgt>
  <wgt id="539">5.64941e-12</wgt>
  <wgt id="540">6.10435e-12</wgt>
  <wgt id="541">5.75671e-12</wgt>
  <wgt id="542">5.59823e-12</wgt>
  <wgt id="543">5.49395e-12</wgt>
  <wgt id="544">5.78688e-12</wgt>
  <wgt id="545">5.37833e-12</wgt>
  <wgt id="546">5.20277e-12</wgt>
  <wgt id="547">5.53319e-12</wgt>
  <wgt id="548">5.65543e-12</wgt>
  <wgt id="549">5.68375e-12</wgt>
  <wgt id="550">5.47959e-12</wgt>
  <wgt id="551">5.74778e-12</wgt>
  <wgt id="552">5.31844e-12</wgt>
  <wgt id="553">5.27375e-12</wgt>
  <wgt id="554">6.0218e-12</wgt>
  <wgt id="555">5.90485e-12</wgt>
  <wgt id="556">5.7608e-12</wgt>
  <wgt id="557">5.85939e-12</wgt>
  <wgt id="558">5.77054e-12</wgt>
  <wgt id="559">5.90603e-12</wgt>
  <wgt id="560">6.39827e-12</wgt>
  <wgt id="561">6.08798e-12</wgt>
  <wgt id="562">6.04396e-12</wgt>
  <wgt id="563">6.45172e-12</wgt>
  <wgt id="564">6.23639e-12</wgt>
  <wgt id="565">6.2105e-12</wgt>
  <wgt id="566">5.44294e-12</wgt>
  <wgt id="567">5.83745e-12</wgt>
  <wgt id="568">5.46479e-12</wgt>
  <wgt id="569">5.90417e-12</wgt>
  <wgt id="570">5.98951e-12</wgt>
  <wgt id="571">6.41746e-12</wgt>
  <wgt id="572">5.52455e-12</wgt>
  <wgt id="573">5.63781e-12</wgt>
  <wgt id="574">5.69787e-12</wgt>
  <wgt id="575">6.37286e-12</wgt>
  <wgt id="576">7.16636e-12</wgt>
  <wgt id="577">6.58329e-12</wgt>
  <wgt id="578">6.3458e-12</wgt>
  <wgt id="579">6.64993e-12</wgt>
  <wgt id="580">6.81509e-12</wgt>
  <wgt id="581">7.07795e-12</wgt>
  <wgt id="582">6.98306e-12</wgt>
  <wgt id="583">6.59957e-12</wgt>
  <wgt id="584">6.30131e-12</wgt>
  <wgt id="585">5.77036e-12</wgt>
  <wgt id="586">5.92552e-12</wgt>
  <wgt id="587">6.52366e-12</wgt>
  <wgt id="588">7.31436e-12</wgt>
  <wgt id="589">7.18511e-12</wgt>
  <wgt id="590">6.3607e-12</wgt>
  <wgt id="591">6.54591e-12</wgt>
  <wgt id="592">5.98384e-12</wgt>
  <wgt id="593">6.10717e-12</wgt>
  <wgt id="594">6.0642e-12</wgt>
  <wgt id="595">6.9006e-12</wgt>
  <wgt id="596">7.67374e-12</wgt>
  <wgt id="597">6.54401e-12</wgt>
  <wgt id="598">6.59718e-12</wgt>
  <wgt id="599">6.92504e-12</wgt>
  <wgt id="600">7.12441e-12</wgt>
  <wgt id="601">6.07375e-12</wgt>
  <wgt id="602">6.08392e-12</wgt>
  <wgt id="603">5.81841e-12</wgt>
  <wgt id="604">6.6117e-12</wgt>
  <wgt id="605">6.32164e-12</wgt>
  <wgt id="606">6.48065e-12</wgt>
  <wgt id="607">6.83023e-12</wgt>
  <wgt id="608">6.64757e-12</wgt>
  <wgt id="609">6.34188e-12</wgt>
  <wgt id="610">6.00485e-12</wgt>
  <wgt id="611">5.92171e-12</wgt>
  <wgt id="612">6.42372e-12</wgt>
  <wgt id="613">5.9769e-12</wgt>
  <wgt id="614">6.33259e-12</wgt>
  <wgt id="615">6.62401e-12</wgt>
  <wgt id="616">5.82508e-12</wgt>
  <wgt id="617">6.6841e-12</wgt>
  <wgt id="618">7.08949e-12</wgt>
  <wgt id="619">6.23284e-12</wgt>
  <wgt id="620">6.55526e-12</wgt>
  <wgt id="621">6.25962e-12</wgt>
  <wgt id="622">6.52366e-12</wgt>
  <wgt id="623">6.32383e-12</wgt>
  <wgt id="624">6.39058e-12</wgt>
  <wgt id="625">5.9998e-12</wgt>
  <wgt id="626">5.34551e-12</wgt>
  <wgt id="627">5.5977e-12</wgt>
  <wgt id="628">6.30382e-12</wgt>
  <wgt id="629">6.8921e-12</wgt>
  <wgt id="630">6.16436e-12</wgt>
  <wgt id="631">6.64615e-12</wgt>
  <wgt id="632">5.72915e-12</wgt>
  <wgt id="633">6.32735e-12</wgt>
  <wgt id="634">5.98358e-12</wgt>
  <wgt id="635">5.82413e-12</wgt>
  <wgt id="636">6.39306e-12</wgt>
  <wgt id="637">6.33199e-12</wgt>
  <wgt id="638">6.00894e-12</wgt>
  <wgt id="639">5.97889e-12</wgt>
  <wgt id="640">6.10773e-12</wgt>
  <wgt id="641">6.77505e-12</wgt>
  <wgt id="642">5.5113e-12</wgt>
  <wgt id="643">6.12778e-12</wgt>
  <wgt id="644">5.70575e-12</wgt>
  <wgt id="645">6.35927e-12</wgt>
  <wgt id="646">5.56643e-12</wgt>
  <wgt id="647">6.59161e-12</wgt>
  <wgt id="648">6.8118e-12</wgt>
  <wgt id="649">6.41073e-12</wgt>
  <wgt id="650">6.11701e-12</wgt>
  <wgt id="651">6.85916e-12</wgt>
  <wgt id="652">5.99737e-12</wgt>
  <wgt id="653">6.05029e-12</wgt>
  <wgt id="654">6.5345e-12</wgt>
  <wgt id="655">5.98751e-12</wgt>
  <wgt id="656">6.44471e-12</wgt>
  <wgt id="657">7.10686e-12</wgt>
  <wgt id="658">6.25999e-12</wgt>
  <wgt id="659">6.11268e-12</wgt>
  <wgt id="660">6.00007e-12</wgt>
  <wgt id="661">6.14882e-12</wgt>
  <wgt id="662">6.27779e-12</wgt>
  <wgt id="663">6.56201e-12</wgt>
  <wgt id="664">6.57956e-12</wgt>
  <wgt id="665">6.2327e-12</wgt>
  <wgt id="666">6.16945e-12</wgt>
  <wgt id="667">6.76808e-12</wgt>
  <wgt id="668">6.22913e-12</wgt>
  <wgt id="669">6.25428e-12</wgt>
  <wgt id="670">6.76654e-12</wgt>
  <wgt id="671">6.52283e-12</wgt>
  <wgt id="672">6.36413e-12</wgt>
  <wgt id="673">6.96957e-12</wgt>
  <wgt id="674">6.1327e-12</wgt>
  <wgt id="675">6.04023e-12</wgt>
  <wgt id="676">8.30187e-12</wgt>
  <wgt id="677">8.37269e-12</wgt>
  <wgt id="678">9.30552e-12</wgt>
  <wgt id="679">8.95473e-12</wgt>
  <wgt id="680">8.44415e-12</wgt>
  <wgt id="681">7.97937e-12</wgt>
  <wgt id="682">8.84263e-12</wgt>
  <wgt id="683">7.33364e-12</wgt>
  <wgt id="684">8.86696e-12</wgt>
  <wgt id="685">8.43046e-12</wgt>
  <wgt id="686">8.6874e-12</wgt>
  <wgt id="687">8.438e-12</wgt>
  <wgt id="688">8.04071e-12</wgt>
  <wgt id="689">8.76574e-12</wgt>
  <wgt id="690">8.50239e-12</wgt>
  <wgt id="691">8.48845e-12</wgt>
  <wgt id="692">8.0193e-12</wgt>
  <wgt id="693">1.16599e-11</wgt>
  <wgt id="694">9.32543e-12</wgt>
  <wgt id="695">7.59147e-12</wgt>
  <wgt id="696">7.85336e-12</wgt>
  <wgt id="697">7.22649e-12</wgt>
  <wgt id="698">6.49552e-12</wgt>
  <wgt id="699">6.89712e-12</wgt>
  <wgt id="700">7.33162e-12</wgt>
  <wgt id="701">8.28832e-12</wgt>
  <wgt id="702">7.82932e-12</wgt>
  <wgt id="703">1.07707e-11</wgt>
  <wgt id="704">9.44306e-12</wgt>
  <wgt id="705">9.47403e-12</wgt>
  <wgt id="706">7.61504e-12</wgt>
  <wgt id="707">7.6561e-12</wgt>
  <wgt id="708">7.69677e-12</wgt>
  <wgt id="709">7.92901e-12</wgt>
  <wgt id="710">6.44798e-12</wgt>
  <wgt id="711">9.18051e-12</wgt>
  <wgt id="712">7.66077e-12</wgt>
  <wgt id="713">8.96861e-12</wgt>
  <wgt id="714">7.15988e-12</wgt>
  <wgt id="715">7.76997e-12</wgt>
  <wgt id="716">7.91941e-12</wgt>
  <wgt id="717">6.90202e-12</wgt>
  <wgt id="718">8.54e-12</wgt>
  <wgt id="719">7.61779e-12</wgt>
  <wgt id="720">8.77024e-12</wgt>
  <wgt id="721">6.9346e-12</wgt>
  <wgt id="722">6.09156e-12</wgt>
  <wgt id="723">9.63977e-12</wgt>
  <wgt id="724">9.17336e-12</wgt>
  <wgt id="725">8.70004e-12</wgt>
  <wgt id="726">8.20809e-12</wgt>
  <wgt id="727">8.433e-12</wgt>
  <wgt id="728">8.29979e-12</wgt>
  <wgt id="729">7.20687e-12</wgt>
  <wgt id="730">9.40896e-12</wgt>
  <wgt id="731">8.18778e-12</wgt>
  <wgt id="732">9.89746e-12</wgt>
  <wgt id="733">7.53371e-12</wgt>
  <wgt id="734">8.63819e-12</wgt>
  <wgt id="735">8.18807e-12</wgt>
  <wgt id="736">7.49935e-12</wgt>
  <wgt id="737">7.16096e-12</wgt>
  <wgt id="738">7.84257e-12</wgt>
  <wgt id="739">8.70913e-12</wgt>
  <wgt id="740">1.01887e-11</wgt>
  <wgt id="741">9.18583e-12</wgt>
  <wgt id="742">7.6327e-12</wgt>
  <wgt id="743">7.48939e-12</wgt>
  <wgt id="744">8.08428e-12</wgt>
  <wgt id="745">9.32228e-12</wgt>
  <wgt id="746">9.61204e-12</wgt>
  <wgt id="747">6.65441e-12</wgt>
  <wgt id="748">7.89876e-12</wgt>
  <wgt id="749">8.67584e-12</wgt>
  <wgt id="750">9.1135e-12</wgt>
  <wgt id="751">8.36432e-12</wgt>
  <wgt id="752">7.3592e-12</wgt>
  <wgt id="753">7.24981e-12</wgt>
  <wgt id="754">8.72536e-12</wgt>
  <wgt id="755">7.98892e-12</wgt>
  <wgt id="756">7.93456e-12</wgt>
  <wgt id="757">6.91548e-12</wgt>
  <wgt id="758">7.98907e-12</wgt>
  <wgt id="759">9.17929e-12</wgt>
  <wgt id="760">7.7358e-12</wgt>
  <wgt id="761">9.47839e-12</wgt>
  <wgt id="762">9.53621e-12</wgt>
  <wgt id="763">8.75563e-12</wgt>
  <wgt id="764">9.06345e-12</wgt>
  <wgt id="765">8.50996e-12</wgt>
  <wgt id="766">8.51682e-12</wgt>
  <wgt id="767">8.51844e-12</wgt>
  <wgt id="768">7.38588e-12</wgt>
  <wgt id="769">8.68834e-12</wgt>
  <wgt id="770">7.48266e-12</wgt>
  <wgt id="771">1.04819e-11</wgt>
  <wgt id="772">8.08729e-12</wgt>
  <wgt id="773">8.44802e-12</wgt>
  <wgt id="774">6.34886e-12</wgt>
  <wgt id="775">8.7547e-12</wgt>
  <wgt id="776">1.00921e-11</wgt>
  <wgt id="777">6.97691e-12</wgt>
  <wgt id="778">5.03442e-12</wgt>
  <wgt id="779">2.50384e-12</wgt>
  <wgt id="780">9.20477e-13</wgt>
  <wgt id="781">5.6291e-12</wgt>
  <wgt id="782">6.34704e-12</wgt>
  <wgt id="783">1.8246e-12</wgt>
  <wgt id="784">2.90185e-12</wgt>
  <wgt id="785">8.07679e-12</wgt>
  <wgt id="786">1.72429e-12</wgt>
  <wgt id="787">7.10929e-12</wgt>
  <wgt id="788">2.10454e-20</wgt>
  <wgt id="789">2.85701e-12</wgt>
  <wgt id="790">1.9907e-12</wgt>
  <wgt id="791">6.26195e-12</wgt>
  <wgt id="792">7.02485e-12</wgt>
  <wgt id="793">4.38598e-12</wgt>
  <wgt id="794">1.61891e-12</wgt>
  <wgt id="795">7.68989e-12</wgt>
  <wgt id="796">7.7948e-12</wgt>
  <wgt id="797">6.82462e-12</wgt>
  <wgt id="798">3.34962e-12</wgt>
  <wgt id="799">7.04577e-12</wgt>
  <wgt id="800">3.4962e-12</wgt>
  <wgt id="801">5.40512e-12</wgt>
  <wgt id="802">1.55647e-12</wgt>
  <wgt id="803">8.58138e-12</wgt>
  <wgt id="804">7.86115e-12</wgt>
  <wgt id="805">7.42383e-12</wgt>
  <wgt id="806">5.84763e-12</wgt>
  <wgt id="807">5.097e-12</wgt>
  <wgt id="808">4.96989e-12</wgt>
  <wgt id="809">4.37597e-12</wgt>
  <wgt id="810">7.31009e-12</wgt>
  <wgt id="811">5.35134e-12</wgt>
  <wgt id="812">2.03038e-12</wgt>
  <wgt id="813">2.30912e-12</wgt>
  <wgt id="814">3.01906e-12</wgt>
  <wgt id="815">1.98921e-12</wgt>
  <wgt id="816">2.68736e-12</wgt>
  <wgt id="817">5.22783e-12</wgt>
  <wgt id="818">7.69656e-12</wgt>
  <wgt id="819">2.39908e-12</wgt>
  <wgt id="820">4.53604e-12</wgt>
  <wgt id="821">6.49411e-12</wgt>
  <wgt id="822">3.87851e-12</wgt>
  <wgt id="823">7.08164e-12</wgt>
  <wgt id="824">7.89335e-12</wgt>
  <wgt id="825">1.17215e-12</wgt>
  <wgt id="826">7.20622e-12</wgt>
  <wgt id="827">1.28274e-12</wgt>
  <wgt id="828">6.74666e-12</wgt>
  <wgt id="829">5.26716e-12</wgt>
  <wgt id="830">1.1813e-12</wgt>
  <wgt id="831">6.48941e-12</wgt>
  <wgt id="832">1.00151e-11</wgt>
  <wgt id="833">3.63984e-12</wgt>
  <wgt id="834">9.96201e-12</wgt>
  <wgt id="835">2.8977e-12</wgt>
  <wgt id="836">3.60195e-12</wgt>
  <wgt id="837">6.31326e-12</wgt>
  <wgt id="838">3.48854e-12</wgt>
  <wgt id="839">6.58131e-12</wgt>
  <wgt id="840">4.10977e-12</wgt>
  <wgt id="841">7.76892e-12</wgt>
  <wgt id="842">5.4086e-12</wgt>
  <wgt id="843">5.56476e-12</wgt>
  <wgt id="844">6.04577e-12</wgt>
  <wgt id="845">1.04554e-11</wgt>
  <wgt id="846">4.60223e-12</wgt>
  <wgt id="847">5.73942e-12</wgt>
  <wgt id="848">2.06389e-12</wgt>
  <wgt id="849">5.95692e-12</wgt>
  <wgt id="850">8.87917e-12</wgt>
  <wgt id="851">6.46791e-12</wgt>
  <wgt id="852">1.31405e-12</wgt>
  <wgt id="853">6.85489e-12</wgt>
  <wgt id="854">8.00814e-12</wgt>
  <wgt id="855">6.61179e-12</wgt>
  <wgt id="856">1.13662e-12</wgt>
  <wgt id="857">3.92056e-12</wgt>
  <wgt id="858">4.98896e-12</wgt>
  <wgt id="859">4.92767e-12</wgt>
  <wgt id="860">7.04553e-12</wgt>
  <wgt id="861">3.78623e-12</wgt>
  <wgt id="862">5.3641e-12</wgt>
  <wgt id="863">6.31359e-12</wgt>
  <wgt id="864">5.1854e-12</wgt>
  <wgt id="865">9.13996e-12</wgt>
  <wgt id="866">1.00821e-11</wgt>
  <wgt id="867">5.11843e-12</wgt>
  <wgt id="868">5.61849e-12</wgt>
  <wgt id="869">1.92977e-12</wgt>
  <wgt id="870">2.9515e-12</wgt>
  <wgt id="871">3.31358e-12</wgt>
  <wgt id="872">8.44889e-12</wgt>
  <wgt id="873">3.70793e-12</wgt>
  <wgt id="874">5.9749e-12</wgt>
  <wgt id="875">3.37013e-12</wgt>
  <wgt id="876">7.87492e-12</wgt>
  <wgt id="877">6.04152e-12</wgt>
  <wgt id="878">3.92603e-12</wgt>
  <wgt id="879">8.30187e-12</wgt>
  <wgt id="880">8.37269e-12</wgt>
  <wgt id="881">9.30552e-12</wgt>
  <wgt id="882">8.95473e-12</wgt>
  <wgt id="883">8.44415e-12</wgt>
  <wgt id="884">7.97937e-12</wgt>
  <wgt id="885">8.84263e-12</wgt>
  <wgt id="886">7.33364e-12</wgt>
  <wgt id="887">8.86696e-12</wgt>
  <wgt id="888">8.43046e-12</wgt>
  <wgt id="889">8.6874e-12</wgt>
  <wgt id="890">8.438e-12</wgt>
  <wgt id="891">8.04071e-12</wgt>
  <wgt id="892">8.76574e-12</wgt>
  <wgt id="893">8.50239e-12</wgt>
  <wgt id="894">8.48845e-12</wgt>
  <wgt id="895">8.0193e-12</wgt>
  <wgt id="896">1.16599e-11</wgt>
  <wgt id="897">9.32543e-12</wgt>
  <wgt id="898">7.59147e-12</wgt>
  <wgt id="899">7.85336e-12</wgt>
  <wgt id="900">7.22649e-12</wgt>
  <wgt id="901">6.49552e-12</wgt>
  <wgt id="902">6.89712e-12</wgt>
  <wgt id="903">7.33162e-12</wgt>
  <wgt id="904">8.28832e-12</wgt>
  <wgt id="905">7.82932e-12</wgt>
  <wgt id="906">1.07707e-11</wgt>
  <wgt id="907">9.44306e-12</wgt>
  <wgt id="908">9.47403e-12</wgt>
  <wgt id="909">7.61504e-12</wgt>
  <wgt id="910">7.6561e-12</wgt>
  <wgt id="911">7.69677e-12</wgt>
  <wgt id="912">7.92901e-12</wgt>
  <wgt id="913">6.44798e-12</wgt>
  <wgt id="914">9.18051e-12</wgt>
  <wgt id="915">7.66077e-12</wgt>
  <wgt id="916">8.96861e-12</wgt>
  <wgt id="917">7.15988e-12</wgt>
  <wgt id="918">7.76997e-12</wgt>
  <wgt id="919">7.91941e-12</wgt>
  <wgt id="920">6.90202e-12</wgt>
  <wgt id="921">8.54e-12</wgt>
  <wgt id="922">7.61779e-12</wgt>
  <wgt id="923">8.77024e-12</wgt>
  <wgt id="924">6.9346e-12</wgt>
  <wgt id="925">6.09156e-12</wgt>
  <wgt id="926">9.63977e-12</wgt>
  <wgt id="927">9.17336e-12</wgt>
  <wgt id="928">8.70004e-12</wgt>
  <wgt id="929">8.20809e-12</wgt>
  <wgt id="930">8.433e-12</wgt>
  <wgt id="931">8.29979e-12</wgt>
  <wgt id="932">7.20687e-12</wgt>
  <wgt id="933">9.40896e-12</wgt>
  <wgt id="934">8.18778e-12</wgt>
  <wgt id="935">9.89746e-12</wgt>
  <wgt id="936">7.53371e-12</wgt>
  <wgt id="937">8.63819e-12</wgt>
  <wgt id="938">8.18807e-12</wgt>
  <wgt id="939">7.49935e-12</wgt>
  <wgt id="940">7.16096e-12</wgt>
  <wgt id="941">7.84257e-12</wgt>
  <wgt id="942">8.70913e-12</wgt>
  <wgt id="943">1.01887e-11</wgt>
  <wgt id="944">9.18583e-12</wgt>
  <wgt id="945">7.6327e-12</wgt>
  <wgt id="946">7.48939e-12</wgt>
  <wgt id="947">8.08428e-12</wgt>
  <wgt id="948">9.32228e-12</wgt>
  <wgt id="949">9.61204e-12</wgt>
  <wgt id="950">6.65441e-12</wgt>
  <wgt id="951">7.89876e-12</wgt>
  <wgt id="952">8.67584e-12</wgt>
  <wgt id="953">9.1135e-12</wgt>
  <wgt id="954">8.36432e-12</wgt>
  <wgt id="955">7.3592e-12</wgt>
  <wgt id="956">7.24981e-12</wgt>
  <wgt id="957">8.72536e-12</wgt>
  <wgt id="958">7.98892e-12</wgt>
  <wgt id="959">7.93456e-12</wgt>
  <wgt id="960">6.91548e-12</wgt>
  <wgt id="961">7.98907e-12</wgt>
  <wgt id="962">9.17929e-12</wgt>
  <wgt id="963">7.7358e-12</wgt>
  <wgt id="964">9.47839e-12</wgt>
  <wgt id="965">9.53621e-12</wgt>
  <wgt id="966">8.75563e-12</wgt>
  <wgt id="967">9.06345e-12</wgt>
  <wgt id="968">8.50996e-12</wgt>
  <wgt id="969">8.51682e-12</wgt>
  <wgt id="970">8.51844e-12</wgt>
  <wgt id="971">7.38588e-12</wgt>
  <wgt id="972">8.68834e-12</wgt>
  <wgt id="973">7.48266e-12</wgt>
  <wgt id="974">1.04819e-11</wgt>
  <wgt id="975">8.08729e-12</wgt>
  <wgt id="976">8.44802e-12</wgt>
  <wgt id="977">6.34886e-12</wgt>
  <wgt id="978">8.7547e-12</wgt>
  <wgt id="979">1.00921e-11</wgt>
  <wgt id="980">8.23102e-12</wgt>
  <wgt id="981">8.57756e-12</wgt>
  <wgt id="982">8.07315e-12</wgt>
</rwgt>
</event>
<event>
 5   1  0.5790000E-11  0.2177666E+04  0.7818608E-02  0.7757334E-01
       21   -1    0    0  502  501  0.00000000000E+00  0.00000000000E+00  0.10204571990E+04  0.10204571990E+04  0.00000000000E+00 0. -1.
       21   -1    0    0  501  502 -0.00000000000E+00 -0.00000000000E+00 -0.11617904392E+04  0.11617904392E+04  0.00000000000E+00 0.  1.
       39    2    1    2    0    0  0.00000000000E+00  0.00000000000E+00 -0.14133324019E+03  0.21822476382E+04  0.21776661061E+04 0.  0.
       25    1    3    3    0    0  0.92139893534E+03  0.55944040403E+03 -0.16020141138E+03  0.10969225387E+04  0.12500000000E+03 0.  0.
       25    1    3    3    0    0 -0.92139893534E+03 -0.55944040403E+03  0.18868171196E+02  0.10853250995E+04  0.12500000000E+03 0.  0.
<mgrwt>
<rscale>  0 0.21776661E+04</rscale>
<asrwt>0</asrwt>
<pdfrwt beam="1">  1       21 0.15699342E+00 0.21776661E+04</pdfrwt>
<pdfrwt beam="2">  1       21 0.17873699E+00 0.21776661E+04</pdfrwt>
<totfact> 0.20292635E+01</totfact>
</mgrwt>
<rwgt>
  <wgt id="1">5.79e-12</wgt>
  <wgt id="2">5.05869e-12</wgt>
  <wgt id="3">6.69425e-12</wgt>
  <wgt id="4">5.79e-12</wgt>
  <wgt id="5">5.05869e-12</wgt>
  <wgt id="6">6.69425e-12</wgt>
  <wgt id="7">5.79e-12</wgt>
  <wgt id="8">5.05869e-12</wgt>
  <wgt id="9">6.69425e-12</wgt>
  <wgt id="10">5.94805e-12</wgt>
  <wgt id="11">5.94192e-12</wgt>
  <wgt id="12">5.93631e-12</wgt>
  <wgt id="13">5.92751e-12</wgt>
  <wgt id="14">5.96908e-12</wgt>
  <wgt id="15">5.95619e-12</wgt>
  <wgt id="16">5.93422e-12</wgt>
  <wgt id="17">5.95682e-12</wgt>
  <wgt id="18">5.9403e-12</wgt>
  <wgt id="19">5.96026e-12</wgt>
  <wgt id="20">5.93002e-12</wgt>
  <wgt id="21">5.91826e-12</wgt>
  <wgt id="22">5.93184e-12</wgt>
  <wgt id="23">5.8995e-12</wgt>
  <wgt id="24">5.92321e-12</wgt>
  <wgt id="25">5.93365e-12</wgt>
  <wgt id="26">5.97334e-12</wgt>
  <wgt id="27">5.94777e-12</wgt>
  <wgt id="28">5.9203e-12</wgt>
  <wgt id="29">5.95477e-12</wgt>
  <wgt id="30">5.93483e-12</wgt>
  <wgt id="31">5.9626e-12</wgt>
  <wgt id="32">5.93631e-12</wgt>
  <wgt id="33">5.96084e-12</wgt>
  <wgt id="34">5.93188e-12</wgt>
  <wgt id="35">5.9416e-12</wgt>
  <wgt id="36">5.9611e-12</wgt>
  <wgt id="37">5.93298e-12</wgt>
  <wgt id="38">5.9342e-12</wgt>
  <wgt id="39">6.00661e-12</wgt>
  <wgt id="40">5.96408e-12</wgt>
  <wgt id="41">5.94679e-12</wgt>
  <wgt id="42">5.96868e-12</wgt>
  <wgt id="43">5.95468e-12</wgt>
  <wgt id="44">5.92081e-12</wgt>
  <wgt id="45">5.95685e-12</wgt>
  <wgt id="46">5.95555e-12</wgt>
  <wgt id="47">5.91933e-12</wgt>
  <wgt id="48">5.94919e-12</wgt>
  <wgt id="49">5.97574e-12</wgt>
  <wgt id="50">5.99004e-12</wgt>
  <wgt id="51">5.97478e-12</wgt>
  <wgt id="52">5.9227e-12</wgt>
  <wgt id="53">5.91261e-12</wgt>
  <wgt id="54">5.93563e-12</wgt>
  <wgt id="55">5.9463e-12</wgt>
  <wgt id="56">5.96437e-12</wgt>
  <wgt id="57">5.96887e-12</wgt>
  <wgt id="58">5.90619e-12</wgt>
  <wgt id="59">5.92823e-12</wgt>
  <wgt id="60">5.94834e-12</wgt>
  <wgt id="61">5.94608e-12</wgt>
  <wgt id="62">5.95091e-12</wgt>
  <wgt id="63">5.95823e-12</wgt>
  <wgt id="64">5.95519e-12</wgt>
  <wgt id="65">5.95211e-12</wgt>
  <wgt id="66">5.94131e-12</wgt>
  <wgt id="67">5.945e-12</wgt>
  <wgt id="68">5.9418e-12</wgt>
  <wgt id="69">5.94518e-12</wgt>
  <wgt id="70">5.94323e-12</wgt>
  <wgt id="71">5.94395e-12</wgt>
  <wgt id="72">5.94261e-12</wgt>
  <wgt id="73">5.95295e-12</wgt>
  <wgt id="74">5.95093e-12</wgt>
  <wgt id="75">5.94952e-12</wgt>
  <wgt id="76">5.96268e-12</wgt>
  <wgt id="77">5.94712e-12</wgt>
  <wgt id="78">5.94989e-12</wgt>
  <wgt id="79">5.95675e-12</wgt>
  <wgt id="80">5.92532e-12</wgt>
  <wgt id="81">5.94083e-12</wgt>
  <wgt id="82">5.94825e-12</wgt>
  <wgt id="83">5.92897e-12</wgt>
  <wgt id="84">5.93625e-12</wgt>
  <wgt id="85">5.94052e-12</wgt>
  <wgt id="86">5.95752e-12</wgt>
  <wgt id="87">5.9245e-12</wgt>
  <wgt id="88">5.95375e-12</wgt>
  <wgt id="89">5.95276e-12</wgt>
  <wgt id="90">5.95376e-12</wgt>
  <wgt id="91">5.95136e-12</wgt>
  <wgt id="92">5.95733e-12</wgt>
  <wgt id="93">5.94706e-12</wgt>
  <wgt id="94">5.94406e-12</wgt>
  <wgt id="95">5.95072e-12</wgt>
  <wgt id="96">5.95151e-12</wgt>
  <wgt id="97">5.94193e-12</wgt>
  <wgt id="98">5.95101e-12</wgt>
  <wgt id="99">5.94639e-12</wgt>
  <wgt id="100">5.9538e-12</wgt>
  <wgt id="101">5.94648e-12</wgt>
  <wgt id="102">5.94317e-12</wgt>
  <wgt id="103">5.95478e-12</wgt>
  <wgt id="104">5.94361e-12</wgt>
  <wgt id="105">5.95218e-12</wgt>
  <wgt id="106">5.94211e-12</wgt>
  <wgt id="107">5.96123e-12</wgt>
  <wgt id="108">5.94291e-12</wgt>
  <wgt id="109">5.95122e-12</wgt>
  <wgt id="110">5.9465e-12</wgt>
  <wgt id="111">6.02145e-12</wgt>
  <wgt id="112">5.93047e-12</wgt>
  <wgt id="113">7.80739e-12</wgt>
  <wgt id="114">8.14953e-12</wgt>
  <wgt id="115">8.04091e-12</wgt>
  <wgt id="116">1.09939e-11</wgt>
  <wgt id="117">6.54022e-12</wgt>
  <wgt id="118">6.56122e-12</wgt>
  <wgt id="119">6.52846e-12</wgt>
  <wgt id="120">6.54101e-12</wgt>
  <wgt id="121">6.53975e-12</wgt>
  <wgt id="122">6.52844e-12</wgt>
  <wgt id="123">6.55658e-12</wgt>
  <wgt id="124">6.53078e-12</wgt>
  <wgt id="125">6.54656e-12</wgt>
  <wgt id="126">6.55134e-12</wgt>
  <wgt id="127">6.53298e-12</wgt>
  <wgt id="128">6.56087e-12</wgt>
  <wgt id="129">6.51978e-12</wgt>
  <wgt id="130">6.57816e-12</wgt>
  <wgt id="131">6.50148e-12</wgt>
  <wgt id="132">6.37636e-12</wgt>
  <wgt id="133">6.73314e-12</wgt>
  <wgt id="134">6.47324e-12</wgt>
  <wgt id="135">6.59246e-12</wgt>
  <wgt id="136">6.61809e-12</wgt>
  <wgt id="137">6.44595e-12</wgt>
  <wgt id="138">6.77661e-12</wgt>
  <wgt id="139">6.31034e-12</wgt>
  <wgt id="140">6.49499e-12</wgt>
  <wgt id="141">6.57584e-12</wgt>
  <wgt id="142">6.54149e-12</wgt>
  <wgt id="143">6.54736e-12</wgt>
  <wgt id="144">6.3861e-12</wgt>
  <wgt id="145">6.68095e-12</wgt>
  <wgt id="146">6.58917e-12</wgt>
  <wgt id="147">6.50229e-12</wgt>
  <wgt id="148">6.5587e-12</wgt>
  <wgt id="149">6.53902e-12</wgt>
  <wgt id="150">6.59537e-12</wgt>
  <wgt id="151">6.51454e-12</wgt>
  <wgt id="152">6.54285e-12</wgt>
  <wgt id="153">6.53928e-12</wgt>
  <wgt id="154">6.6e-12</wgt>
  <wgt id="155">6.4707e-12</wgt>
  <wgt id="156">6.64252e-12</wgt>
  <wgt id="157">6.42423e-12</wgt>
  <wgt id="158">7.87135e-12</wgt>
  <wgt id="159">7.90387e-12</wgt>
  <wgt id="160">7.84509e-12</wgt>
  <wgt id="161">7.85283e-12</wgt>
  <wgt id="162">7.89197e-12</wgt>
  <wgt id="163">7.86354e-12</wgt>
  <wgt id="164">7.88324e-12</wgt>
  <wgt id="165">7.87454e-12</wgt>
  <wgt id="166">7.86921e-12</wgt>
  <wgt id="167">7.86563e-12</wgt>
  <wgt id="168">7.8796e-12</wgt>
  <wgt id="169">7.83747e-12</wgt>
  <wgt id="170">7.89273e-12</wgt>
  <wgt id="171">7.86314e-12</wgt>
  <wgt id="172">7.88311e-12</wgt>
  <wgt id="173">7.87334e-12</wgt>
  <wgt id="174">7.87038e-12</wgt>
  <wgt id="175">7.65986e-12</wgt>
  <wgt id="176">8.14605e-12</wgt>
  <wgt id="177">7.91093e-12</wgt>
  <wgt id="178">7.83464e-12</wgt>
  <wgt id="179">8.17537e-12</wgt>
  <wgt id="180">7.38865e-12</wgt>
  <wgt id="181">7.6577e-12</wgt>
  <wgt id="182">8.01207e-12</wgt>
  <wgt id="183">7.74048e-12</wgt>
  <wgt id="184">7.9365e-12</wgt>
  <wgt id="185">7.81255e-12</wgt>
  <wgt id="186">7.94071e-12</wgt>
  <wgt id="187">7.80461e-12</wgt>
  <wgt id="188">7.99204e-12</wgt>
  <wgt id="189">7.8251e-12</wgt>
  <wgt id="190">7.89044e-12</wgt>
  <wgt id="191">7.89101e-12</wgt>
  <wgt id="192">7.85991e-12</wgt>
  <wgt id="193">7.97452e-12</wgt>
  <wgt id="194">7.82041e-12</wgt>
  <wgt id="195">7.7158e-12</wgt>
  <wgt id="196">8.16811e-12</wgt>
  <wgt id="197">7.90826e-12</wgt>
  <wgt id="198">7.86266e-12</wgt>
  <wgt id="199">7.87135e-12</wgt>
  <wgt id="200">7.93511e-12</wgt>
  <wgt id="201">7.9112e-12</wgt>
  <wgt id="202">7.88853e-12</wgt>
  <wgt id="203">7.85363e-12</wgt>
  <wgt id="204">7.83727e-12</wgt>
  <wgt id="205">7.82368e-12</wgt>
  <wgt id="206">7.66242e-12</wgt>
  <wgt id="207">7.70661e-12</wgt>
  <wgt id="208">7.6188e-12</wgt>
  <wgt id="209">7.68334e-12</wgt>
  <wgt id="210">7.64712e-12</wgt>
  <wgt id="211">7.66018e-12</wgt>
  <wgt id="212">7.66429e-12</wgt>
  <wgt id="213">7.66172e-12</wgt>
  <wgt id="214">7.66357e-12</wgt>
  <wgt id="215">7.66748e-12</wgt>
  <wgt id="216">7.65894e-12</wgt>
  <wgt id="217">7.68378e-12</wgt>
  <wgt id="218">7.64622e-12</wgt>
  <wgt id="219">7.65289e-12</wgt>
  <wgt id="220">7.66819e-12</wgt>
  <wgt id="221">7.65851e-12</wgt>
  <wgt id="222">7.67201e-12</wgt>
  <wgt id="223">7.27753e-12</wgt>
  <wgt id="224">8.01191e-12</wgt>
  <wgt id="225">7.57667e-12</wgt>
  <wgt id="226">7.76991e-12</wgt>
  <wgt id="227">7.59361e-12</wgt>
  <wgt id="228">7.69264e-12</wgt>
  <wgt id="229">7.56063e-12</wgt>
  <wgt id="230">7.71308e-12</wgt>
  <wgt id="231">7.86728e-12</wgt>
  <wgt id="232">7.49374e-12</wgt>
  <wgt id="233">7.62553e-12</wgt>
  <wgt id="234">7.71824e-12</wgt>
  <wgt id="235">7.5475e-12</wgt>
  <wgt id="236">7.78004e-12</wgt>
  <wgt id="237">7.57718e-12</wgt>
  <wgt id="238">7.69197e-12</wgt>
  <wgt id="239">7.62425e-12</wgt>
  <wgt id="240">7.73223e-12</wgt>
  <wgt id="241">7.59092e-12</wgt>
  <wgt id="242">7.74866e-12</wgt>
  <wgt id="243">7.73418e-12</wgt>
  <wgt id="244">7.71553e-12</wgt>
  <wgt id="245">7.65592e-12</wgt>
  <wgt id="246">7.72311e-12</wgt>
  <wgt id="247">7.66242e-12</wgt>
  <wgt id="248">7.72453e-12</wgt>
  <wgt id="249">7.70034e-12</wgt>
  <wgt id="250">7.67829e-12</wgt>
  <wgt id="251">7.64444e-12</wgt>
  <wgt id="252">7.62872e-12</wgt>
  <wgt id="253">7.61712e-12</wgt>
  <wgt id="254">7.5129e-12</wgt>
  <wgt id="255">7.52039e-12</wgt>
  <wgt id="256">7.5051e-12</wgt>
  <wgt id="257">7.51883e-12</wgt>
  <wgt id="258">7.50861e-12</wgt>
  <wgt id="259">7.56304e-12</wgt>
  <wgt id="260">7.46485e-12</wgt>
  <wgt id="261">7.52127e-12</wgt>
  <wgt id="262">7.50323e-12</wgt>
  <wgt id="263">7.51042e-12</wgt>
  <wgt id="264">7.51595e-12</wgt>
  <wgt id="265">7.50513e-12</wgt>
  <wgt id="266">7.52829e-12</wgt>
  <wgt id="267">7.51528e-12</wgt>
  <wgt id="268">7.51e-12</wgt>
  <wgt id="269">7.53498e-12</wgt>
  <wgt id="270">7.49802e-12</wgt>
  <wgt id="271">7.5012e-12</wgt>
  <wgt id="272">7.52631e-12</wgt>
  <wgt id="273">7.49052e-12</wgt>
  <wgt id="274">7.53027e-12</wgt>
  <wgt id="275">7.48588e-12</wgt>
  <wgt id="276">7.54078e-12</wgt>
  <wgt id="277">7.47233e-12</wgt>
  <wgt id="278">7.55038e-12</wgt>
  <wgt id="279">7.37598e-12</wgt>
  <wgt id="280">7.68421e-12</wgt>
  <wgt id="281">7.48261e-12</wgt>
  <wgt id="282">7.51322e-12</wgt>
  <wgt id="283">7.31458e-12</wgt>
  <wgt id="284">7.75622e-12</wgt>
  <wgt id="285">7.18174e-12</wgt>
  <wgt id="286">7.7845e-12</wgt>
  <wgt id="287">7.53465e-12</wgt>
  <wgt id="288">7.48509e-12</wgt>
  <wgt id="289">7.56111e-12</wgt>
  <wgt id="290">7.39841e-12</wgt>
  <wgt id="291">7.49619e-12</wgt>
  <wgt id="292">7.51718e-12</wgt>
  <wgt id="293">7.45998e-12</wgt>
  <wgt id="294">7.56558e-12</wgt>
  <wgt id="295">7.38125e-12</wgt>
  <wgt id="296">7.67336e-12</wgt>
  <wgt id="297">7.51783e-12</wgt>
  <wgt id="298">7.53539e-12</wgt>
  <wgt id="299">7.4908e-12</wgt>
  <wgt id="300">7.57131e-12</wgt>
  <wgt id="301">7.43528e-12</wgt>
  <wgt id="302">7.72868e-12</wgt>
  <wgt id="303">7.4681e-12</wgt>
  <wgt id="304">7.53949e-12</wgt>
  <wgt id="305">7.5576e-12</wgt>
  <wgt id="306">7.56543e-12</wgt>
  <wgt id="307">7.54954e-12</wgt>
  <wgt id="308">7.56436e-12</wgt>
  <wgt id="309">7.55313e-12</wgt>
  <wgt id="310">7.60968e-12</wgt>
  <wgt id="311">7.50955e-12</wgt>
  <wgt id="312">7.56356e-12</wgt>
  <wgt id="313">7.55211e-12</wgt>
  <wgt id="314">7.55531e-12</wgt>
  <wgt id="315">7.5601e-12</wgt>
  <wgt id="316">7.55035e-12</wgt>
  <wgt id="317">7.57378e-12</wgt>
  <wgt id="318">7.56263e-12</wgt>
  <wgt id="319">7.54941e-12</wgt>
  <wgt id="320">7.5806e-12</wgt>
  <wgt id="321">7.5449e-12</wgt>
  <wgt id="322">7.54155e-12</wgt>
  <wgt id="323">7.57665e-12</wgt>
  <wgt id="324">7.53892e-12</wgt>
  <wgt id="325">7.57418e-12</wgt>
  <wgt id="326">7.53595e-12</wgt>
  <wgt id="327">7.58546e-12</wgt>
  <wgt id="328">7.52052e-12</wgt>
  <wgt id="329">7.57898e-12</wgt>
  <wgt id="330">7.77103e-12</wgt>
  <wgt id="331">7.35374e-12</wgt>
  <wgt id="332">7.53253e-12</wgt>
  <wgt id="333">7.55698e-12</wgt>
  <wgt id="334">7.40049e-12</wgt>
  <wgt id="335">7.75193e-12</wgt>
  <wgt id="336">7.3158e-12</wgt>
  <wgt id="337">7.84973e-12</wgt>
  <wgt id="338">7.63514e-12</wgt>
  <wgt id="339">7.4858e-12</wgt>
  <wgt id="340">7.604e-12</wgt>
  <wgt id="341">7.43691e-12</wgt>
  <wgt id="342">7.54644e-12</wgt>
  <wgt id="343">7.55145e-12</wgt>
  <wgt id="344">7.50911e-12</wgt>
  <wgt id="345">7.61409e-12</wgt>
  <wgt id="346">7.42031e-12</wgt>
  <wgt id="347">7.71601e-12</wgt>
  <wgt id="348">7.56652e-12</wgt>
  <wgt id="349">7.57474e-12</wgt>
  <wgt id="350">7.52961e-12</wgt>
  <wgt id="351">7.62918e-12</wgt>
  <wgt id="352">7.46979e-12</wgt>
  <wgt id="353">7.78805e-12</wgt>
  <wgt id="354">7.48754e-12</wgt>
  <wgt id="355">7.6017e-12</wgt>
  <wgt id="356">7.5129e-12</wgt>
  <wgt id="357">7.59485e-12</wgt>
  <wgt id="358">7.5576e-12</wgt>
  <wgt id="359">7.54548e-12</wgt>
  <wgt id="360">7.54244e-12</wgt>
  <wgt id="361">7.53204e-12</wgt>
  <wgt id="362">7.65182e-12</wgt>
  <wgt id="363">7.63477e-12</wgt>
  <wgt id="364">7.61238e-12</wgt>
  <wgt id="365">7.5888e-12</wgt>
  <wgt id="366">7.56186e-12</wgt>
  <wgt id="367">7.50493e-12</wgt>
  <wgt id="368">7.47445e-12</wgt>
  <wgt id="369">7.44152e-12</wgt>
  <wgt id="370">7.53204e-12</wgt>
  <wgt id="371">7.56542e-12</wgt>
  <wgt id="372">7.54714e-12</wgt>
  <wgt id="373">7.51972e-12</wgt>
  <wgt id="374">7.51477e-12</wgt>
  <wgt id="375">7.92512e-12</wgt>
  <wgt id="376">7.92615e-12</wgt>
  <wgt id="377">7.92388e-12</wgt>
  <wgt id="378">7.95335e-12</wgt>
  <wgt id="379">7.89709e-12</wgt>
  <wgt id="380">7.94662e-12</wgt>
  <wgt id="381">7.91644e-12</wgt>
  <wgt id="382">7.96368e-12</wgt>
  <wgt id="383">7.88684e-12</wgt>
  <wgt id="384">7.93029e-12</wgt>
  <wgt id="385">7.92013e-12</wgt>
  <wgt id="386">7.9549e-12</wgt>
  <wgt id="387">7.91214e-12</wgt>
  <wgt id="388">7.91798e-12</wgt>
  <wgt id="389">7.93372e-12</wgt>
  <wgt id="390">7.94558e-12</wgt>
  <wgt id="391">7.9035e-12</wgt>
  <wgt id="392">7.87191e-12</wgt>
  <wgt id="393">7.95512e-12</wgt>
  <wgt id="394">7.93652e-12</wgt>
  <wgt id="395">7.90908e-12</wgt>
  <wgt id="396">7.92671e-12</wgt>
  <wgt id="397">7.9238e-12</wgt>
  <wgt id="398">7.892e-12</wgt>
  <wgt id="399">7.95705e-12</wgt>
  <wgt id="400">7.91271e-12</wgt>
  <wgt id="401">7.95272e-12</wgt>
  <wgt id="402">7.86614e-12</wgt>
  <wgt id="403">7.94815e-12</wgt>
  <wgt id="404">8.08995e-12</wgt>
  <wgt id="405">7.52566e-12</wgt>
  <wgt id="406">7.8064e-12</wgt>
  <wgt id="407">8.18046e-12</wgt>
  <wgt id="408">7.98601e-12</wgt>
  <wgt id="409">7.80746e-12</wgt>
  <wgt id="410">7.72905e-12</wgt>
  <wgt id="411">8.01419e-12</wgt>
  <wgt id="412">7.91273e-12</wgt>
  <wgt id="413">7.94195e-12</wgt>
  <wgt id="414">7.84699e-12</wgt>
  <wgt id="415">7.98567e-12</wgt>
  <wgt id="416">8.10731e-12</wgt>
  <wgt id="417">7.67276e-12</wgt>
  <wgt id="418">7.93429e-12</wgt>
  <wgt id="419">7.87515e-12</wgt>
  <wgt id="420">8.01067e-12</wgt>
  <wgt id="421">7.88233e-12</wgt>
  <wgt id="422">7.92477e-12</wgt>
  <wgt id="423">7.92746e-12</wgt>
  <wgt id="424">8.05345e-12</wgt>
  <wgt id="425">7.84785e-12</wgt>
  <wgt id="426">7.92512e-12</wgt>
  <wgt id="427">7.87525e-12</wgt>
  <wgt id="428">8.08612e-12</wgt>
  <wgt id="429">7.98304e-12</wgt>
  <wgt id="430">8.18805e-12</wgt>
  <wgt id="431">8.14749e-12</wgt>
  <wgt id="432">8.1084e-12</wgt>
  <wgt id="433">8.07056e-12</wgt>
  <wgt id="434">8.02575e-12</wgt>
  <wgt id="435">7.92956e-12</wgt>
  <wgt id="436">7.87966e-12</wgt>
  <wgt id="437">7.83281e-12</wgt>
  <wgt id="438">7.98304e-12</wgt>
  <wgt id="439">8.00932e-12</wgt>
  <wgt id="440">7.99417e-12</wgt>
  <wgt id="441">7.97465e-12</wgt>
  <wgt id="442">7.96734e-12</wgt>
  <wgt id="443">7.83549e-12</wgt>
  <wgt id="444">7.86789e-12</wgt>
  <wgt id="445">7.80289e-12</wgt>
  <wgt id="446">7.78947e-12</wgt>
  <wgt id="447">7.80759e-12</wgt>
  <wgt id="448">7.64485e-12</wgt>
  <wgt id="449">7.94346e-12</wgt>
  <wgt id="450">7.7977e-12</wgt>
  <wgt id="451">7.82533e-12</wgt>
  <wgt id="452">7.99218e-12</wgt>
  <wgt id="453">7.89514e-12</wgt>
  <wgt id="454">7.54646e-12</wgt>
  <wgt id="455">7.84258e-12</wgt>
  <wgt id="456">7.7108e-12</wgt>
  <wgt id="457">7.86321e-12</wgt>
  <wgt id="458">7.91407e-12</wgt>
  <wgt id="459">7.88115e-12</wgt>
  <wgt id="460">7.87236e-12</wgt>
  <wgt id="461">7.71592e-12</wgt>
  <wgt id="462">7.78147e-12</wgt>
  <wgt id="463">7.76415e-12</wgt>
  <wgt id="464">7.79923e-12</wgt>
  <wgt id="465">7.90377e-12</wgt>
  <wgt id="466">7.762e-12</wgt>
  <wgt id="467">7.77095e-12</wgt>
  <wgt id="468">7.81695e-12</wgt>
  <wgt id="469">7.81759e-12</wgt>
  <wgt id="470">7.77516e-12</wgt>
  <wgt id="471">7.77851e-12</wgt>
  <wgt id="472">7.86544e-12</wgt>
  <wgt id="473">7.62113e-12</wgt>
  <wgt id="474">5.79e-12</wgt>
  <wgt id="475">6.16994e-12</wgt>
  <wgt id="476">5.67566e-12</wgt>
  <wgt id="477">5.69377e-12</wgt>
  <wgt id="478">5.82058e-12</wgt>
  <wgt id="479">5.72368e-12</wgt>
  <wgt id="480">5.9573e-12</wgt>
  <wgt id="481">5.633e-12</wgt>
  <wgt id="482">5.54599e-12</wgt>
  <wgt id="483">5.64276e-12</wgt>
  <wgt id="484">6.23193e-12</wgt>
  <wgt id="485">5.821e-12</wgt>
  <wgt id="486">5.86574e-12</wgt>
  <wgt id="487">5.87869e-12</wgt>
  <wgt id="488">5.85231e-12</wgt>
  <wgt id="489">5.59602e-12</wgt>
  <wgt id="490">5.6268e-12</wgt>
  <wgt id="491">5.72336e-12</wgt>
  <wgt id="492">5.60414e-12</wgt>
  <wgt id="493">5.59886e-12</wgt>
  <wgt id="494">5.61981e-12</wgt>
  <wgt id="495">5.90019e-12</wgt>
  <wgt id="496">5.59209e-12</wgt>
  <wgt id="497">5.58997e-12</wgt>
  <wgt id="498">5.84702e-12</wgt>
  <wgt id="499">5.63597e-12</wgt>
  <wgt id="500">5.69085e-12</wgt>
  <wgt id="501">6.03354e-12</wgt>
  <wgt id="502">5.62128e-12</wgt>
  <wgt id="503">5.76572e-12</wgt>
  <wgt id="504">5.78211e-12</wgt>
  <wgt id="505">5.91216e-12</wgt>
  <wgt id="506">5.86889e-12</wgt>
  <wgt id="507">5.71666e-12</wgt>
  <wgt id="508">5.87212e-12</wgt>
  <wgt id="509">5.79449e-12</wgt>
  <wgt id="510">5.9196e-12</wgt>
  <wgt id="511">5.67189e-12</wgt>
  <wgt id="512">5.84488e-12</wgt>
  <wgt id="513">5.99335e-12</wgt>
  <wgt id="514">5.73198e-12</wgt>
  <wgt id="515">5.71468e-12</wgt>
  <wgt id="516">5.92492e-12</wgt>
  <wgt id="517">5.91649e-12</wgt>
  <wgt id="518">5.93846e-12</wgt>
  <wgt id="519">5.66078e-12</wgt>
  <wgt id="520">5.80497e-12</wgt>
  <wgt id="521">6.00395e-12</wgt>
  <wgt id="522">5.99945e-12</wgt>
  <wgt id="523">5.91951e-12</wgt>
  <wgt id="524">5.91887e-12</wgt>
  <wgt id="525">5.92575e-12</wgt>
  <wgt id="526">5.77327e-12</wgt>
  <wgt id="527">5.90122e-12</wgt>
  <wgt id="528">5.77969e-12</wgt>
  <wgt id="529">5.71897e-12</wgt>
  <wgt id="530">5.80891e-12</wgt>
  <wgt id="531">5.71764e-12</wgt>
  <wgt id="532">6.07996e-12</wgt>
  <wgt id="533">5.43641e-12</wgt>
  <wgt id="534">5.79829e-12</wgt>
  <wgt id="535">5.89473e-12</wgt>
  <wgt id="536">5.80899e-12</wgt>
  <wgt id="537">5.812e-12</wgt>
  <wgt id="538">5.89155e-12</wgt>
  <wgt id="539">5.65547e-12</wgt>
  <wgt id="540">5.73476e-12</wgt>
  <wgt id="541">5.71126e-12</wgt>
  <wgt id="542">5.65426e-12</wgt>
  <wgt id="543">5.7794e-12</wgt>
  <wgt id="544">6.06959e-12</wgt>
  <wgt id="545">5.71695e-12</wgt>
  <wgt id="546">5.74353e-12</wgt>
  <wgt id="547">5.61502e-12</wgt>
  <wgt id="548">5.5554e-12</wgt>
  <wgt id="549">5.70327e-12</wgt>
  <wgt id="550">5.84052e-12</wgt>
  <wgt id="551">5.85692e-12</wgt>
  <wgt id="552">5.74877e-12</wgt>
  <wgt id="553">5.77961e-12</wgt>
  <wgt id="554">6.22265e-12</wgt>
  <wgt id="555">5.94959e-12</wgt>
  <wgt id="556">5.6268e-12</wgt>
  <wgt id="557">5.86794e-12</wgt>
  <wgt id="558">5.59708e-12</wgt>
  <wgt id="559">5.72773e-12</wgt>
  <wgt id="560">6.23083e-12</wgt>
  <wgt id="561">5.64765e-12</wgt>
  <wgt id="562">5.85235e-12</wgt>
  <wgt id="563">5.63816e-12</wgt>
  <wgt id="564">5.76978e-12</wgt>
  <wgt id="565">5.60456e-12</wgt>
  <wgt id="566">5.84297e-12</wgt>
  <wgt id="567">5.696e-12</wgt>
  <wgt id="568">5.79615e-12</wgt>
  <wgt id="569">5.83038e-12</wgt>
  <wgt id="570">5.668e-12</wgt>
  <wgt id="571">6.3963e-12</wgt>
  <wgt id="572">5.6604e-12</wgt>
  <wgt id="573">5.52716e-12</wgt>
  <wgt id="574">5.58498e-12</wgt>
  <wgt id="575">6.33514e-12</wgt>
  <wgt id="576">6.21571e-12</wgt>
  <wgt id="577">6.56491e-12</wgt>
  <wgt id="578">6.43803e-12</wgt>
  <wgt id="579">6.38123e-12</wgt>
  <wgt id="580">6.41545e-12</wgt>
  <wgt id="581">6.69084e-12</wgt>
  <wgt id="582">6.19483e-12</wgt>
  <wgt id="583">6.39522e-12</wgt>
  <wgt id="584">6.34219e-12</wgt>
  <wgt id="585">6.39919e-12</wgt>
  <wgt id="586">6.19634e-12</wgt>
  <wgt id="587">6.40058e-12</wgt>
  <wgt id="588">6.28921e-12</wgt>
  <wgt id="589">6.38966e-12</wgt>
  <wgt id="590">6.44032e-12</wgt>
  <wgt id="591">6.58698e-12</wgt>
  <wgt id="592">6.24298e-12</wgt>
  <wgt id="593">6.30607e-12</wgt>
  <wgt id="594">6.60318e-12</wgt>
  <wgt id="595">6.28187e-12</wgt>
  <wgt id="596">6.41972e-12</wgt>
  <wgt id="597">6.09036e-12</wgt>
  <wgt id="598">6.30469e-12</wgt>
  <wgt id="599">6.66526e-12</wgt>
  <wgt id="600">6.26833e-12</wgt>
  <wgt id="601">6.15537e-12</wgt>
  <wgt id="602">6.2315e-12</wgt>
  <wgt id="603">6.26296e-12</wgt>
  <wgt id="604">6.41236e-12</wgt>
  <wgt id="605">6.59136e-12</wgt>
  <wgt id="606">6.16404e-12</wgt>
  <wgt id="607">6.23765e-12</wgt>
  <wgt id="608">6.29665e-12</wgt>
  <wgt id="609">5.95426e-12</wgt>
  <wgt id="610">6.08703e-12</wgt>
  <wgt id="611">6.45012e-12</wgt>
  <wgt id="612">6.80904e-12</wgt>
  <wgt id="613">6.34945e-12</wgt>
  <wgt id="614">6.41695e-12</wgt>
  <wgt id="615">6.20388e-12</wgt>
  <wgt id="616">6.76729e-12</wgt>
  <wgt id="617">6.56089e-12</wgt>
  <wgt id="618">6.27425e-12</wgt>
  <wgt id="619">6.30659e-12</wgt>
  <wgt id="620">6.5428e-12</wgt>
  <wgt id="621">6.4373e-12</wgt>
  <wgt id="622">6.40058e-12</wgt>
  <wgt id="623">6.4925e-12</wgt>
  <wgt id="624">6.29053e-12</wgt>
  <wgt id="625">6.2679e-12</wgt>
  <wgt id="626">6.21287e-12</wgt>
  <wgt id="627">6.12121e-12</wgt>
  <wgt id="628">6.68895e-12</wgt>
  <wgt id="629">6.19664e-12</wgt>
  <wgt id="630">6.17919e-12</wgt>
  <wgt id="631">6.33029e-12</wgt>
  <wgt id="632">6.17339e-12</wgt>
  <wgt id="633">6.24968e-12</wgt>
  <wgt id="634">6.38288e-12</wgt>
  <wgt id="635">6.30597e-12</wgt>
  <wgt id="636">6.36861e-12</wgt>
  <wgt id="637">6.35733e-12</wgt>
  <wgt id="638">6.11774e-12</wgt>
  <wgt id="639">6.27255e-12</wgt>
  <wgt id="640">6.35158e-12</wgt>
  <wgt id="641">6.33373e-12</wgt>
  <wgt id="642">6.26408e-12</wgt>
  <wgt id="643">6.31644e-12</wgt>
  <wgt id="644">6.15319e-12</wgt>
  <wgt id="645">6.37024e-12</wgt>
  <wgt id="646">6.48039e-12</wgt>
  <wgt id="647">6.22641e-12</wgt>
  <wgt id="648">6.352e-12</wgt>
  <wgt id="649">6.43389e-12</wgt>
  <wgt id="650">6.22691e-12</wgt>
  <wgt id="651">6.39562e-12</wgt>
  <wgt id="652">6.33431e-12</wgt>
  <wgt id="653">6.17607e-12</wgt>
  <wgt id="654">6.32022e-12</wgt>
  <wgt id="655">6.19303e-12</wgt>
  <wgt id="656">6.32501e-12</wgt>
  <wgt id="657">6.44463e-12</wgt>
  <wgt id="658">6.45998e-12</wgt>
  <wgt id="659">6.11641e-12</wgt>
  <wgt id="660">6.45643e-12</wgt>
  <wgt id="661">6.24388e-12</wgt>
  <wgt id="662">6.30697e-12</wgt>
  <wgt id="663">6.31001e-12</wgt>
  <wgt id="664">6.22745e-12</wgt>
  <wgt id="665">6.30804e-12</wgt>
  <wgt id="666">6.32671e-12</wgt>
  <wgt id="667">6.52622e-12</wgt>
  <wgt id="668">6.29715e-12</wgt>
  <wgt id="669">6.49196e-12</wgt>
  <wgt id="670">6.39543e-12</wgt>
  <wgt id="671">6.22457e-12</wgt>
  <wgt id="672">6.07073e-12</wgt>
  <wgt id="673">6.2986e-12</wgt>
  <wgt id="674">6.20792e-12</wgt>
  <wgt id="675">6.19251e-12</wgt>
  <wgt id="676">7.84734e-12</wgt>
  <wgt id="677">7.95886e-12</wgt>
  <wgt id="678">8.19052e-12</wgt>
  <wgt id="679">7.48353e-12</wgt>
  <wgt id="680">7.55921e-12</wgt>
  <wgt id="681">8.08933e-12</wgt>
  <wgt id="682">7.94816e-12</wgt>
  <wgt id="683">7.79709e-12</wgt>
  <wgt id="684">8.1837e-12</wgt>
  <wgt id="685">7.42668e-12</wgt>
  <wgt id="686">7.91501e-12</wgt>
  <wgt id="687">8.1901e-12</wgt>
  <wgt id="688">7.81685e-12</wgt>
  <wgt id="689">8.40656e-12</wgt>
  <wgt id="690">8.29917e-12</wgt>
  <wgt id="691">8.27012e-12</wgt>
  <wgt id="692">7.82756e-12</wgt>
  <wgt id="693">8.97581e-12</wgt>
  <wgt id="694">8.27343e-12</wgt>
  <wgt id="695">7.59344e-12</wgt>
  <wgt id="696">7.47477e-12</wgt>
  <wgt id="697">7.61981e-12</wgt>
  <wgt id="698">7.40861e-12</wgt>
  <wgt id="699">7.31504e-12</wgt>
  <wgt id="700">7.01252e-12</wgt>
  <wgt id="701">7.86508e-12</wgt>
  <wgt id="702">7.49147e-12</wgt>
  <wgt id="703">8.84463e-12</wgt>
  <wgt id="704">8.3895e-12</wgt>
  <wgt id="705">8.10413e-12</wgt>
  <wgt id="706">7.32466e-12</wgt>
  <wgt id="707">7.56063e-12</wgt>
  <wgt id="708">7.76255e-12</wgt>
  <wgt id="709">7.72544e-12</wgt>
  <wgt id="710">7.03996e-12</wgt>
  <wgt id="711">7.8477e-12</wgt>
  <wgt id="712">7.7642e-12</wgt>
  <wgt id="713">8.36456e-12</wgt>
  <wgt id="714">7.84168e-12</wgt>
  <wgt id="715">7.77209e-12</wgt>
  <wgt id="716">7.57018e-12</wgt>
  <wgt id="717">7.57178e-12</wgt>
  <wgt id="718">7.6872e-12</wgt>
  <wgt id="719">7.20631e-12</wgt>
  <wgt id="720">7.44427e-12</wgt>
  <wgt id="721">7.50169e-12</wgt>
  <wgt id="722">7.14918e-12</wgt>
  <wgt id="723">8.26728e-12</wgt>
  <wgt id="724">8.13874e-12</wgt>
  <wgt id="725">8.29457e-12</wgt>
  <wgt id="726">7.94148e-12</wgt>
  <wgt id="727">7.66895e-12</wgt>
  <wgt id="728">7.79309e-12</wgt>
  <wgt id="729">7.10154e-12</wgt>
  <wgt id="730">8.31509e-12</wgt>
  <wgt id="731">7.78161e-12</wgt>
  <wgt id="732">8.52061e-12</wgt>
  <wgt id="733">7.85958e-12</wgt>
  <wgt id="734">8.02753e-12</wgt>
  <wgt id="735">7.7926e-12</wgt>
  <wgt id="736">7.76508e-12</wgt>
  <wgt id="737">7.98072e-12</wgt>
  <wgt id="738">7.56316e-12</wgt>
  <wgt id="739">7.7963e-12</wgt>
  <wgt id="740">8.6445e-12</wgt>
  <wgt id="741">6.99031e-12</wgt>
  <wgt id="742">7.73308e-12</wgt>
  <wgt id="743">7.64232e-12</wgt>
  <wgt id="744">7.69777e-12</wgt>
  <wgt id="745">8.12245e-12</wgt>
  <wgt id="746">8.20846e-12</wgt>
  <wgt id="747">7.28872e-12</wgt>
  <wgt id="748">7.71856e-12</wgt>
  <wgt id="749">8.29386e-12</wgt>
  <wgt id="750">7.73274e-12</wgt>
  <wgt id="751">8.14296e-12</wgt>
  <wgt id="752">7.27425e-12</wgt>
  <wgt id="753">7.50227e-12</wgt>
  <wgt id="754">8.06103e-12</wgt>
  <wgt id="755">7.90498e-12</wgt>
  <wgt id="756">7.89556e-12</wgt>
  <wgt id="757">7.33018e-12</wgt>
  <wgt id="758">7.96214e-12</wgt>
  <wgt id="759">7.76476e-12</wgt>
  <wgt id="760">8.00805e-12</wgt>
  <wgt id="761">8.25255e-12</wgt>
  <wgt id="762">8.24882e-12</wgt>
  <wgt id="763">7.87425e-12</wgt>
  <wgt id="764">8.11147e-12</wgt>
  <wgt id="765">7.9151e-12</wgt>
  <wgt id="766">7.81584e-12</wgt>
  <wgt id="767">8.02199e-12</wgt>
  <wgt id="768">7.48801e-12</wgt>
  <wgt id="769">8.27923e-12</wgt>
  <wgt id="770">7.61837e-12</wgt>
  <wgt id="771">9.13376e-12</wgt>
  <wgt id="772">7.38759e-12</wgt>
  <wgt id="773">7.82439e-12</wgt>
  <wgt id="774">7.15021e-12</wgt>
  <wgt id="775">8.19568e-12</wgt>
  <wgt id="776">8.56321e-12</wgt>
  <wgt id="777">7.64856e-12</wgt>
  <wgt id="778">5.93193e-12</wgt>
  <wgt id="779">5.12331e-12</wgt>
  <wgt id="780">4.39342e-12</wgt>
  <wgt id="781">5.86436e-12</wgt>
  <wgt id="782">6.27184e-12</wgt>
  <wgt id="783">5.23107e-12</wgt>
  <wgt id="784">5.32697e-12</wgt>
  <wgt id="785">7.0457e-12</wgt>
  <wgt id="786">4.68214e-12</wgt>
  <wgt id="787">6.58083e-12</wgt>
  <wgt id="788">4.08526e-12</wgt>
  <wgt id="789">4.79707e-12</wgt>
  <wgt id="790">4.68184e-12</wgt>
  <wgt id="791">5.48018e-12</wgt>
  <wgt id="792">7.4718e-12</wgt>
  <wgt id="793">5.70799e-12</wgt>
  <wgt id="794">4.7977e-12</wgt>
  <wgt id="795">6.69545e-12</wgt>
  <wgt id="796">7.64125e-12</wgt>
  <wgt id="797">6.67034e-12</wgt>
  <wgt id="798">5.58622e-12</wgt>
  <wgt id="799">6.62558e-12</wgt>
  <wgt id="800">4.86727e-12</wgt>
  <wgt id="801">5.63564e-12</wgt>
  <wgt id="802">4.84684e-12</wgt>
  <wgt id="803">7.6541e-12</wgt>
  <wgt id="804">6.65387e-12</wgt>
  <wgt id="805">6.78949e-12</wgt>
  <wgt id="806">6.71829e-12</wgt>
  <wgt id="807">5.71426e-12</wgt>
  <wgt id="808">5.81372e-12</wgt>
  <wgt id="809">5.4868e-12</wgt>
  <wgt id="810">6.7827e-12</wgt>
  <wgt id="811">6.42279e-12</wgt>
  <wgt id="812">4.75519e-12</wgt>
  <wgt id="813">4.80497e-12</wgt>
  <wgt id="814">5.04578e-12</wgt>
  <wgt id="815">5.14338e-12</wgt>
  <wgt id="816">4.57749e-12</wgt>
  <wgt id="817">6.26195e-12</wgt>
  <wgt id="818">5.72577e-12</wgt>
  <wgt id="819">5.1448e-12</wgt>
  <wgt id="820">5.9642e-12</wgt>
  <wgt id="821">6.67414e-12</wgt>
  <wgt id="822">5.1949e-12</wgt>
  <wgt id="823">6.67081e-12</wgt>
  <wgt id="824">7.82449e-12</wgt>
  <wgt id="825">4.61593e-12</wgt>
  <wgt id="826">6.10669e-12</wgt>
  <wgt id="827">3.91091e-12</wgt>
  <wgt id="828">7.57496e-12</wgt>
  <wgt id="829">6.10287e-12</wgt>
  <wgt id="830">4.39387e-12</wgt>
  <wgt id="831">6.28831e-12</wgt>
  <wgt id="832">9.3765e-12</wgt>
  <wgt id="833">5.67194e-12</wgt>
  <wgt id="834">8.77286e-12</wgt>
  <wgt id="835">4.89583e-12</wgt>
  <wgt id="836">6.00978e-12</wgt>
  <wgt id="837">6.59268e-12</wgt>
  <wgt id="838">5.72373e-12</wgt>
  <wgt id="839">6.26478e-12</wgt>
  <wgt id="840">5.66872e-12</wgt>
  <wgt id="841">7.02201e-12</wgt>
  <wgt id="842">5.48008e-12</wgt>
  <wgt id="843">5.73792e-12</wgt>
  <wgt id="844">6.11001e-12</wgt>
  <wgt id="845">7.86975e-12</wgt>
  <wgt id="846">5.4497e-12</wgt>
  <wgt id="847">5.83392e-12</wgt>
  <wgt id="848">5.34084e-12</wgt>
  <wgt id="849">6.05068e-12</wgt>
  <wgt id="850">7.43404e-12</wgt>
  <wgt id="851">6.42509e-12</wgt>
  <wgt id="852">5.28899e-12</wgt>
  <wgt id="853">6.37676e-12</wgt>
  <wgt id="854">7.0425e-12</wgt>
  <wgt id="855">6.67494e-12</wgt>
  <wgt id="856">4.50737e-12</wgt>
  <wgt id="857">6.02281e-12</wgt>
  <wgt id="858">5.91417e-12</wgt>
  <wgt id="859">5.54236e-12</wgt>
  <wgt id="860">6.18132e-12</wgt>
  <wgt id="861">5.39415e-12</wgt>
  <wgt id="862">6.02315e-12</wgt>
  <wgt id="863">6.1653e-12</wgt>
  <wgt id="864">6.20962e-12</wgt>
  <wgt id="865">8.15809e-12</wgt>
  <wgt id="866">8.91256e-12</wgt>
  <wgt id="867">5.96231e-12</wgt>
  <wgt id="868">5.82703e-12</wgt>
  <wgt id="869">4.79411e-12</wgt>
  <wgt id="870">5.03674e-12</wgt>
  <wgt id="871">4.90327e-12</wgt>
  <wgt id="872">6.82613e-12</wgt>
  <wgt id="873">4.99041e-12</wgt>
  <wgt id="874">6.15249e-12</wgt>
  <wgt id="875">5.22116e-12</wgt>
  <wgt id="876">6.84466e-12</wgt>
  <wgt id="877">6.64205e-12</wgt>
  <wgt id="878">5.28339e-12</wgt>
  <wgt id="879">7.84734e-12</wgt>
  <wgt id="880">7.95886e-12</wgt>
  <wgt id="881">8.19052e-12</wgt>
  <wgt id="882">7.48353e-12</wgt>
  <wgt id="883">7.55921e-12</wgt>
  <wgt id="884">8.08933e-12</wgt>
  <wgt id="885">7.94816e-12</wgt>
  <wgt id="886">7.79709e-12</wgt>
  <wgt id="887">8.1837e-12</wgt>
  <wgt id="888">7.42668e-12</wgt>
  <wgt id="889">7.91501e-12</wgt>
  <wgt id="890">8.1901e-12</wgt>
  <wgt id="891">7.81685e-12</wgt>
  <wgt id="892">8.40656e-12</wgt>
  <wgt id="893">8.29917e-12</wgt>
  <wgt id="894">8.27012e-12</wgt>
  <wgt id="895">7.82756e-12</wgt>
  <wgt id="896">8.97581e-12</wgt>
  <wgt id="897">8.27343e-12</wgt>
  <wgt id="898">7.59344e-12</wgt>
  <wgt id="899">7.47477e-12</wgt>
  <wgt id="900">7.61981e-12</wgt>
  <wgt id="901">7.40861e-12</wgt>
  <wgt id="902">7.31504e-12</wgt>
  <wgt id="903">7.01252e-12</wgt>
  <wgt id="904">7.86508e-12</wgt>
  <wgt id="905">7.49147e-12</wgt>
  <wgt id="906">8.84463e-12</wgt>
  <wgt id="907">8.3895e-12</wgt>
  <wgt id="908">8.10413e-12</wgt>
  <wgt id="909">7.32466e-12</wgt>
  <wgt id="910">7.56063e-12</wgt>
  <wgt id="911">7.76255e-12</wgt>
  <wgt id="912">7.72544e-12</wgt>
  <wgt id="913">7.03996e-12</wgt>
  <wgt id="914">7.8477e-12</wgt>
  <wgt id="915">7.7642e-12</wgt>
  <wgt id="916">8.36456e-12</wgt>
  <wgt id="917">7.84168e-12</wgt>
  <wgt id="918">7.77209e-12</wgt>
  <wgt id="919">7.57018e-12</wgt>
  <wgt id="920">7.57178e-12</wgt>
  <wgt id="921">7.6872e-12</wgt>
  <wgt id="922">7.20631e-12</wgt>
  <wgt id="923">7.44427e-12</wgt>
  <wgt id="924">7.50169e-12</wgt>
  <wgt id="925">7.14918e-12</wgt>
  <wgt id="926">8.26728e-12</wgt>
  <wgt id="927">8.13874e-12</wgt>
  <wgt id="928">8.29457e-12</wgt>
  <wgt id="929">7.94148e-12</wgt>
  <wgt id="930">7.66895e-12</wgt>
  <wgt id="931">7.79309e-12</wgt>
  <wgt id="932">7.10154e-12</wgt>
  <wgt id="933">8.31509e-12</wgt>
  <wgt id="934">7.78161e-12</wgt>
  <wgt id="935">8.52061e-12</wgt>
  <wgt id="936">7.85958e-12</wgt>
  <wgt id="937">8.02753e-12</wgt>
  <wgt id="938">7.7926e-12</wgt>
  <wgt id="939">7.76508e-12</wgt>
  <wgt id="940">7.98072e-12</wgt>
  <wgt id="941">7.56316e-12</wgt>
  <wgt id="942">7.7963e-12</wgt>
  <wgt id="943">8.6445e-12</wgt>
  <wgt id="944">6.99031e-12</wgt>
  <wgt id="945">7.73308e-12</wgt>
  <wgt id="946">7.64232e-12</wgt>
  <wgt id="947">7.69777e-12</wgt>
  <wgt id="948">8.12245e-12</wgt>
  <wgt id="949">8.20846e-12</wgt>
  <wgt id="950">7.28872e-12</wgt>
  <wgt id="951">7.71856e-12</wgt>
  <wgt id="952">8.29386e-12</wgt>
  <wgt id="953">7.73274e-12</wgt>
  <wgt id="954">8.14296e-12</wgt>
  <wgt id="955">7.27425e-12</wgt>
  <wgt id="956">7.50227e-12</wgt>
  <wgt id="957">8.06103e-12</wgt>
  <wgt id="958">7.90498e-12</wgt>
  <wgt id="959">7.89556e-12</wgt>
  <wgt id="960">7.33018e-12</wgt>
  <wgt id="961">7.96214e-12</wgt>
  <wgt id="962">7.76476e-12</wgt>
  <wgt id="963">8.00805e-12</wgt>
  <wgt id="964">8.25255e-12</wgt>
  <wgt id="965">8.24882e-12</wgt>
  <wgt id="966">7.87425e-12</wgt>
  <wgt id="967">8.11147e-12</wgt>
  <wgt id="968">7.9151e-12</wgt>
  <wgt id="969">7.81584e-12</wgt>
  <wgt id="970">8.02199e-12</wgt>
  <wgt id="971">7.48801e-12</wgt>
  <wgt id="972">8.27923e-12</wgt>
  <wgt id="973">7.61837e-12</wgt>
  <wgt id="974">9.13376e-12</wgt>
  <wgt id="975">7.38759e-12</wgt>
  <wgt id="976">7.82439e-12</wgt>
  <wgt id="977">7.15021e-12</wgt>
  <wgt id="978">8.19568e-12</wgt>
  <wgt id="979">8.56321e-12</wgt>
  <wgt id="980">7.86692e-12</wgt>
  <wgt id="981">7.87086e-12</wgt>
  <wgt id="982">7.63592e-12</wgt>
</rwgt>
</event>
<event>
 5   1  0.5790000E-11  0.2164247E+04  0.7818608E-02  0.7762472E-01
       21   -1    0    0  502  501  0.00000000000E+00  0.00000000000E+00  0.14770473620E+04  0.14770473620E+04  0.00000000000E+00 0. -1.
       21   -1    0    0  501  502 -0.00000000000E+00 -0.00000000000E+00 -0.79279169366E+03  0.79279169366E+03  0.00000000000E+00 0.  1.
       39    2    1    2    0    0  0.00000000000E+00  0.00000000000E+00  0.68425566834E+03  0.22698390557E+04  0.21642466400E+04 0.  0.
       25    1    3    3    0    0 -0.46347619819E+03  0.96648029484E+03  0.25775708566E+03  0.11094854942E+04  0.12500000000E+03 0.  0.
       25    1    3    3    0    0  0.46347619819E+03 -0.96648029484E+03  0.42649858268E+03  0.11603535615E+04  0.12500000000E+03 0.  0.
<mgrwt>
<rscale>  0 0.21642466E+04</rscale>
<asrwt>0</asrwt>
<pdfrwt beam="1">  1       21 0.22723806E+00 0.21642466E+04</pdfrwt>
<pdfrwt beam="2">  1       21 0.12196795E+00 0.21642466E+04</pdfrwt>
<totfact> 0.18428795E+01</totfact>
</mgrwt>
<rwgt>
  <wgt id="1">5.79e-12</wgt>
  <wgt id="2">5.05324e-12</wgt>
  <wgt id="3">6.70193e-12</wgt>
  <wgt id="4">5.79e-12</wgt>
  <wgt id="5">5.05324e-12</wgt>
  <wgt id="6">6.70193e-12</wgt>
  <wgt id="7">5.79e-12</wgt>
  <wgt id="8">5.05324e-12</wgt>
  <wgt id="9">6.70193e-12</wgt>
  <wgt id="10">5.97621e-12</wgt>
  <wgt id="11">5.97191e-12</wgt>
  <wgt id="12">5.96639e-12</wgt>
  <wgt id="13">5.95716e-12</wgt>
  <wgt id="14">5.99773e-12</wgt>
  <wgt id="15">5.98598e-12</wgt>
  <wgt id="16">5.9663e-12</wgt>
  <wgt id="17">5.99151e-12</wgt>
  <wgt id="18">5.96733e-12</wgt>
  <wgt id="19">5.98858e-12</wgt>
  <wgt id="20">5.9612e-12</wgt>
  <wgt id="21">5.93787e-12</wgt>
  <wgt id="22">5.95019e-12</wgt>
  <wgt id="23">5.91861e-12</wgt>
  <wgt id="24">5.94562e-12</wgt>
  <wgt id="25">5.96056e-12</wgt>
  <wgt id="26">5.9968e-12</wgt>
  <wgt id="27">5.97379e-12</wgt>
  <wgt id="28">5.94674e-12</wgt>
  <wgt id="29">5.98072e-12</wgt>
  <wgt id="30">5.95263e-12</wgt>
  <wgt id="31">5.99647e-12</wgt>
  <wgt id="32">5.9593e-12</wgt>
  <wgt id="33">5.9882e-12</wgt>
  <wgt id="34">5.95393e-12</wgt>
  <wgt id="35">5.96432e-12</wgt>
  <wgt id="36">5.99343e-12</wgt>
  <wgt id="37">5.96048e-12</wgt>
  <wgt id="38">5.96014e-12</wgt>
  <wgt id="39">6.04478e-12</wgt>
  <wgt id="40">5.98557e-12</wgt>
  <wgt id="41">5.97401e-12</wgt>
  <wgt id="42">5.98873e-12</wgt>
  <wgt id="43">5.9771e-12</wgt>
  <wgt id="44">5.96553e-12</wgt>
  <wgt id="45">5.98612e-12</wgt>
  <wgt id="46">5.97856e-12</wgt>
  <wgt id="47">5.96651e-12</wgt>
  <wgt id="48">5.97644e-12</wgt>
  <wgt id="49">5.97621e-12</wgt>
  <wgt id="50">5.99196e-12</wgt>
  <wgt id="51">5.98788e-12</wgt>
  <wgt id="52">5.97381e-12</wgt>
  <wgt id="53">5.94712e-12</wgt>
  <wgt id="54">5.97006e-12</wgt>
  <wgt id="55">5.97515e-12</wgt>
  <wgt id="56">5.9994e-12</wgt>
  <wgt id="57">5.99246e-12</wgt>
  <wgt id="58">5.94571e-12</wgt>
  <wgt id="59">5.96015e-12</wgt>
  <wgt id="60">5.98128e-12</wgt>
  <wgt id="61">5.9539e-12</wgt>
  <wgt id="62">5.96389e-12</wgt>
  <wgt id="63">5.9736e-12</wgt>
  <wgt id="64">5.98058e-12</wgt>
  <wgt id="65">5.98488e-12</wgt>
  <wgt id="66">5.96915e-12</wgt>
  <wgt id="67">5.95462e-12</wgt>
  <wgt id="68">5.97246e-12</wgt>
  <wgt id="69">5.97744e-12</wgt>
  <wgt id="70">5.9765e-12</wgt>
  <wgt id="71">5.97498e-12</wgt>
  <wgt id="72">5.96511e-12</wgt>
  <wgt id="73">5.98044e-12</wgt>
  <wgt id="74">5.97809e-12</wgt>
  <wgt id="75">5.96912e-12</wgt>
  <wgt id="76">5.98903e-12</wgt>
  <wgt id="77">5.9747e-12</wgt>
  <wgt id="78">5.9765e-12</wgt>
  <wgt id="79">5.98929e-12</wgt>
  <wgt id="80">5.95478e-12</wgt>
  <wgt id="81">5.97117e-12</wgt>
  <wgt id="82">5.97631e-12</wgt>
  <wgt id="83">5.95535e-12</wgt>
  <wgt id="84">5.96856e-12</wgt>
  <wgt id="85">5.96328e-12</wgt>
  <wgt id="86">5.99318e-12</wgt>
  <wgt id="87">5.94625e-12</wgt>
  <wgt id="88">5.98204e-12</wgt>
  <wgt id="89">5.98123e-12</wgt>
  <wgt id="90">5.98785e-12</wgt>
  <wgt id="91">5.98209e-12</wgt>
  <wgt id="92">5.98743e-12</wgt>
  <wgt id="93">5.97839e-12</wgt>
  <wgt id="94">5.97104e-12</wgt>
  <wgt id="95">5.9838e-12</wgt>
  <wgt id="96">5.98001e-12</wgt>
  <wgt id="97">5.96603e-12</wgt>
  <wgt id="98">5.97859e-12</wgt>
  <wgt id="99">5.96814e-12</wgt>
  <wgt id="100">5.98141e-12</wgt>
  <wgt id="101">5.97681e-12</wgt>
  <wgt id="102">5.97162e-12</wgt>
  <wgt id="103">5.98373e-12</wgt>
  <wgt id="104">5.97431e-12</wgt>
  <wgt id="105">5.98412e-12</wgt>
  <wgt id="106">5.96767e-12</wgt>
  <wgt id="107">5.99221e-12</wgt>
  <wgt id="108">5.97046e-12</wgt>
  <wgt id="109">5.97602e-12</wgt>
  <wgt id="110">5.97691e-12</wgt>
  <wgt id="111">6.03228e-12</wgt>
  <wgt id="112">5.98312e-12</wgt>
  <wgt id="113">7.97366e-12</wgt>
  <wgt id="114">8.14953e-12</wgt>
  <wgt id="115">8.0279e-12</wgt>
  <wgt id="116">1.09318e-11</wgt>
  <wgt id="117">6.57935e-12</wgt>
  <wgt id="118">6.60071e-12</wgt>
  <wgt id="119">6.5669e-12</wgt>
  <wgt id="120">6.58004e-12</wgt>
  <wgt id="121">6.57905e-12</wgt>
  <wgt id="122">6.56749e-12</wgt>
  <wgt id="123">6.59526e-12</wgt>
  <wgt id="124">6.56973e-12</wgt>
  <wgt id="125">6.58522e-12</wgt>
  <wgt id="126">6.58977e-12</wgt>
  <wgt id="127">6.57222e-12</wgt>
  <wgt id="128">6.59983e-12</wgt>
  <wgt id="129">6.559e-12</wgt>
  <wgt id="130">6.61612e-12</wgt>
  <wgt id="131">6.54164e-12</wgt>
  <wgt id="132">6.41192e-12</wgt>
  <wgt id="133">6.77655e-12</wgt>
  <wgt id="134">6.51148e-12</wgt>
  <wgt id="135">6.63232e-12</wgt>
  <wgt id="136">6.66093e-12</wgt>
  <wgt id="137">6.48023e-12</wgt>
  <wgt id="138">6.82649e-12</wgt>
  <wgt id="139">6.33996e-12</wgt>
  <wgt id="140">6.53626e-12</wgt>
  <wgt id="141">6.61274e-12</wgt>
  <wgt id="142">6.57988e-12</wgt>
  <wgt id="143">6.58905e-12</wgt>
  <wgt id="144">6.40456e-12</wgt>
  <wgt id="145">6.7406e-12</wgt>
  <wgt id="146">6.63408e-12</wgt>
  <wgt id="147">6.53583e-12</wgt>
  <wgt id="148">6.59884e-12</wgt>
  <wgt id="149">6.57783e-12</wgt>
  <wgt id="150">6.63449e-12</wgt>
  <wgt id="151">6.55364e-12</wgt>
  <wgt id="152">6.58191e-12</wgt>
  <wgt id="153">6.57827e-12</wgt>
  <wgt id="154">6.6311e-12</wgt>
  <wgt id="155">6.51655e-12</wgt>
  <wgt id="156">6.70158e-12</wgt>
  <wgt id="157">6.44818e-12</wgt>
  <wgt id="158">7.91667e-12</wgt>
  <wgt id="159">7.94988e-12</wgt>
  <wgt id="160">7.89017e-12</wgt>
  <wgt id="161">7.89838e-12</wgt>
  <wgt id="162">7.93756e-12</wgt>
  <wgt id="163">7.90857e-12</wgt>
  <wgt id="164">7.92869e-12</wgt>
  <wgt id="165">7.92003e-12</wgt>
  <wgt id="166">7.91421e-12</wgt>
  <wgt id="167">7.91082e-12</wgt>
  <wgt id="168">7.92507e-12</wgt>
  <wgt id="169">7.88256e-12</wgt>
  <wgt id="170">7.93779e-12</wgt>
  <wgt id="171">7.90891e-12</wgt>
  <wgt id="172">7.92752e-12</wgt>
  <wgt id="173">7.91565e-12</wgt>
  <wgt id="174">7.91706e-12</wgt>
  <wgt id="175">7.70286e-12</wgt>
  <wgt id="176">8.19503e-12</wgt>
  <wgt id="177">7.95585e-12</wgt>
  <wgt id="178">7.88075e-12</wgt>
  <wgt id="179">8.2376e-12</wgt>
  <wgt id="180">7.4096e-12</wgt>
  <wgt id="181">7.69419e-12</wgt>
  <wgt id="182">8.06338e-12</wgt>
  <wgt id="183">7.78071e-12</wgt>
  <wgt id="184">7.98401e-12</wgt>
  <wgt id="185">7.85235e-12</wgt>
  <wgt id="186">7.99293e-12</wgt>
  <wgt id="187">7.84539e-12</wgt>
  <wgt id="188">8.04396e-12</wgt>
  <wgt id="189">7.86731e-12</wgt>
  <wgt id="190">7.93673e-12</wgt>
  <wgt id="191">7.93771e-12</wgt>
  <wgt id="192">7.90409e-12</wgt>
  <wgt id="193">8.02449e-12</wgt>
  <wgt id="194">7.86323e-12</wgt>
  <wgt id="195">7.74026e-12</wgt>
  <wgt id="196">8.2396e-12</wgt>
  <wgt id="197">7.95455e-12</wgt>
  <wgt id="198">7.90773e-12</wgt>
  <wgt id="199">7.91667e-12</wgt>
  <wgt id="200">7.98264e-12</wgt>
  <wgt id="201">7.95874e-12</wgt>
  <wgt id="202">7.93527e-12</wgt>
  <wgt id="203">7.90022e-12</wgt>
  <wgt id="204">7.88362e-12</wgt>
  <wgt id="205">7.86979e-12</wgt>
  <wgt id="206">7.71747e-12</wgt>
  <wgt id="207">7.76217e-12</wgt>
  <wgt id="208">7.67364e-12</wgt>
  <wgt id="209">7.7388e-12</wgt>
  <wgt id="210">7.70262e-12</wgt>
  <wgt id="211">7.71558e-12</wgt>
  <wgt id="212">7.71924e-12</wgt>
  <wgt id="213">7.71702e-12</wgt>
  <wgt id="214">7.71852e-12</wgt>
  <wgt id="215">7.72272e-12</wgt>
  <wgt id="216">7.71423e-12</wgt>
  <wgt id="217">7.73787e-12</wgt>
  <wgt id="218">7.70195e-12</wgt>
  <wgt id="219">7.7076e-12</wgt>
  <wgt id="220">7.72396e-12</wgt>
  <wgt id="221">7.71518e-12</wgt>
  <wgt id="222">7.72346e-12</wgt>
  <wgt id="223">7.32383e-12</wgt>
  <wgt id="224">8.07567e-12</wgt>
  <wgt id="225">7.63005e-12</wgt>
  <wgt id="226">7.82786e-12</wgt>
  <wgt id="227">7.64793e-12</wgt>
  <wgt id="228">7.74831e-12</wgt>
  <wgt id="229">7.6147e-12</wgt>
  <wgt id="230">7.76894e-12</wgt>
  <wgt id="231">7.93249e-12</wgt>
  <wgt id="232">7.54062e-12</wgt>
  <wgt id="233">7.67898e-12</wgt>
  <wgt id="234">7.77838e-12</wgt>
  <wgt id="235">7.56626e-12</wgt>
  <wgt id="236">7.86006e-12</wgt>
  <wgt id="237">7.61479e-12</wgt>
  <wgt id="238">7.75289e-12</wgt>
  <wgt id="239">7.67313e-12</wgt>
  <wgt id="240">7.79899e-12</wgt>
  <wgt id="241">7.64207e-12</wgt>
  <wgt id="242">7.80819e-12</wgt>
  <wgt id="243">7.79876e-12</wgt>
  <wgt id="244">7.76012e-12</wgt>
  <wgt id="245">7.71181e-12</wgt>
  <wgt id="246">7.77432e-12</wgt>
  <wgt id="247">7.71747e-12</wgt>
  <wgt id="248">7.78382e-12</wgt>
  <wgt id="249">7.7587e-12</wgt>
  <wgt id="250">7.73511e-12</wgt>
  <wgt id="251">7.70024e-12</wgt>
  <wgt id="252">7.68362e-12</wgt>
  <wgt id="253">7.67171e-12</wgt>
  <wgt id="254">7.54082e-12</wgt>
  <wgt id="255">7.54755e-12</wgt>
  <wgt id="256">7.53315e-12</wgt>
  <wgt id="257">7.54652e-12</wgt>
  <wgt id="258">7.53641e-12</wgt>
  <wgt id="259">7.59057e-12</wgt>
  <wgt id="260">7.49236e-12</wgt>
  <wgt id="261">7.54901e-12</wgt>
  <wgt id="262">7.53068e-12</wgt>
  <wgt id="263">7.53743e-12</wgt>
  <wgt id="264">7.54421e-12</wgt>
  <wgt id="265">7.5328e-12</wgt>
  <wgt id="266">7.55676e-12</wgt>
  <wgt id="267">7.54279e-12</wgt>
  <wgt id="268">7.53747e-12</wgt>
  <wgt id="269">7.56258e-12</wgt>
  <wgt id="270">7.52574e-12</wgt>
  <wgt id="271">7.52732e-12</wgt>
  <wgt id="272">7.55594e-12</wgt>
  <wgt id="273">7.51879e-12</wgt>
  <wgt id="274">7.55723e-12</wgt>
  <wgt id="275">7.51031e-12</wgt>
  <wgt id="276">7.57213e-12</wgt>
  <wgt id="277">7.49915e-12</wgt>
  <wgt id="278">7.57908e-12</wgt>
  <wgt id="279">7.40479e-12</wgt>
  <wgt id="280">7.71105e-12</wgt>
  <wgt id="281">7.51007e-12</wgt>
  <wgt id="282">7.54209e-12</wgt>
  <wgt id="283">7.33452e-12</wgt>
  <wgt id="284">7.79413e-12</wgt>
  <wgt id="285">7.19675e-12</wgt>
  <wgt id="286">7.82429e-12</wgt>
  <wgt id="287">7.56355e-12</wgt>
  <wgt id="288">7.51144e-12</wgt>
  <wgt id="289">7.59128e-12</wgt>
  <wgt id="290">7.42271e-12</wgt>
  <wgt id="291">7.52107e-12</wgt>
  <wgt id="292">7.54502e-12</wgt>
  <wgt id="293">7.48533e-12</wgt>
  <wgt id="294">7.5958e-12</wgt>
  <wgt id="295">7.40375e-12</wgt>
  <wgt id="296">7.70749e-12</wgt>
  <wgt id="297">7.54161e-12</wgt>
  <wgt id="298">7.56555e-12</wgt>
  <wgt id="299">7.51795e-12</wgt>
  <wgt id="300">7.60082e-12</wgt>
  <wgt id="301">7.45086e-12</wgt>
  <wgt id="302">7.77723e-12</wgt>
  <wgt id="303">7.48925e-12</wgt>
  <wgt id="304">7.57028e-12</wgt>
  <wgt id="305">7.56523e-12</wgt>
  <wgt id="306">7.5727e-12</wgt>
  <wgt id="307">7.55674e-12</wgt>
  <wgt id="308">7.57194e-12</wgt>
  <wgt id="309">7.56082e-12</wgt>
  <wgt id="310">7.61728e-12</wgt>
  <wgt id="311">7.51677e-12</wgt>
  <wgt id="312">7.57128e-12</wgt>
  <wgt id="313">7.55895e-12</wgt>
  <wgt id="314">7.56181e-12</wgt>
  <wgt id="315">7.56792e-12</wgt>
  <wgt id="316">7.55732e-12</wgt>
  <wgt id="317">7.58155e-12</wgt>
  <wgt id="318">7.57003e-12</wgt>
  <wgt id="319">7.55626e-12</wgt>
  <wgt id="320">7.58811e-12</wgt>
  <wgt id="321">7.55207e-12</wgt>
  <wgt id="322">7.54761e-12</wgt>
  <wgt id="323">7.58497e-12</wgt>
  <wgt id="324">7.54717e-12</wgt>
  <wgt id="325">7.58051e-12</wgt>
  <wgt id="326">7.54038e-12</wgt>
  <wgt id="327">7.5967e-12</wgt>
  <wgt id="328">7.52645e-12</wgt>
  <wgt id="329">7.58691e-12</wgt>
  <wgt id="330">7.77644e-12</wgt>
  <wgt id="331">7.36315e-12</wgt>
  <wgt id="332">7.53944e-12</wgt>
  <wgt id="333">7.56534e-12</wgt>
  <wgt id="334">7.40329e-12</wgt>
  <wgt id="335">7.7657e-12</wgt>
  <wgt id="336">7.31512e-12</wgt>
  <wgt id="337">7.86826e-12</wgt>
  <wgt id="338">7.64572e-12</wgt>
  <wgt id="339">7.49021e-12</wgt>
  <wgt id="340">7.61258e-12</wgt>
  <wgt id="341">7.44166e-12</wgt>
  <wgt id="342">7.55184e-12</wgt>
  <wgt id="343">7.55769e-12</wgt>
  <wgt id="344">7.51483e-12</wgt>
  <wgt id="345">7.6233e-12</wgt>
  <wgt id="346">7.42278e-12</wgt>
  <wgt id="347">7.72851e-12</wgt>
  <wgt id="348">7.56967e-12</wgt>
  <wgt id="349">7.58524e-12</wgt>
  <wgt id="350">7.53627e-12</wgt>
  <wgt id="351">7.63793e-12</wgt>
  <wgt id="352">7.46681e-12</wgt>
  <wgt id="353">7.81208e-12</wgt>
  <wgt id="354">7.48729e-12</wgt>
  <wgt id="355">7.61329e-12</wgt>
  <wgt id="356">7.54082e-12</wgt>
  <wgt id="357">7.59625e-12</wgt>
  <wgt id="358">7.56523e-12</wgt>
  <wgt id="359">7.56727e-12</wgt>
  <wgt id="360">7.58809e-12</wgt>
  <wgt id="361">7.56326e-12</wgt>
  <wgt id="362">7.68812e-12</wgt>
  <wgt id="363">7.67084e-12</wgt>
  <wgt id="364">7.6457e-12</wgt>
  <wgt id="365">7.62144e-12</wgt>
  <wgt id="366">7.59377e-12</wgt>
  <wgt id="367">7.53781e-12</wgt>
  <wgt id="368">7.50628e-12</wgt>
  <wgt id="369">7.47216e-12</wgt>
  <wgt id="370">7.56326e-12</wgt>
  <wgt id="371">7.59656e-12</wgt>
  <wgt id="372">7.5784e-12</wgt>
  <wgt id="373">7.5511e-12</wgt>
  <wgt id="374">7.54908e-12</wgt>
  <wgt id="375">8.07057e-12</wgt>
  <wgt id="376">8.0715e-12</wgt>
  <wgt id="377">8.06938e-12</wgt>
  <wgt id="378">8.09983e-12</wgt>
  <wgt id="379">8.04169e-12</wgt>
  <wgt id="380">8.09268e-12</wgt>
  <wgt id="381">8.06198e-12</wgt>
  <wgt id="382">8.10916e-12</wgt>
  <wgt id="383">8.03234e-12</wgt>
  <wgt id="384">8.07579e-12</wgt>
  <wgt id="385">8.06563e-12</wgt>
  <wgt id="386">8.09983e-12</wgt>
  <wgt id="387">8.05798e-12</wgt>
  <wgt id="388">8.06329e-12</wgt>
  <wgt id="389">8.07918e-12</wgt>
  <wgt id="390">8.09078e-12</wgt>
  <wgt id="391">8.04935e-12</wgt>
  <wgt id="392">8.01385e-12</wgt>
  <wgt id="393">8.10298e-12</wgt>
  <wgt id="394">8.08123e-12</wgt>
  <wgt id="395">8.05616e-12</wgt>
  <wgt id="396">8.07479e-12</wgt>
  <wgt id="397">8.06762e-12</wgt>
  <wgt id="398">8.0423e-12</wgt>
  <wgt id="399">8.09813e-12</wgt>
  <wgt id="400">8.0589e-12</wgt>
  <wgt id="401">8.09694e-12</wgt>
  <wgt id="402">8.0089e-12</wgt>
  <wgt id="403">8.09753e-12</wgt>
  <wgt id="404">8.24825e-12</wgt>
  <wgt id="405">7.64106e-12</wgt>
  <wgt id="406">7.94187e-12</wgt>
  <wgt id="407">8.3494e-12</wgt>
  <wgt id="408">8.13636e-12</wgt>
  <wgt id="409">7.94446e-12</wgt>
  <wgt id="410">7.85961e-12</wgt>
  <wgt id="411">8.16827e-12</wgt>
  <wgt id="412">8.05654e-12</wgt>
  <wgt id="413">8.09013e-12</wgt>
  <wgt id="414">7.98624e-12</wgt>
  <wgt id="415">8.13636e-12</wgt>
  <wgt id="416">8.27079e-12</wgt>
  <wgt id="417">7.79355e-12</wgt>
  <wgt id="418">8.08117e-12</wgt>
  <wgt id="419">8.0127e-12</wgt>
  <wgt id="420">8.17511e-12</wgt>
  <wgt id="421">8.01283e-12</wgt>
  <wgt id="422">8.06235e-12</wgt>
  <wgt id="423">8.07619e-12</wgt>
  <wgt id="424">8.21856e-12</wgt>
  <wgt id="425">7.97799e-12</wgt>
  <wgt id="426">8.07057e-12</wgt>
  <wgt id="427">8.00184e-12</wgt>
  <wgt id="428">8.26767e-12</wgt>
  <wgt id="429">8.13779e-12</wgt>
  <wgt id="430">8.35487e-12</wgt>
  <wgt id="431">8.31177e-12</wgt>
  <wgt id="432">8.27086e-12</wgt>
  <wgt id="433">8.23119e-12</wgt>
  <wgt id="434">8.183e-12</wgt>
  <wgt id="435">8.08168e-12</wgt>
  <wgt id="436">8.02949e-12</wgt>
  <wgt id="437">7.97995e-12</wgt>
  <wgt id="438">8.13779e-12</wgt>
  <wgt id="439">8.16428e-12</wgt>
  <wgt id="440">8.14884e-12</wgt>
  <wgt id="441">8.12966e-12</wgt>
  <wgt id="442">8.12284e-12</wgt>
  <wgt id="443">7.86995e-12</wgt>
  <wgt id="444">7.91338e-12</wgt>
  <wgt id="445">7.86005e-12</wgt>
  <wgt id="446">7.81954e-12</wgt>
  <wgt id="447">7.85199e-12</wgt>
  <wgt id="448">7.67768e-12</wgt>
  <wgt id="449">7.98732e-12</wgt>
  <wgt id="450">7.86242e-12</wgt>
  <wgt id="451">7.85715e-12</wgt>
  <wgt id="452">8.03155e-12</wgt>
  <wgt id="453">7.93407e-12</wgt>
  <wgt id="454">7.5593e-12</wgt>
  <wgt id="455">7.88802e-12</wgt>
  <wgt id="456">7.81486e-12</wgt>
  <wgt id="457">7.89616e-12</wgt>
  <wgt id="458">7.96369e-12</wgt>
  <wgt id="459">7.92407e-12</wgt>
  <wgt id="460">7.93026e-12</wgt>
  <wgt id="461">7.73379e-12</wgt>
  <wgt id="462">7.81762e-12</wgt>
  <wgt id="463">7.78464e-12</wgt>
  <wgt id="464">7.83346e-12</wgt>
  <wgt id="465">7.94367e-12</wgt>
  <wgt id="466">7.77907e-12</wgt>
  <wgt id="467">7.80358e-12</wgt>
  <wgt id="468">7.85202e-12</wgt>
  <wgt id="469">7.85443e-12</wgt>
  <wgt id="470">7.79741e-12</wgt>
  <wgt id="471">7.80579e-12</wgt>
  <wgt id="472">7.90253e-12</wgt>
  <wgt id="473">7.65213e-12</wgt>
  <wgt id="474">5.79e-12</wgt>
  <wgt id="475">6.04479e-12</wgt>
  <wgt id="476">5.68909e-12</wgt>
  <wgt id="477">5.63051e-12</wgt>
  <wgt id="478">5.83489e-12</wgt>
  <wgt id="479">5.69806e-12</wgt>
  <wgt id="480">5.99753e-12</wgt>
  <wgt id="481">5.70783e-12</wgt>
  <wgt id="482">5.63635e-12</wgt>
  <wgt id="483">5.6502e-12</wgt>
  <wgt id="484">6.06268e-12</wgt>
  <wgt id="485">5.72809e-12</wgt>
  <wgt id="486">5.97306e-12</wgt>
  <wgt id="487">5.82981e-12</wgt>
  <wgt id="488">5.88782e-12</wgt>
  <wgt id="489">5.52916e-12</wgt>
  <wgt id="490">5.60203e-12</wgt>
  <wgt id="491">5.75545e-12</wgt>
  <wgt id="492">5.6572e-12</wgt>
  <wgt id="493">5.57523e-12</wgt>
  <wgt id="494">5.6137e-12</wgt>
  <wgt id="495">5.83254e-12</wgt>
  <wgt id="496">5.60431e-12</wgt>
  <wgt id="497">5.57193e-12</wgt>
  <wgt id="498">5.90737e-12</wgt>
  <wgt id="499">5.69045e-12</wgt>
  <wgt id="500">5.67606e-12</wgt>
  <wgt id="501">6.02011e-12</wgt>
  <wgt id="502">5.70115e-12</wgt>
  <wgt id="503">5.79222e-12</wgt>
  <wgt id="504">5.85451e-12</wgt>
  <wgt id="505">5.70367e-12</wgt>
  <wgt id="506">5.80544e-12</wgt>
  <wgt id="507">5.76843e-12</wgt>
  <wgt id="508">5.94122e-12</wgt>
  <wgt id="509">5.53102e-12</wgt>
  <wgt id="510">5.91534e-12</wgt>
  <wgt id="511">5.63331e-12</wgt>
  <wgt id="512">5.91298e-12</wgt>
  <wgt id="513">5.97442e-12</wgt>
  <wgt id="514">5.80881e-12</wgt>
  <wgt id="515">5.75094e-12</wgt>
  <wgt id="516">6.02649e-12</wgt>
  <wgt id="517">5.92538e-12</wgt>
  <wgt id="518">5.94941e-12</wgt>
  <wgt id="519">5.6483e-12</wgt>
  <wgt id="520">5.87034e-12</wgt>
  <wgt id="521">5.96167e-12</wgt>
  <wgt id="522">6.02879e-12</wgt>
  <wgt id="523">5.8071e-12</wgt>
  <wgt id="524">5.80686e-12</wgt>
  <wgt id="525">5.93796e-12</wgt>
  <wgt id="526">5.83072e-12</wgt>
  <wgt id="527">5.86197e-12</wgt>
  <wgt id="528">5.80766e-12</wgt>
  <wgt id="529">5.72599e-12</wgt>
  <wgt id="530">5.88695e-12</wgt>
  <wgt id="531">5.70212e-12</wgt>
  <wgt id="532">6.12316e-12</wgt>
  <wgt id="533">5.50904e-12</wgt>
  <wgt id="534">5.7785e-12</wgt>
  <wgt id="535">5.8313e-12</wgt>
  <wgt id="536">5.75699e-12</wgt>
  <wgt id="537">5.79071e-12</wgt>
  <wgt id="538">5.8703e-12</wgt>
  <wgt id="539">5.68131e-12</wgt>
  <wgt id="540">5.74837e-12</wgt>
  <wgt id="541">5.63813e-12</wgt>
  <wgt id="542">5.70454e-12</wgt>
  <wgt id="543">5.77838e-12</wgt>
  <wgt id="544">6.04979e-12</wgt>
  <wgt id="545">5.68928e-12</wgt>
  <wgt id="546">5.65785e-12</wgt>
  <wgt id="547">5.64765e-12</wgt>
  <wgt id="548">5.55908e-12</wgt>
  <wgt id="549">5.70488e-12</wgt>
  <wgt id="550">5.70808e-12</wgt>
  <wgt id="551">5.87211e-12</wgt>
  <wgt id="552">5.65328e-12</wgt>
  <wgt id="553">5.74793e-12</wgt>
  <wgt id="554">6.20018e-12</wgt>
  <wgt id="555">5.95399e-12</wgt>
  <wgt id="556">5.60203e-12</wgt>
  <wgt id="557">5.91573e-12</wgt>
  <wgt id="558">5.64054e-12</wgt>
  <wgt id="559">5.68055e-12</wgt>
  <wgt id="560">6.3041e-12</wgt>
  <wgt id="561">5.70153e-12</wgt>
  <wgt id="562">5.92337e-12</wgt>
  <wgt id="563">5.73882e-12</wgt>
  <wgt id="564">5.88364e-12</wgt>
  <wgt id="565">5.64588e-12</wgt>
  <wgt id="566">5.86098e-12</wgt>
  <wgt id="567">5.73095e-12</wgt>
  <wgt id="568">5.78089e-12</wgt>
  <wgt id="569">5.87072e-12</wgt>
  <wgt id="570">5.59816e-12</wgt>
  <wgt id="571">6.39474e-12</wgt>
  <wgt id="572">5.69088e-12</wgt>
  <wgt id="573">5.57479e-12</wgt>
  <wgt id="574">5.61334e-12</wgt>
  <wgt id="575">6.35119e-12</wgt>
  <wgt id="576">6.36791e-12</wgt>
  <wgt id="577">6.55925e-12</wgt>
  <wgt id="578">6.5194e-12</wgt>
  <wgt id="579">6.47697e-12</wgt>
  <wgt id="580">6.52251e-12</wgt>
  <wgt id="581">6.79493e-12</wgt>
  <wgt id="582">6.36085e-12</wgt>
  <wgt id="583">6.40364e-12</wgt>
  <wgt id="584">6.33768e-12</wgt>
  <wgt id="585">6.2888e-12</wgt>
  <wgt id="586">6.17214e-12</wgt>
  <wgt id="587">6.43833e-12</wgt>
  <wgt id="588">6.35634e-12</wgt>
  <wgt id="589">6.50638e-12</wgt>
  <wgt id="590">6.3945e-12</wgt>
  <wgt id="591">6.59373e-12</wgt>
  <wgt id="592">6.11235e-12</wgt>
  <wgt id="593">6.30306e-12</wgt>
  <wgt id="594">6.54904e-12</wgt>
  <wgt id="595">6.36073e-12</wgt>
  <wgt id="596">6.51636e-12</wgt>
  <wgt id="597">6.19992e-12</wgt>
  <wgt id="598">6.17392e-12</wgt>
  <wgt id="599">6.59854e-12</wgt>
  <wgt id="600">6.34424e-12</wgt>
  <wgt id="601">6.16996e-12</wgt>
  <wgt id="602">6.18769e-12</wgt>
  <wgt id="603">6.2187e-12</wgt>
  <wgt id="604">6.44529e-12</wgt>
  <wgt id="605">6.59076e-12</wgt>
  <wgt id="606">6.28583e-12</wgt>
  <wgt id="607">6.32357e-12</wgt>
  <wgt id="608">6.41214e-12</wgt>
  <wgt id="609">6.05565e-12</wgt>
  <wgt id="610">6.1253e-12</wgt>
  <wgt id="611">6.37965e-12</wgt>
  <wgt id="612">6.81139e-12</wgt>
  <wgt id="613">6.32394e-12</wgt>
  <wgt id="614">6.38953e-12</wgt>
  <wgt id="615">6.2654e-12</wgt>
  <wgt id="616">6.66539e-12</wgt>
  <wgt id="617">6.50866e-12</wgt>
  <wgt id="618">6.62734e-12</wgt>
  <wgt id="619">6.29993e-12</wgt>
  <wgt id="620">6.55534e-12</wgt>
  <wgt id="621">6.38661e-12</wgt>
  <wgt id="622">6.43833e-12</wgt>
  <wgt id="623">6.50788e-12</wgt>
  <wgt id="624">6.33291e-12</wgt>
  <wgt id="625">6.24812e-12</wgt>
  <wgt id="626">6.1451e-12</wgt>
  <wgt id="627">6.08958e-12</wgt>
  <wgt id="628">6.51877e-12</wgt>
  <wgt id="629">6.26052e-12</wgt>
  <wgt id="630">6.1552e-12</wgt>
  <wgt id="631">6.37839e-12</wgt>
  <wgt id="632">6.09928e-12</wgt>
  <wgt id="633">6.30215e-12</wgt>
  <wgt id="634">6.3083e-12</wgt>
  <wgt id="635">6.17208e-12</wgt>
  <wgt id="636">6.41883e-12</wgt>
  <wgt id="637">6.36965e-12</wgt>
  <wgt id="638">6.14645e-12</wgt>
  <wgt id="639">6.26923e-12</wgt>
  <wgt id="640">6.35747e-12</wgt>
  <wgt id="641">6.43465e-12</wgt>
  <wgt id="642">6.10907e-12</wgt>
  <wgt id="643">6.31781e-12</wgt>
  <wgt id="644">6.00365e-12</wgt>
  <wgt id="645">6.38485e-12</wgt>
  <wgt id="646">6.36202e-12</wgt>
  <wgt id="647">6.27408e-12</wgt>
  <wgt id="648">6.42776e-12</wgt>
  <wgt id="649">6.41793e-12</wgt>
  <wgt id="650">6.20456e-12</wgt>
  <wgt id="651">6.48714e-12</wgt>
  <wgt id="652">6.29893e-12</wgt>
  <wgt id="653">6.17355e-12</wgt>
  <wgt id="654">6.27129e-12</wgt>
  <wgt id="655">6.24742e-12</wgt>
  <wgt id="656">6.33399e-12</wgt>
  <wgt id="657">6.64466e-12</wgt>
  <wgt id="658">6.38355e-12</wgt>
  <wgt id="659">6.10106e-12</wgt>
  <wgt id="660">6.43607e-12</wgt>
  <wgt id="661">6.26675e-12</wgt>
  <wgt id="662">6.32127e-12</wgt>
  <wgt id="663">6.36513e-12</wgt>
  <wgt id="664">6.28689e-12</wgt>
  <wgt id="665">6.34514e-12</wgt>
  <wgt id="666">6.30877e-12</wgt>
  <wgt id="667">6.57688e-12</wgt>
  <wgt id="668">6.33801e-12</wgt>
  <wgt id="669">6.49571e-12</wgt>
  <wgt id="670">6.48838e-12</wgt>
  <wgt id="671">6.29703e-12</wgt>
  <wgt id="672">6.09681e-12</wgt>
  <wgt id="673">6.40283e-12</wgt>
  <wgt id="674">6.21208e-12</wgt>
  <wgt id="675">6.25431e-12</wgt>
  <wgt id="676">7.96288e-12</wgt>
  <wgt id="677">8.06768e-12</wgt>
  <wgt id="678">8.36456e-12</wgt>
  <wgt id="679">7.59531e-12</wgt>
  <wgt id="680">7.78594e-12</wgt>
  <wgt id="681">8.10609e-12</wgt>
  <wgt id="682">8.15403e-12</wgt>
  <wgt id="683">7.83173e-12</wgt>
  <wgt id="684">8.28671e-12</wgt>
  <wgt id="685">7.65647e-12</wgt>
  <wgt id="686">7.83401e-12</wgt>
  <wgt id="687">8.27205e-12</wgt>
  <wgt id="688">7.86701e-12</wgt>
  <wgt id="689">8.41022e-12</wgt>
  <wgt id="690">8.32304e-12</wgt>
  <wgt id="691">8.34374e-12</wgt>
  <wgt id="692">7.90705e-12</wgt>
  <wgt id="693">9.3216e-12</wgt>
  <wgt id="694">8.45205e-12</wgt>
  <wgt id="695">7.71059e-12</wgt>
  <wgt id="696">7.66943e-12</wgt>
  <wgt id="697">7.6635e-12</wgt>
  <wgt id="698">7.31227e-12</wgt>
  <wgt id="699">7.23474e-12</wgt>
  <wgt id="700">7.07014e-12</wgt>
  <wgt id="701">7.96593e-12</wgt>
  <wgt id="702">7.76645e-12</wgt>
  <wgt id="703">9.08427e-12</wgt>
  <wgt id="704">8.68107e-12</wgt>
  <wgt id="705">8.41911e-12</wgt>
  <wgt id="706">7.52709e-12</wgt>
  <wgt id="707">7.64586e-12</wgt>
  <wgt id="708">7.83405e-12</wgt>
  <wgt id="709">7.80807e-12</wgt>
  <wgt id="710">7.27098e-12</wgt>
  <wgt id="711">7.9414e-12</wgt>
  <wgt id="712">7.77905e-12</wgt>
  <wgt id="713">8.52146e-12</wgt>
  <wgt id="714">7.7848e-12</wgt>
  <wgt id="715">7.85861e-12</wgt>
  <wgt id="716">7.68329e-12</wgt>
  <wgt id="717">7.54409e-12</wgt>
  <wgt id="718">7.96706e-12</wgt>
  <wgt id="719">7.27808e-12</wgt>
  <wgt id="720">7.62992e-12</wgt>
  <wgt id="721">7.3489e-12</wgt>
  <wgt id="722">7.08794e-12</wgt>
  <wgt id="723">8.46939e-12</wgt>
  <wgt id="724">8.32762e-12</wgt>
  <wgt id="725">8.36234e-12</wgt>
  <wgt id="726">8.00883e-12</wgt>
  <wgt id="727">7.81143e-12</wgt>
  <wgt id="728">7.80365e-12</wgt>
  <wgt id="729">7.53968e-12</wgt>
  <wgt id="730">8.46827e-12</wgt>
  <wgt id="731">7.84788e-12</wgt>
  <wgt id="732">8.743e-12</wgt>
  <wgt id="733">7.84518e-12</wgt>
  <wgt id="734">8.13627e-12</wgt>
  <wgt id="735">8.00945e-12</wgt>
  <wgt id="736">7.78031e-12</wgt>
  <wgt id="737">8.04637e-12</wgt>
  <wgt id="738">7.65679e-12</wgt>
  <wgt id="739">8.10368e-12</wgt>
  <wgt id="740">8.83217e-12</wgt>
  <wgt id="741">7.2167e-12</wgt>
  <wgt id="742">7.8675e-12</wgt>
  <wgt id="743">7.62393e-12</wgt>
  <wgt id="744">7.79788e-12</wgt>
  <wgt id="745">8.28586e-12</wgt>
  <wgt id="746">8.42003e-12</wgt>
  <wgt id="747">7.21142e-12</wgt>
  <wgt id="748">7.85452e-12</wgt>
  <wgt id="749">8.33333e-12</wgt>
  <wgt id="750">8.22554e-12</wgt>
  <wgt id="751">8.15967e-12</wgt>
  <wgt id="752">7.34316e-12</wgt>
  <wgt id="753">7.52437e-12</wgt>
  <wgt id="754">8.21697e-12</wgt>
  <wgt id="755">7.96925e-12</wgt>
  <wgt id="756">7.94688e-12</wgt>
  <wgt id="757">7.34304e-12</wgt>
  <wgt id="758">7.97789e-12</wgt>
  <wgt id="759">8.26768e-12</wgt>
  <wgt id="760">8.01502e-12</wgt>
  <wgt id="761">8.40397e-12</wgt>
  <wgt id="762">8.41945e-12</wgt>
  <wgt id="763">7.9579e-12</wgt>
  <wgt id="764">8.25883e-12</wgt>
  <wgt id="765">8.03785e-12</wgt>
  <wgt id="766">7.94885e-12</wgt>
  <wgt id="767">8.1191e-12</wgt>
  <wgt id="768">7.51848e-12</wgt>
  <wgt id="769">8.41241e-12</wgt>
  <wgt id="770">7.82943e-12</wgt>
  <wgt id="771">9.31624e-12</wgt>
  <wgt id="772">7.56408e-12</wgt>
  <wgt id="773">7.91231e-12</wgt>
  <wgt id="774">7.03401e-12</wgt>
  <wgt id="775">8.30996e-12</wgt>
  <wgt id="776">8.61218e-12</wgt>
  <wgt id="777">7.59058e-12</wgt>
  <wgt id="778">5.883e-12</wgt>
  <wgt id="779">4.81066e-12</wgt>
  <wgt id="780">3.91193e-12</wgt>
  <wgt id="781">6.30598e-12</wgt>
  <wgt id="782">6.29289e-12</wgt>
  <wgt id="783">4.86036e-12</wgt>
  <wgt id="784">5.10241e-12</wgt>
  <wgt id="785">7.24744e-12</wgt>
  <wgt id="786">4.52903e-12</wgt>
  <wgt id="787">6.69404e-12</wgt>
  <wgt id="788">3.59899e-12</wgt>
  <wgt id="789">4.89336e-12</wgt>
  <wgt id="790">4.46211e-12</wgt>
  <wgt id="791">5.69353e-12</wgt>
  <wgt id="792">7.77501e-12</wgt>
  <wgt id="793">5.7909e-12</wgt>
  <wgt id="794">4.45043e-12</wgt>
  <wgt id="795">6.88079e-12</wgt>
  <wgt id="796">7.65437e-12</wgt>
  <wgt id="797">6.87607e-12</wgt>
  <wgt id="798">5.32999e-12</wgt>
  <wgt id="799">6.66489e-12</wgt>
  <wgt id="800">4.89696e-12</wgt>
  <wgt id="801">5.48532e-12</wgt>
  <wgt id="802">4.46503e-12</wgt>
  <wgt id="803">7.95544e-12</wgt>
  <wgt id="804">6.84509e-12</wgt>
  <wgt id="805">6.90533e-12</wgt>
  <wgt id="806">6.50466e-12</wgt>
  <wgt id="807">5.63477e-12</wgt>
  <wgt id="808">5.6887e-12</wgt>
  <wgt id="809">5.46672e-12</wgt>
  <wgt id="810">6.58772e-12</wgt>
  <wgt id="811">6.34055e-12</wgt>
  <wgt id="812">4.46874e-12</wgt>
  <wgt id="813">4.55947e-12</wgt>
  <wgt id="814">4.86621e-12</wgt>
  <wgt id="815">4.81589e-12</wgt>
  <wgt id="816">4.38732e-12</wgt>
  <wgt id="817">6.10927e-12</wgt>
  <wgt id="818">5.99442e-12</wgt>
  <wgt id="819">4.83127e-12</wgt>
  <wgt id="820">5.85083e-12</wgt>
  <wgt id="821">6.68823e-12</wgt>
  <wgt id="822">4.90949e-12</wgt>
  <wgt id="823">6.77308e-12</wgt>
  <wgt id="824">7.87174e-12</wgt>
  <wgt id="825">4.30767e-12</wgt>
  <wgt id="826">6.26612e-12</wgt>
  <wgt id="827">3.61966e-12</wgt>
  <wgt id="828">7.50103e-12</wgt>
  <wgt id="829">6.0603e-12</wgt>
  <wgt id="830">4.09523e-12</wgt>
  <wgt id="831">6.34113e-12</wgt>
  <wgt id="832">9.5277e-12</wgt>
  <wgt id="833">5.42659e-12</wgt>
  <wgt id="834">9.03474e-12</wgt>
  <wgt id="835">4.81548e-12</wgt>
  <wgt id="836">5.70515e-12</wgt>
  <wgt id="837">6.60648e-12</wgt>
  <wgt id="838">5.48588e-12</wgt>
  <wgt id="839">6.30623e-12</wgt>
  <wgt id="840">5.47676e-12</wgt>
  <wgt id="841">7.22746e-12</wgt>
  <wgt id="842">5.42695e-12</wgt>
  <wgt id="843">5.85548e-12</wgt>
  <wgt id="844">6.13023e-12</wgt>
  <wgt id="845">8.42726e-12</wgt>
  <wgt id="846">5.81455e-12</wgt>
  <wgt id="847">5.95555e-12</wgt>
  <wgt id="848">4.99829e-12</wgt>
  <wgt id="849">6.04263e-12</wgt>
  <wgt id="850">7.64111e-12</wgt>
  <wgt id="851">6.45947e-12</wgt>
  <wgt id="852">4.8367e-12</wgt>
  <wgt id="853">6.49014e-12</wgt>
  <wgt id="854">7.17738e-12</wgt>
  <wgt id="855">6.7277e-12</wgt>
  <wgt id="856">4.17179e-12</wgt>
  <wgt id="857">5.81402e-12</wgt>
  <wgt id="858">5.6686e-12</wgt>
  <wgt id="859">5.53718e-12</wgt>
  <wgt id="860">6.40884e-12</wgt>
  <wgt id="861">5.20674e-12</wgt>
  <wgt id="862">5.94819e-12</wgt>
  <wgt id="863">6.24056e-12</wgt>
  <wgt id="864">6.18616e-12</wgt>
  <wgt id="865">8.30951e-12</wgt>
  <wgt id="866">9.13901e-12</wgt>
  <wgt id="867">5.94893e-12</wgt>
  <wgt id="868">5.78657e-12</wgt>
  <wgt id="869">4.52641e-12</wgt>
  <wgt id="870">4.78634e-12</wgt>
  <wgt id="871">4.65118e-12</wgt>
  <wgt id="872">7.04417e-12</wgt>
  <wgt id="873">4.94799e-12</wgt>
  <wgt id="874">6.19156e-12</wgt>
  <wgt id="875">5.09498e-12</wgt>
  <wgt id="876">6.99582e-12</wgt>
  <wgt id="877">6.6337e-12</wgt>
  <wgt id="878">5.02844e-12</wgt>
  <wgt id="879">7.96288e-12</wgt>
  <wgt id="880">8.06768e-12</wgt>
  <wgt id="881">8.36456e-12</wgt>
  <wgt id="882">7.59531e-12</wgt>
  <wgt id="883">7.78594e-12</wgt>
  <wgt id="884">8.10609e-12</wgt>
  <wgt id="885">8.15403e-12</wgt>
  <wgt id="886">7.83173e-12</wgt>
  <wgt id="887">8.28671e-12</wgt>
  <wgt id="888">7.65647e-12</wgt>
  <wgt id="889">7.83401e-12</wgt>
  <wgt id="890">8.27205e-12</wgt>
  <wgt id="891">7.86701e-12</wgt>
  <wgt id="892">8.41022e-12</wgt>
  <wgt id="893">8.32304e-12</wgt>
  <wgt id="894">8.34374e-12</wgt>
  <wgt id="895">7.90705e-12</wgt>
  <wgt id="896">9.3216e-12</wgt>
  <wgt id="897">8.45205e-12</wgt>
  <wgt id="898">7.71059e-12</wgt>
  <wgt id="899">7.66943e-12</wgt>
  <wgt id="900">7.6635e-12</wgt>
  <wgt id="901">7.31227e-12</wgt>
  <wgt id="902">7.23474e-12</wgt>
  <wgt id="903">7.07014e-12</wgt>
  <wgt id="904">7.96593e-12</wgt>
  <wgt id="905">7.76645e-12</wgt>
  <wgt id="906">9.08427e-12</wgt>
  <wgt id="907">8.68107e-12</wgt>
  <wgt id="908">8.41911e-12</wgt>
  <wgt id="909">7.52709e-12</wgt>
  <wgt id="910">7.64586e-12</wgt>
  <wgt id="911">7.83405e-12</wgt>
  <wgt id="912">7.80807e-12</wgt>
  <wgt id="913">7.27098e-12</wgt>
  <wgt id="914">7.9414e-12</wgt>
  <wgt id="915">7.77905e-12</wgt>
  <wgt id="916">8.52146e-12</wgt>
  <wgt id="917">7.7848e-12</wgt>
  <wgt id="918">7.85861e-12</wgt>
  <wgt id="919">7.68329e-12</wgt>
  <wgt id="920">7.54409e-12</wgt>
  <wgt id="921">7.96706e-12</wgt>
  <wgt id="922">7.27808e-12</wgt>
  <wgt id="923">7.62992e-12</wgt>
  <wgt id="924">7.3489e-12</wgt>
  <wgt id="925">7.08794e-12</wgt>
  <wgt id="926">8.46939e-12</wgt>
  <wgt id="927">8.32762e-12</wgt>
  <wgt id="928">8.36234e-12</wgt>
  <wgt id="929">8.00883e-12</wgt>
  <wgt id="930">7.81143e-12</wgt>
  <wgt id="931">7.80365e-12</wgt>
  <wgt id="932">7.53968e-12</wgt>
  <wgt id="933">8.46827e-12</wgt>
  <wgt id="934">7.84788e-12</wgt>
  <wgt id="935">8.743e-12</wgt>
  <wgt id="936">7.84518e-12</wgt>
  <wgt id="937">8.13627e-12</wgt>
  <wgt id="938">8.00945e-12</wgt>
  <wgt id="939">7.78031e-12</wgt>
  <wgt id="940">8.04637e-12</wgt>
  <wgt id="941">7.65679e-12</wgt>
  <wgt id="942">8.10368e-12</wgt>
  <wgt id="943">8.83217e-12</wgt>
  <wgt id="944">7.2167e-12</wgt>
  <wgt id="945">7.8675e-12</wgt>
  <wgt id="946">7.62393e-12</wgt>
  <wgt id="947">7.79788e-12</wgt>
  <wgt id="948">8.28586e-12</wgt>
  <wgt id="949">8.42003e-12</wgt>
  <wgt id="950">7.21142e-12</wgt>
  <wgt id="951">7.85452e-12</wgt>
  <wgt id="952">8.33333e-12</wgt>
  <wgt id="953">8.22554e-12</wgt>
  <wgt id="954">8.15967e-12</wgt>
  <wgt id="955">7.34316e-12</wgt>
  <wgt id="956">7.52437e-12</wgt>
  <wgt id="957">8.21697e-12</wgt>
  <wgt id="958">7.96925e-12</wgt>
  <wgt id="959">7.94688e-12</wgt>
  <wgt id="960">7.34304e-12</wgt>
  <wgt id="961">7.97789e-12</wgt>
  <wgt id="962">8.26768e-12</wgt>
  <wgt id="963">8.01502e-12</wgt>
  <wgt id="964">8.40397e-12</wgt>
  <wgt id="965">8.41945e-12</wgt>
  <wgt id="966">7.9579e-12</wgt>
  <wgt id="967">8.25883e-12</wgt>
  <wgt id="968">8.03785e-12</wgt>
  <wgt id="969">7.94885e-12</wgt>
  <wgt id="970">8.1191e-12</wgt>
  <wgt id="971">7.51848e-12</wgt>
  <wgt id="972">8.41241e-12</wgt>
  <wgt id="973">7.82943e-12</wgt>
  <wgt id="974">9.31624e-12</wgt>
  <wgt id="975">7.56408e-12</wgt>
  <wgt id="976">7.91231e-12</wgt>
  <wgt id="977">7.03401e-12</wgt>
  <wgt id="978">8.30996e-12</wgt>
  <wgt id="979">8.61218e-12</wgt>
  <wgt id="980">7.95778e-12</wgt>
  <wgt id="981">7.99985e-12</wgt>
  <wgt id="982">7.72685e-12</wgt>
</rwgt>
</event>
<event>
 5   1  0.5790000E-11  0.2123979E+04  0.7818608E-02  0.7778125E-01
       21   -1    0    0  502  501  0.00000000000E+00  0.00000000000E+00  0.21921252741E+04  0.21921252741E+04  0.00000000000E+00 0. -1.
       21   -1    0    0  501  502 -0.00000000000E+00 -0.00000000000E+00 -0.51448767772E+03  0.51448767772E+03  0.00000000000E+00 0.  1.
       39    2    1    2    0    0  0.00000000000E+00  0.00000000000E+00  0.16776375964E+04  0.27066129518E+04  0.21239787584E+04 0.  0.
       25    1    3    3    0    0 -0.63848287442E+03  0.83933565583E+03  0.84798300191E+03  0.13589867165E+04  0.12500000000E+03 0.  0.
       25    1    3    3    0    0  0.63848287442E+03 -0.83933565583E+03  0.82965459448E+03  0.13476262354E+04  0.12500000000E+03 0.  0.
<mgrwt>
<rscale>  0 0.21239788E+04</rscale>
<asrwt>0</asrwt>
<pdfrwt beam="1">  1       21 0.33725004E+00 0.21239788E+04</pdfrwt>
<pdfrwt beam="2">  1       21 0.79151952E-01 0.21239788E+04</pdfrwt>
<totfact> 0.10726511E+01</totfact>
</mgrwt>
<rwgt>
  <wgt id="1">5.79e-12</wgt>
  <wgt id="2">5.00529e-12</wgt>
  <wgt id="3">6.77192e-12</wgt>
  <wgt id="4">5.79e-12</wgt>
  <wgt id="5">5.00529e-12</wgt>
  <wgt id="6">6.77192e-12</wgt>
  <wgt id="7">5.79e-12</wgt>
  <wgt id="8">5.00529e-12</wgt>
  <wgt id="9">6.77192e-12</wgt>
  <wgt id="10">6.08138e-12</wgt>
  <wgt id="11">6.08036e-12</wgt>
  <wgt id="12">6.06531e-12</wgt>
  <wgt id="13">6.0714e-12</wgt>
  <wgt id="14">6.10001e-12</wgt>
  <wgt id="15">6.09034e-12</wgt>
  <wgt id="16">6.06446e-12</wgt>
  <wgt id="17">6.11644e-12</wgt>
  <wgt id="18">6.07579e-12</wgt>
  <wgt id="19">6.10855e-12</wgt>
  <wgt id="20">6.08256e-12</wgt>
  <wgt id="21">6.03056e-12</wgt>
  <wgt id="22">6.03376e-12</wgt>
  <wgt id="23">5.98061e-12</wgt>
  <wgt id="24">6.03201e-12</wgt>
  <wgt id="25">6.05828e-12</wgt>
  <wgt id="26">6.09733e-12</wgt>
  <wgt id="27">6.06765e-12</wgt>
  <wgt id="28">6.0409e-12</wgt>
  <wgt id="29">6.08275e-12</wgt>
  <wgt id="30">6.02741e-12</wgt>
  <wgt id="31">6.10787e-12</wgt>
  <wgt id="32">6.02985e-12</wgt>
  <wgt id="33">6.08856e-12</wgt>
  <wgt id="34">6.03688e-12</wgt>
  <wgt id="35">6.0347e-12</wgt>
  <wgt id="36">6.11548e-12</wgt>
  <wgt id="37">6.06001e-12</wgt>
  <wgt id="38">6.05126e-12</wgt>
  <wgt id="39">6.19715e-12</wgt>
  <wgt id="40">6.08811e-12</wgt>
  <wgt id="41">6.07875e-12</wgt>
  <wgt id="42">6.09106e-12</wgt>
  <wgt id="43">6.08696e-12</wgt>
  <wgt id="44">6.12658e-12</wgt>
  <wgt id="45">6.08901e-12</wgt>
  <wgt id="46">6.05274e-12</wgt>
  <wgt id="47">6.15759e-12</wgt>
  <wgt id="48">6.12427e-12</wgt>
  <wgt id="49">6.03806e-12</wgt>
  <wgt id="50">6.0162e-12</wgt>
  <wgt id="51">6.03506e-12</wgt>
  <wgt id="52">6.10161e-12</wgt>
  <wgt id="53">6.15591e-12</wgt>
  <wgt id="54">6.11997e-12</wgt>
  <wgt id="55">6.0749e-12</wgt>
  <wgt id="56">6.03647e-12</wgt>
  <wgt id="57">6.03226e-12</wgt>
  <wgt id="58">6.0805e-12</wgt>
  <wgt id="59">6.09699e-12</wgt>
  <wgt id="60">6.01844e-12</wgt>
  <wgt id="61">6.05204e-12</wgt>
  <wgt id="62">6.07605e-12</wgt>
  <wgt id="63">6.07763e-12</wgt>
  <wgt id="64">6.07489e-12</wgt>
  <wgt id="65">6.04702e-12</wgt>
  <wgt id="66">6.09282e-12</wgt>
  <wgt id="67">6.08604e-12</wgt>
  <wgt id="68">6.07894e-12</wgt>
  <wgt id="69">6.06705e-12</wgt>
  <wgt id="70">6.05503e-12</wgt>
  <wgt id="71">6.08359e-12</wgt>
  <wgt id="72">6.05218e-12</wgt>
  <wgt id="73">6.10258e-12</wgt>
  <wgt id="74">6.11111e-12</wgt>
  <wgt id="75">6.07411e-12</wgt>
  <wgt id="76">6.12635e-12</wgt>
  <wgt id="77">6.0686e-12</wgt>
  <wgt id="78">6.07577e-12</wgt>
  <wgt id="79">6.09611e-12</wgt>
  <wgt id="80">6.02573e-12</wgt>
  <wgt id="81">6.0779e-12</wgt>
  <wgt id="82">6.08814e-12</wgt>
  <wgt id="83">6.03823e-12</wgt>
  <wgt id="84">6.05501e-12</wgt>
  <wgt id="85">6.05357e-12</wgt>
  <wgt id="86">6.11051e-12</wgt>
  <wgt id="87">6.01697e-12</wgt>
  <wgt id="88">6.10266e-12</wgt>
  <wgt id="89">6.09572e-12</wgt>
  <wgt id="90">6.10492e-12</wgt>
  <wgt id="91">6.08936e-12</wgt>
  <wgt id="92">6.10116e-12</wgt>
  <wgt id="93">6.08842e-12</wgt>
  <wgt id="94">6.06137e-12</wgt>
  <wgt id="95">6.10215e-12</wgt>
  <wgt id="96">6.09998e-12</wgt>
  <wgt id="97">6.05375e-12</wgt>
  <wgt id="98">6.08153e-12</wgt>
  <wgt id="99">6.07534e-12</wgt>
  <wgt id="100">6.09518e-12</wgt>
  <wgt id="101">6.06997e-12</wgt>
  <wgt id="102">6.06792e-12</wgt>
  <wgt id="103">6.10559e-12</wgt>
  <wgt id="104">6.06952e-12</wgt>
  <wgt id="105">6.098e-12</wgt>
  <wgt id="106">6.06323e-12</wgt>
  <wgt id="107">6.12142e-12</wgt>
  <wgt id="108">6.06828e-12</wgt>
  <wgt id="109">6.08467e-12</wgt>
  <wgt id="110">6.07996e-12</wgt>
  <wgt id="111">6.06488e-12</wgt>
  <wgt id="112">6.17011e-12</wgt>
  <wgt id="113">8.72085e-12</wgt>
  <wgt id="114">7.96449e-12</wgt>
  <wgt id="115">7.80584e-12</wgt>
  <wgt id="116">1.04971e-11</wgt>
  <wgt id="117">6.60833e-12</wgt>
  <wgt id="118">6.63125e-12</wgt>
  <wgt id="119">6.59519e-12</wgt>
  <wgt id="120">6.60854e-12</wgt>
  <wgt id="121">6.60813e-12</wgt>
  <wgt id="122">6.59787e-12</wgt>
  <wgt id="123">6.62278e-12</wgt>
  <wgt id="124">6.59948e-12</wgt>
  <wgt id="125">6.61402e-12</wgt>
  <wgt id="126">6.61616e-12</wgt>
  <wgt id="127">6.60317e-12</wgt>
  <wgt id="128">6.62834e-12</wgt>
  <wgt id="129">6.5885e-12</wgt>
  <wgt id="130">6.63852e-12</wgt>
  <wgt id="131">6.57688e-12</wgt>
  <wgt id="132">6.42745e-12</wgt>
  <wgt id="133">6.82335e-12</wgt>
  <wgt id="134">6.53983e-12</wgt>
  <wgt id="135">6.66209e-12</wgt>
  <wgt id="136">6.70957e-12</wgt>
  <wgt id="137">6.4866e-12</wgt>
  <wgt id="138">6.90837e-12</wgt>
  <wgt id="139">6.32394e-12</wgt>
  <wgt id="140">6.57863e-12</wgt>
  <wgt id="141">6.63031e-12</wgt>
  <wgt id="142">6.60616e-12</wgt>
  <wgt id="143">6.63001e-12</wgt>
  <wgt id="144">6.33067e-12</wgt>
  <wgt id="145">6.8789e-12</wgt>
  <wgt id="146">6.69729e-12</wgt>
  <wgt id="147">6.53507e-12</wgt>
  <wgt id="148">6.63226e-12</wgt>
  <wgt id="149">6.60657e-12</wgt>
  <wgt id="150">6.66239e-12</wgt>
  <wgt id="151">6.58295e-12</wgt>
  <wgt id="152">6.60957e-12</wgt>
  <wgt id="153">6.60782e-12</wgt>
  <wgt id="154">6.61758e-12</wgt>
  <wgt id="155">6.5821e-12</wgt>
  <wgt id="156">6.83787e-12</wgt>
  <wgt id="157">6.40014e-12</wgt>
  <wgt id="158">7.9146e-12</wgt>
  <wgt id="159">7.94877e-12</wgt>
  <wgt id="160">7.88746e-12</wgt>
  <wgt id="161">7.89596e-12</wgt>
  <wgt id="162">7.9358e-12</wgt>
  <wgt id="163">7.90655e-12</wgt>
  <wgt id="164">7.92709e-12</wgt>
  <wgt id="165">7.91773e-12</wgt>
  <wgt id="166">7.91277e-12</wgt>
  <wgt id="167">7.90936e-12</wgt>
  <wgt id="168">7.9225e-12</wgt>
  <wgt id="169">7.88175e-12</wgt>
  <wgt id="170">7.93514e-12</wgt>
  <wgt id="171">7.91049e-12</wgt>
  <wgt id="172">7.92082e-12</wgt>
  <wgt id="173">7.89804e-12</wgt>
  <wgt id="174">7.92084e-12</wgt>
  <wgt id="175">7.6914e-12</wgt>
  <wgt id="176">8.20701e-12</wgt>
  <wgt id="177">7.94807e-12</wgt>
  <wgt id="178">7.88469e-12</wgt>
  <wgt id="179">8.3182e-12</wgt>
  <wgt id="180">7.29397e-12</wgt>
  <wgt id="181">7.6527e-12</wgt>
  <wgt id="182">8.08997e-12</wgt>
  <wgt id="183">7.7558e-12</wgt>
  <wgt id="184">7.99378e-12</wgt>
  <wgt id="185">7.82457e-12</wgt>
  <wgt id="186">8.023e-12</wgt>
  <wgt id="187">7.82265e-12</wgt>
  <wgt id="188">8.07679e-12</wgt>
  <wgt id="189">7.85281e-12</wgt>
  <wgt id="190">7.94024e-12</wgt>
  <wgt id="191">7.94416e-12</wgt>
  <wgt id="192">7.89737e-12</wgt>
  <wgt id="193">8.04653e-12</wgt>
  <wgt id="194">7.84807e-12</wgt>
  <wgt id="195">7.62855e-12</wgt>
  <wgt id="196">8.37849e-12</wgt>
  <wgt id="197">7.95591e-12</wgt>
  <wgt id="198">7.90465e-12</wgt>
  <wgt id="199">7.9146e-12</wgt>
  <wgt id="200">7.99154e-12</wgt>
  <wgt id="201">7.96594e-12</wgt>
  <wgt id="202">7.94076e-12</wgt>
  <wgt id="203">7.90587e-12</wgt>
  <wgt id="204">7.88782e-12</wgt>
  <wgt id="205">7.8725e-12</wgt>
  <wgt id="206">7.77093e-12</wgt>
  <wgt id="207">7.8167e-12</wgt>
  <wgt id="208">7.72487e-12</wgt>
  <wgt id="209">7.79128e-12</wgt>
  <wgt id="210">7.75584e-12</wgt>
  <wgt id="211">7.76875e-12</wgt>
  <wgt id="212">7.77251e-12</wgt>
  <wgt id="213">7.76998e-12</wgt>
  <wgt id="214">7.77169e-12</wgt>
  <wgt id="215">7.77607e-12</wgt>
  <wgt id="216">7.76725e-12</wgt>
  <wgt id="217">7.78648e-12</wgt>
  <wgt id="218">7.75832e-12</wgt>
  <wgt id="219">7.75836e-12</wgt>
  <wgt id="220">7.77841e-12</wgt>
  <wgt id="221">7.77513e-12</wgt>
  <wgt id="222">7.7581e-12</wgt>
  <wgt id="223">7.33452e-12</wgt>
  <wgt id="224">8.17056e-12</wgt>
  <wgt id="225">7.67718e-12</wgt>
  <wgt id="226">7.88999e-12</wgt>
  <wgt id="227">7.6981e-12</wgt>
  <wgt id="228">7.80279e-12</wgt>
  <wgt id="229">7.66166e-12</wgt>
  <wgt id="230">7.82482e-12</wgt>
  <wgt id="231">8.03665e-12</wgt>
  <wgt id="232">7.55324e-12</wgt>
  <wgt id="233">7.72055e-12</wgt>
  <wgt id="234">7.85553e-12</wgt>
  <wgt id="235">7.43139e-12</wgt>
  <wgt id="236">8.04578e-12</wgt>
  <wgt id="237">7.57573e-12</wgt>
  <wgt id="238">7.83541e-12</wgt>
  <wgt id="239">7.69252e-12</wgt>
  <wgt id="240">7.91133e-12</wgt>
  <wgt id="241">7.67537e-12</wgt>
  <wgt id="242">7.88246e-12</wgt>
  <wgt id="243">7.90548e-12</wgt>
  <wgt id="244">7.76391e-12</wgt>
  <wgt id="245">7.76849e-12</wgt>
  <wgt id="246">7.80903e-12</wgt>
  <wgt id="247">7.77093e-12</wgt>
  <wgt id="248">7.8552e-12</wgt>
  <wgt id="249">7.82693e-12</wgt>
  <wgt id="250">7.79624e-12</wgt>
  <wgt id="251">7.75595e-12</wgt>
  <wgt id="252">7.73494e-12</wgt>
  <wgt id="253">7.72085e-12</wgt>
  <wgt id="254">7.47129e-12</wgt>
  <wgt id="255">7.4775e-12</wgt>
  <wgt id="256">7.46435e-12</wgt>
  <wgt id="257">7.47741e-12</wgt>
  <wgt id="258">7.46685e-12</wgt>
  <wgt id="259">7.52126e-12</wgt>
  <wgt id="260">7.42328e-12</wgt>
  <wgt id="261">7.48148e-12</wgt>
  <wgt id="262">7.4596e-12</wgt>
  <wgt id="263">7.46583e-12</wgt>
  <wgt id="264">7.47734e-12</wgt>
  <wgt id="265">7.46289e-12</wgt>
  <wgt id="266">7.48798e-12</wgt>
  <wgt id="267">7.47404e-12</wgt>
  <wgt id="268">7.46805e-12</wgt>
  <wgt id="269">7.49269e-12</wgt>
  <wgt id="270">7.45682e-12</wgt>
  <wgt id="271">7.44934e-12</wgt>
  <wgt id="272">7.49606e-12</wgt>
  <wgt id="273">7.45314e-12</wgt>
  <wgt id="274">7.485e-12</wgt>
  <wgt id="275">7.42454e-12</wgt>
  <wgt id="276">7.52012e-12</wgt>
  <wgt id="277">7.42862e-12</wgt>
  <wgt id="278">7.51065e-12</wgt>
  <wgt id="279">7.3399e-12</wgt>
  <wgt id="280">7.63685e-12</wgt>
  <wgt id="281">7.437e-12</wgt>
  <wgt id="282">7.48344e-12</wgt>
  <wgt id="283">7.22813e-12</wgt>
  <wgt id="284">7.77543e-12</wgt>
  <wgt id="285">7.06789e-12</wgt>
  <wgt id="286">7.81386e-12</wgt>
  <wgt id="287">7.49823e-12</wgt>
  <wgt id="288">7.43693e-12</wgt>
  <wgt id="289">7.53218e-12</wgt>
  <wgt id="290">7.33869e-12</wgt>
  <wgt id="291">7.44224e-12</wgt>
  <wgt id="292">7.47054e-12</wgt>
  <wgt id="293">7.40551e-12</wgt>
  <wgt id="294">7.53701e-12</wgt>
  <wgt id="295">7.31096e-12</wgt>
  <wgt id="296">7.66768e-12</wgt>
  <wgt id="297">7.45133e-12</wgt>
  <wgt id="298">7.50878e-12</wgt>
  <wgt id="299">7.44615e-12</wgt>
  <wgt id="300">7.53782e-12</wgt>
  <wgt id="301">7.31786e-12</wgt>
  <wgt id="302">7.82159e-12</wgt>
  <wgt id="303">7.38691e-12</wgt>
  <wgt id="304">7.51853e-12</wgt>
  <wgt id="305">7.39011e-12</wgt>
  <wgt id="306">7.39682e-12</wgt>
  <wgt id="307">7.38328e-12</wgt>
  <wgt id="308">7.39678e-12</wgt>
  <wgt id="309">7.38617e-12</wgt>
  <wgt id="310">7.44098e-12</wgt>
  <wgt id="311">7.34391e-12</wgt>
  <wgt id="312">7.39927e-12</wgt>
  <wgt id="313">7.38065e-12</wgt>
  <wgt id="314">7.38478e-12</wgt>
  <wgt id="315">7.39582e-12</wgt>
  <wgt id="316">7.38184e-12</wgt>
  <wgt id="317">7.40858e-12</wgt>
  <wgt id="318">7.39587e-12</wgt>
  <wgt id="319">7.3809e-12</wgt>
  <wgt id="320">7.41338e-12</wgt>
  <wgt id="321">7.37769e-12</wgt>
  <wgt id="322">7.36689e-12</wgt>
  <wgt id="323">7.41809e-12</wgt>
  <wgt id="324">7.37784e-12</wgt>
  <wgt id="325">7.4011e-12</wgt>
  <wgt id="326">7.35141e-12</wgt>
  <wgt id="327">7.44037e-12</wgt>
  <wgt id="328">7.35173e-12</wgt>
  <wgt id="329">7.41171e-12</wgt>
  <wgt id="330">7.592e-12</wgt>
  <wgt id="331">7.19884e-12</wgt>
  <wgt id="332">7.36189e-12</wgt>
  <wgt id="333">7.3984e-12</wgt>
  <wgt id="334">7.20638e-12</wgt>
  <wgt id="335">7.62151e-12</wgt>
  <wgt id="336">7.10582e-12</wgt>
  <wgt id="337">7.74381e-12</wgt>
  <wgt id="338">7.48251e-12</wgt>
  <wgt id="339">7.30573e-12</wgt>
  <wgt id="340">7.44454e-12</wgt>
  <wgt id="341">7.25819e-12</wgt>
  <wgt id="342">7.37008e-12</wgt>
  <wgt id="343">7.37426e-12</wgt>
  <wgt id="344">7.3331e-12</wgt>
  <wgt id="345">7.45722e-12</wgt>
  <wgt id="346">7.22797e-12</wgt>
  <wgt id="347">7.57644e-12</wgt>
  <wgt id="348">7.37217e-12</wgt>
  <wgt id="349">7.42409e-12</wgt>
  <wgt id="350">7.3594e-12</wgt>
  <wgt id="351">7.46869e-12</wgt>
  <wgt id="352">7.23744e-12</wgt>
  <wgt id="353">7.72685e-12</wgt>
  <wgt id="354">7.27249e-12</wgt>
  <wgt id="355">7.45963e-12</wgt>
  <wgt id="356">7.47129e-12</wgt>
  <wgt id="357">7.39203e-12</wgt>
  <wgt id="358">7.39011e-12</wgt>
  <wgt id="359">7.46565e-12</wgt>
  <wgt id="360">7.61261e-12</wgt>
  <wgt id="361">7.51247e-12</wgt>
  <wgt id="362">7.66173e-12</wgt>
  <wgt id="363">7.64258e-12</wgt>
  <wgt id="364">7.60391e-12</wgt>
  <wgt id="365">7.57512e-12</wgt>
  <wgt id="366">7.5466e-12</wgt>
  <wgt id="367">7.49221e-12</wgt>
  <wgt id="368">7.45653e-12</wgt>
  <wgt id="369">7.41813e-12</wgt>
  <wgt id="370">7.51247e-12</wgt>
  <wgt id="371">7.54198e-12</wgt>
  <wgt id="372">7.52498e-12</wgt>
  <wgt id="373">7.5016e-12</wgt>
  <wgt id="374">7.51337e-12</wgt>
  <wgt id="375">8.68428e-12</wgt>
  <wgt id="376">8.68427e-12</wgt>
  <wgt id="377">8.68415e-12</wgt>
  <wgt id="378">8.71757e-12</wgt>
  <wgt id="379">8.65127e-12</wgt>
  <wgt id="380">8.70961e-12</wgt>
  <wgt id="381">8.67402e-12</wgt>
  <wgt id="382">8.72093e-12</wgt>
  <wgt id="383">8.64801e-12</wgt>
  <wgt id="384">8.68976e-12</wgt>
  <wgt id="385">8.67902e-12</wgt>
  <wgt id="386">8.70804e-12</wgt>
  <wgt id="387">8.67403e-12</wgt>
  <wgt id="388">8.67737e-12</wgt>
  <wgt id="389">8.69251e-12</wgt>
  <wgt id="390">8.70205e-12</wgt>
  <wgt id="391">8.66566e-12</wgt>
  <wgt id="392">8.60859e-12</wgt>
  <wgt id="393">8.7269e-12</wgt>
  <wgt id="394">8.68872e-12</wgt>
  <wgt id="395">8.67784e-12</wgt>
  <wgt id="396">8.70026e-12</wgt>
  <wgt id="397">8.67294e-12</wgt>
  <wgt id="398">8.67728e-12</wgt>
  <wgt id="399">8.6907e-12</wgt>
  <wgt id="400">8.67252e-12</wgt>
  <wgt id="401">8.70911e-12</wgt>
  <wgt id="402">8.60434e-12</wgt>
  <wgt id="403">8.73789e-12</wgt>
  <wgt id="404">8.94031e-12</wgt>
  <wgt id="405">8.07624e-12</wgt>
  <wgt id="406">8.49789e-12</wgt>
  <wgt id="407">9.09926e-12</wgt>
  <wgt id="408">8.78059e-12</wgt>
  <wgt id="409">8.50618e-12</wgt>
  <wgt id="410">8.38401e-12</wgt>
  <wgt id="411">8.82944e-12</wgt>
  <wgt id="412">8.66319e-12</wgt>
  <wgt id="413">8.71383e-12</wgt>
  <wgt id="414">8.5645e-12</wgt>
  <wgt id="415">8.77699e-12</wgt>
  <wgt id="416">8.98878e-12</wgt>
  <wgt id="417">8.26592e-12</wgt>
  <wgt id="418">8.70345e-12</wgt>
  <wgt id="419">8.5814e-12</wgt>
  <wgt id="420">8.90412e-12</wgt>
  <wgt id="421">8.53428e-12</wgt>
  <wgt id="422">8.6247e-12</wgt>
  <wgt id="423">8.71135e-12</wgt>
  <wgt id="424">8.95372e-12</wgt>
  <wgt id="425">8.49815e-12</wgt>
  <wgt id="426">8.68428e-12</wgt>
  <wgt id="427">8.49459e-12</wgt>
  <wgt id="428">9.10635e-12</wgt>
  <wgt id="429">8.80832e-12</wgt>
  <wgt id="430">9.10228e-12</wgt>
  <wgt id="431">9.04251e-12</wgt>
  <wgt id="432">8.98871e-12</wgt>
  <wgt id="433">8.93542e-12</wgt>
  <wgt id="434">8.86674e-12</wgt>
  <wgt id="435">8.73499e-12</wgt>
  <wgt id="436">8.66894e-12</wgt>
  <wgt id="437">8.60377e-12</wgt>
  <wgt id="438">8.80832e-12</wgt>
  <wgt id="439">8.83426e-12</wgt>
  <wgt id="440">8.81755e-12</wgt>
  <wgt id="441">8.80183e-12</wgt>
  <wgt id="442">8.79712e-12</wgt>
  <wgt id="443">7.84524e-12</wgt>
  <wgt id="444">7.93654e-12</wgt>
  <wgt id="445">7.9556e-12</wgt>
  <wgt id="446">7.78497e-12</wgt>
  <wgt id="447">7.85273e-12</wgt>
  <wgt id="448">7.66384e-12</wgt>
  <wgt id="449">8.01908e-12</wgt>
  <wgt id="450">7.97659e-12</wgt>
  <wgt id="451">7.82134e-12</wgt>
  <wgt id="452">8.01191e-12</wgt>
  <wgt id="453">7.95407e-12</wgt>
  <wgt id="454">7.42586e-12</wgt>
  <wgt id="455">7.92368e-12</wgt>
  <wgt id="456">8.02844e-12</wgt>
  <wgt id="457">7.86816e-12</wgt>
  <wgt id="458">8.00038e-12</wgt>
  <wgt id="459">7.91987e-12</wgt>
  <wgt id="460">8.03319e-12</wgt>
  <wgt id="461">7.64855e-12</wgt>
  <wgt id="462">7.79403e-12</wgt>
  <wgt id="463">7.71156e-12</wgt>
  <wgt id="464">7.80863e-12</wgt>
  <wgt id="465">7.92806e-12</wgt>
  <wgt id="466">7.63254e-12</wgt>
  <wgt id="467">7.78887e-12</wgt>
  <wgt id="468">7.84399e-12</wgt>
  <wgt id="469">7.82641e-12</wgt>
  <wgt id="470">7.71154e-12</wgt>
  <wgt id="471">7.73994e-12</wgt>
  <wgt id="472">7.90408e-12</wgt>
  <wgt id="473">7.59024e-12</wgt>
  <wgt id="474">5.79e-12</wgt>
  <wgt id="475">5.77242e-12</wgt>
  <wgt id="476">5.7657e-12</wgt>
  <wgt id="477">5.88237e-12</wgt>
  <wgt id="478">5.89315e-12</wgt>
  <wgt id="479">5.44356e-12</wgt>
  <wgt id="480">6.15237e-12</wgt>
  <wgt id="481">5.86438e-12</wgt>
  <wgt id="482">5.85173e-12</wgt>
  <wgt id="483">5.90212e-12</wgt>
  <wgt id="484">6.0301e-12</wgt>
  <wgt id="485">5.22865e-12</wgt>
  <wgt id="486">6.1164e-12</wgt>
  <wgt id="487">5.5971e-12</wgt>
  <wgt id="488">5.82489e-12</wgt>
  <wgt id="489">5.12815e-12</wgt>
  <wgt id="490">5.73233e-12</wgt>
  <wgt id="491">5.70847e-12</wgt>
  <wgt id="492">5.71155e-12</wgt>
  <wgt id="493">5.27921e-12</wgt>
  <wgt id="494">5.29876e-12</wgt>
  <wgt id="495">5.83535e-12</wgt>
  <wgt id="496">5.4431e-12</wgt>
  <wgt id="497">5.37046e-12</wgt>
  <wgt id="498">5.95315e-12</wgt>
  <wgt id="499">5.87674e-12</wgt>
  <wgt id="500">5.78127e-12</wgt>
  <wgt id="501">5.99608e-12</wgt>
  <wgt id="502">6.13146e-12</wgt>
  <wgt id="503">5.66946e-12</wgt>
  <wgt id="504">6.01711e-12</wgt>
  <wgt id="505">6.07481e-12</wgt>
  <wgt id="506">5.33108e-12</wgt>
  <wgt id="507">5.62298e-12</wgt>
  <wgt id="508">6.13134e-12</wgt>
  <wgt id="509">5.598e-12</wgt>
  <wgt id="510">5.82388e-12</wgt>
  <wgt id="511">5.46556e-12</wgt>
  <wgt id="512">6.24961e-12</wgt>
  <wgt id="513">6.08696e-12</wgt>
  <wgt id="514">6.2003e-12</wgt>
  <wgt id="515">6.02155e-12</wgt>
  <wgt id="516">6.48652e-12</wgt>
  <wgt id="517">5.92412e-12</wgt>
  <wgt id="518">6.03198e-12</wgt>
  <wgt id="519">5.54706e-12</wgt>
  <wgt id="520">5.85786e-12</wgt>
  <wgt id="521">5.57266e-12</wgt>
  <wgt id="522">5.99463e-12</wgt>
  <wgt id="523">5.46395e-12</wgt>
  <wgt id="524">5.97494e-12</wgt>
  <wgt id="525">5.60382e-12</wgt>
  <wgt id="526">6.16079e-12</wgt>
  <wgt id="527">5.67737e-12</wgt>
  <wgt id="528">5.75188e-12</wgt>
  <wgt id="529">5.44809e-12</wgt>
  <wgt id="530">6.13241e-12</wgt>
  <wgt id="531">5.51999e-12</wgt>
  <wgt id="532">6.28575e-12</wgt>
  <wgt id="533">5.84945e-12</wgt>
  <wgt id="534">5.50986e-12</wgt>
  <wgt id="535">5.9213e-12</wgt>
  <wgt id="536">6.03055e-12</wgt>
  <wgt id="537">5.41889e-12</wgt>
  <wgt id="538">5.71429e-12</wgt>
  <wgt id="539">5.65834e-12</wgt>
  <wgt id="540">6.12997e-12</wgt>
  <wgt id="541">5.75576e-12</wgt>
  <wgt id="542">5.6429e-12</wgt>
  <wgt id="543">5.54454e-12</wgt>
  <wgt id="544">5.79797e-12</wgt>
  <wgt id="545">5.42226e-12</wgt>
  <wgt id="546">5.2402e-12</wgt>
  <wgt id="547">5.567e-12</wgt>
  <wgt id="548">5.6252e-12</wgt>
  <wgt id="549">5.68786e-12</wgt>
  <wgt id="550">5.54891e-12</wgt>
  <wgt id="551">5.77294e-12</wgt>
  <wgt id="552">5.30827e-12</wgt>
  <wgt id="553">5.34308e-12</wgt>
  <wgt id="554">6.03746e-12</wgt>
  <wgt id="555">5.90639e-12</wgt>
  <wgt id="556">5.73233e-12</wgt>
  <wgt id="557">5.88869e-12</wgt>
  <wgt id="558">5.75949e-12</wgt>
  <wgt id="559">5.85909e-12</wgt>
  <wgt id="560">6.38947e-12</wgt>
  <wgt id="561">6.02536e-12</wgt>
  <wgt id="562">6.04027e-12</wgt>
  <wgt id="563">6.4524e-12</wgt>
  <wgt id="564">6.20075e-12</wgt>
  <wgt id="565">6.11193e-12</wgt>
  <wgt id="566">5.5274e-12</wgt>
  <wgt id="567">5.81615e-12</wgt>
  <wgt id="568">5.51636e-12</wgt>
  <wgt id="569">5.89971e-12</wgt>
  <wgt id="570">5.89306e-12</wgt>
  <wgt id="571">6.3837e-12</wgt>
  <wgt id="572">5.56733e-12</wgt>
  <wgt id="573">5.63876e-12</wgt>
  <wgt id="574">5.68255e-12</wgt>
  <wgt id="575">6.36878e-12</wgt>
  <wgt id="576">7.08236e-12</wgt>
  <wgt id="577">6.61695e-12</wgt>
  <wgt id="578">6.41095e-12</wgt>
  <wgt id="579">6.64776e-12</wgt>
  <wgt id="580">6.82054e-12</wgt>
  <wgt id="581">7.06056e-12</wgt>
  <wgt id="582">6.93377e-12</wgt>
  <wgt id="583">6.55984e-12</wgt>
  <wgt id="584">6.29444e-12</wgt>
  <wgt id="585">5.82131e-12</wgt>
  <wgt id="586">5.95333e-12</wgt>
  <wgt id="587">6.51779e-12</wgt>
  <wgt id="588">7.16338e-12</wgt>
  <wgt id="589">7.08622e-12</wgt>
  <wgt id="590">6.33604e-12</wgt>
  <wgt id="591">6.53591e-12</wgt>
  <wgt id="592">5.93615e-12</wgt>
  <wgt id="593">6.12499e-12</wgt>
  <wgt id="594">6.12446e-12</wgt>
  <wgt id="595">6.80799e-12</wgt>
  <wgt id="596">7.63387e-12</wgt>
  <wgt id="597">6.52274e-12</wgt>
  <wgt id="598">6.52058e-12</wgt>
  <wgt id="599">6.87923e-12</wgt>
  <wgt id="600">6.98118e-12</wgt>
  <wgt id="601">6.08729e-12</wgt>
  <wgt id="602">6.12045e-12</wgt>
  <wgt id="603">5.86559e-12</wgt>
  <wgt id="604">6.57016e-12</wgt>
  <wgt id="605">6.35565e-12</wgt>
  <wgt id="606">6.50961e-12</wgt>
  <wgt id="607">6.7558e-12</wgt>
  <wgt id="608">6.64471e-12</wgt>
  <wgt id="609">6.35068e-12</wgt>
  <wgt id="610">6.0328e-12</wgt>
  <wgt id="611">5.9593e-12</wgt>
  <wgt id="612">6.44202e-12</wgt>
  <wgt id="613">6.01577e-12</wgt>
  <wgt id="614">6.32733e-12</wgt>
  <wgt id="615">6.56365e-12</wgt>
  <wgt id="616">5.92392e-12</wgt>
  <wgt id="617">6.66752e-12</wgt>
  <wgt id="618">7.07622e-12</wgt>
  <wgt id="619">6.22536e-12</wgt>
  <wgt id="620">6.57629e-12</wgt>
  <wgt id="621">6.26765e-12</wgt>
  <wgt id="622">6.51779e-12</wgt>
  <wgt id="623">6.35555e-12</wgt>
  <wgt id="624">6.40999e-12</wgt>
  <wgt id="625">6.02723e-12</wgt>
  <wgt id="626">5.48134e-12</wgt>
  <wgt id="627">5.65885e-12</wgt>
  <wgt id="628">6.31726e-12</wgt>
  <wgt id="629">6.69449e-12</wgt>
  <wgt id="630">6.13172e-12</wgt>
  <wgt id="631">6.59695e-12</wgt>
  <wgt id="632">5.75452e-12</wgt>
  <wgt id="633">6.33137e-12</wgt>
  <wgt id="634">6.00379e-12</wgt>
  <wgt id="635">5.81893e-12</wgt>
  <wgt id="636">6.41995e-12</wgt>
  <wgt id="637">6.28912e-12</wgt>
  <wgt id="638">6.03215e-12</wgt>
  <wgt id="639">6.02303e-12</wgt>
  <wgt id="640">6.14941e-12</wgt>
  <wgt id="641">6.73973e-12</wgt>
  <wgt id="642">5.59965e-12</wgt>
  <wgt id="643">6.14633e-12</wgt>
  <wgt id="644">5.6894e-12</wgt>
  <wgt id="645">6.35066e-12</wgt>
  <wgt id="646">5.65717e-12</wgt>
  <wgt id="647">6.53525e-12</wgt>
  <wgt id="648">6.75237e-12</wgt>
  <wgt id="649">6.3917e-12</wgt>
  <wgt id="650">6.08835e-12</wgt>
  <wgt id="651">6.85349e-12</wgt>
  <wgt id="652">6.01908e-12</wgt>
  <wgt id="653">6.05572e-12</wgt>
  <wgt id="654">6.49693e-12</wgt>
  <wgt id="655">6.05994e-12</wgt>
  <wgt id="656">6.4324e-12</wgt>
  <wgt id="657">7.0801e-12</wgt>
  <wgt id="658">6.26637e-12</wgt>
  <wgt id="659">6.10961e-12</wgt>
  <wgt id="660">6.06999e-12</wgt>
  <wgt id="661">6.17036e-12</wgt>
  <wgt id="662">6.2775e-12</wgt>
  <wgt id="663">6.53819e-12</wgt>
  <wgt id="664">6.5304e-12</wgt>
  <wgt id="665">6.25972e-12</wgt>
  <wgt id="666">6.17922e-12</wgt>
  <wgt id="667">6.74168e-12</wgt>
  <wgt id="668">6.25131e-12</wgt>
  <wgt id="669">6.28818e-12</wgt>
  <wgt id="670">6.73531e-12</wgt>
  <wgt id="671">6.5022e-12</wgt>
  <wgt id="672">6.29215e-12</wgt>
  <wgt id="673">6.89377e-12</wgt>
  <wgt id="674">6.14935e-12</wgt>
  <wgt id="675">6.09585e-12</wgt>
  <wgt id="676">8.26145e-12</wgt>
  <wgt id="677">8.35108e-12</wgt>
  <wgt id="678">9.16214e-12</wgt>
  <wgt id="679">8.73061e-12</wgt>
  <wgt id="680">8.39304e-12</wgt>
  <wgt id="681">7.98594e-12</wgt>
  <wgt id="682">8.78335e-12</wgt>
  <wgt id="683">7.41263e-12</wgt>
  <wgt id="684">8.75677e-12</wgt>
  <wgt id="685">8.35258e-12</wgt>
  <wgt id="686">8.52027e-12</wgt>
  <wgt id="687">8.40671e-12</wgt>
  <wgt id="688">8.01467e-12</wgt>
  <wgt id="689">8.67918e-12</wgt>
  <wgt id="690">8.42007e-12</wgt>
  <wgt id="691">8.46128e-12</wgt>
  <wgt id="692">8.01256e-12</wgt>
  <wgt id="693">1.12857e-11</wgt>
  <wgt id="694">9.19388e-12</wgt>
  <wgt id="695">7.65711e-12</wgt>
  <wgt id="696">7.89618e-12</wgt>
  <wgt id="697">7.33384e-12</wgt>
  <wgt id="698">6.59664e-12</wgt>
  <wgt id="699">6.9406e-12</wgt>
  <wgt id="700">7.31925e-12</wgt>
  <wgt id="701">8.24298e-12</wgt>
  <wgt id="702">7.88661e-12</wgt>
  <wgt id="703">1.04761e-11</wgt>
  <wgt id="704">9.33782e-12</wgt>
  <wgt id="705">9.38895e-12</wgt>
  <wgt id="706">7.67856e-12</wgt>
  <wgt id="707">7.67134e-12</wgt>
  <wgt id="708">7.74177e-12</wgt>
  <wgt id="709">7.92567e-12</wgt>
  <wgt id="710">6.67117e-12</wgt>
  <wgt id="711">8.98942e-12</wgt>
  <wgt id="712">7.66192e-12</wgt>
  <wgt id="713">8.92258e-12</wgt>
  <wgt id="714">7.23699e-12</wgt>
  <wgt id="715">7.80829e-12</wgt>
  <wgt id="716">7.90748e-12</wgt>
  <wgt id="717">7.0165e-12</wgt>
  <wgt id="718">8.50271e-12</wgt>
  <wgt id="719">7.56888e-12</wgt>
  <wgt id="720">8.62795e-12</wgt>
  <wgt id="721">6.93563e-12</wgt>
  <wgt id="722">6.2732e-12</wgt>
  <wgt id="723">9.45349e-12</wgt>
  <wgt id="724">9.05997e-12</wgt>
  <wgt id="725">8.61753e-12</wgt>
  <wgt id="726">8.17285e-12</wgt>
  <wgt id="727">8.35193e-12</wgt>
  <wgt id="728">8.15215e-12</wgt>
  <wgt id="729">7.3711e-12</wgt>
  <wgt id="730">9.28512e-12</wgt>
  <wgt id="731">8.12154e-12</wgt>
  <wgt id="732">9.73626e-12</wgt>
  <wgt id="733">7.57738e-12</wgt>
  <wgt id="734">8.55613e-12</wgt>
  <wgt id="735">8.22647e-12</wgt>
  <wgt id="736">7.53618e-12</wgt>
  <wgt id="737">7.37207e-12</wgt>
  <wgt id="738">7.83072e-12</wgt>
  <wgt id="739">8.74284e-12</wgt>
  <wgt id="740">9.94599e-12</wgt>
  <wgt id="741">8.95852e-12</wgt>
  <wgt id="742">7.74034e-12</wgt>
  <wgt id="743">7.51191e-12</wgt>
  <wgt id="744">8.07304e-12</wgt>
  <wgt id="745">9.14552e-12</wgt>
  <wgt id="746">9.42454e-12</wgt>
  <wgt id="747">6.70811e-12</wgt>
  <wgt id="748">7.92387e-12</wgt>
  <wgt id="749">8.5689e-12</wgt>
  <wgt id="750">9.03503e-12</wgt>
  <wgt id="751">8.29878e-12</wgt>
  <wgt id="752">7.37069e-12</wgt>
  <wgt id="753">7.29857e-12</wgt>
  <wgt id="754">8.692e-12</wgt>
  <wgt id="755">7.99499e-12</wgt>
  <wgt id="756">7.9438e-12</wgt>
  <wgt id="757">6.98278e-12</wgt>
  <wgt id="758">7.95483e-12</wgt>
  <wgt id="759">9.17195e-12</wgt>
  <wgt id="760">7.76991e-12</wgt>
  <wgt id="761">9.29549e-12</wgt>
  <wgt id="762">9.34834e-12</wgt>
  <wgt id="763">8.57885e-12</wgt>
  <wgt id="764">8.92667e-12</wgt>
  <wgt id="765">8.47191e-12</wgt>
  <wgt id="766">8.42373e-12</wgt>
  <wgt id="767">8.45117e-12</wgt>
  <wgt id="768">7.41432e-12</wgt>
  <wgt id="769">8.66196e-12</wgt>
  <wgt id="770">7.59275e-12</wgt>
  <wgt id="771">1.02502e-11</wgt>
  <wgt id="772">8.07661e-12</wgt>
  <wgt id="773">8.35193e-12</wgt>
  <wgt id="774">6.409e-12</wgt>
  <wgt id="775">8.69101e-12</wgt>
  <wgt id="776">9.80995e-12</wgt>
  <wgt id="777">7.09805e-12</wgt>
  <wgt id="778">5.19181e-12</wgt>
  <wgt id="779">2.84206e-12</wgt>
  <wgt id="780">1.36417e-12</wgt>
  <wgt id="781">5.88879e-12</wgt>
  <wgt id="782">6.46076e-12</wgt>
  <wgt id="783">2.2982e-12</wgt>
  <wgt id="784">3.27718e-12</wgt>
  <wgt id="785">8.05971e-12</wgt>
  <wgt id="786">2.27522e-12</wgt>
  <wgt id="787">7.07125e-12</wgt>
  <wgt id="788">5.16622e-14</wgt>
  <wgt id="789">3.2839e-12</wgt>
  <wgt id="790">2.4365e-12</wgt>
  <wgt id="791">6.3315e-12</wgt>
  <wgt id="792">7.16518e-12</wgt>
  <wgt id="793">4.69517e-12</wgt>
  <wgt id="794">2.07957e-12</wgt>
  <wgt id="795">7.60567e-12</wgt>
  <wgt id="796">7.79673e-12</wgt>
  <wgt id="797">6.92177e-12</wgt>
  <wgt id="798">3.63949e-12</wgt>
  <wgt id="799">6.94755e-12</wgt>
  <wgt id="800">3.79287e-12</wgt>
  <wgt id="801">5.31094e-12</wgt>
  <wgt id="802">1.99511e-12</wgt>
  <wgt id="803">8.62769e-12</wgt>
  <wgt id="804">7.795e-12</wgt>
  <wgt id="805">7.34523e-12</wgt>
  <wgt id="806">5.8885e-12</wgt>
  <wgt id="807">5.19565e-12</wgt>
  <wgt id="808">5.02909e-12</wgt>
  <wgt id="809">4.61003e-12</wgt>
  <wgt id="810">6.89888e-12</wgt>
  <wgt id="811">5.45494e-12</wgt>
  <wgt id="812">2.49678e-12</wgt>
  <wgt id="813">2.76096e-12</wgt>
  <wgt id="814">3.3313e-12</wgt>
  <wgt id="815">2.43197e-12</wgt>
  <wgt id="816">3.0408e-12</wgt>
  <wgt id="817">5.29828e-12</wgt>
  <wgt id="818">7.60183e-12</wgt>
  <wgt id="819">2.7522e-12</wgt>
  <wgt id="820">4.76114e-12</wgt>
  <wgt id="821">6.51408e-12</wgt>
  <wgt id="822">4.0941e-12</wgt>
  <wgt id="823">7.03676e-12</wgt>
  <wgt id="824">7.99588e-12</wgt>
  <wgt id="825">1.72288e-12</wgt>
  <wgt id="826">7.07944e-12</wgt>
  <wgt id="827">1.73028e-12</wgt>
  <wgt id="828">6.83611e-12</wgt>
  <wgt id="829">5.38876e-12</wgt>
  <wgt id="830">1.68128e-12</wgt>
  <wgt id="831">6.47289e-12</wgt>
  <wgt id="832">9.92679e-12</wgt>
  <wgt id="833">3.89166e-12</wgt>
  <wgt id="834">9.82686e-12</wgt>
  <wgt id="835">3.26382e-12</wgt>
  <wgt id="836">3.95108e-12</wgt>
  <wgt id="837">6.34623e-12</wgt>
  <wgt id="838">3.82464e-12</wgt>
  <wgt id="839">6.51432e-12</wgt>
  <wgt id="840">4.29522e-12</wgt>
  <wgt id="841">7.76882e-12</wgt>
  <wgt id="842">5.44491e-12</wgt>
  <wgt id="843">5.74426e-12</wgt>
  <wgt id="844">6.05504e-12</wgt>
  <wgt id="845">1.03034e-11</wgt>
  <wgt id="846">4.98757e-12</wgt>
  <wgt id="847">5.81282e-12</wgt>
  <wgt id="848">2.5322e-12</wgt>
  <wgt id="849">5.95315e-12</wgt>
  <wgt id="850">8.6842e-12</wgt>
  <wgt id="851">6.46979e-12</wgt>
  <wgt id="852">1.87437e-12</wgt>
  <wgt id="853">6.83574e-12</wgt>
  <wgt id="854">7.87766e-12</wgt>
  <wgt id="855">6.63082e-12</wgt>
  <wgt id="856">1.63139e-12</wgt>
  <wgt id="857">4.22251e-12</wgt>
  <wgt id="858">5.0219e-12</wgt>
  <wgt id="859">5.06657e-12</wgt>
  <wgt id="860">7.10261e-12</wgt>
  <wgt id="861">4.06666e-12</wgt>
  <wgt id="862">5.43065e-12</wgt>
  <wgt id="863">6.32499e-12</wgt>
  <wgt id="864">5.3633e-12</wgt>
  <wgt id="865">8.97765e-12</wgt>
  <wgt id="866">9.98772e-12</wgt>
  <wgt id="867">5.27699e-12</wgt>
  <wgt id="868">5.60293e-12</wgt>
  <wgt id="869">2.37257e-12</wgt>
  <wgt id="870">3.22953e-12</wgt>
  <wgt id="871">3.45654e-12</wgt>
  <wgt id="872">8.23084e-12</wgt>
  <wgt id="873">3.94422e-12</wgt>
  <wgt id="874">6.00527e-12</wgt>
  <wgt id="875">3.69958e-12</wgt>
  <wgt id="876">7.73153e-12</wgt>
  <wgt id="877">6.08638e-12</wgt>
  <wgt id="878">4.12226e-12</wgt>
  <wgt id="879">8.26145e-12</wgt>
  <wgt id="880">8.35108e-12</wgt>
  <wgt id="881">9.16214e-12</wgt>
  <wgt id="882">8.73061e-12</wgt>
  <wgt id="883">8.39304e-12</wgt>
  <wgt id="884">7.98594e-12</wgt>
  <wgt id="885">8.78335e-12</wgt>
  <wgt id="886">7.41263e-12</wgt>
  <wgt id="887">8.75677e-12</wgt>
  <wgt id="888">8.35258e-12</wgt>
  <wgt id="889">8.52027e-12</wgt>
  <wgt id="890">8.40671e-12</wgt>
  <wgt id="891">8.01467e-12</wgt>
  <wgt id="892">8.67918e-12</wgt>
  <wgt id="893">8.42007e-12</wgt>
  <wgt id="894">8.46128e-12</wgt>
  <wgt id="895">8.01256e-12</wgt>
  <wgt id="896">1.12857e-11</wgt>
  <wgt id="897">9.19388e-12</wgt>
  <wgt id="898">7.65711e-12</wgt>
  <wgt id="899">7.89618e-12</wgt>
  <wgt id="900">7.33384e-12</wgt>
  <wgt id="901">6.59664e-12</wgt>
  <wgt id="902">6.9406e-12</wgt>
  <wgt id="903">7.31925e-12</wgt>
  <wgt id="904">8.24298e-12</wgt>
  <wgt id="905">7.88661e-12</wgt>
  <wgt id="906">1.04761e-11</wgt>
  <wgt id="907">9.33782e-12</wgt>
  <wgt id="908">9.38895e-12</wgt>
  <wgt id="909">7.67856e-12</wgt>
  <wgt id="910">7.67134e-12</wgt>
  <wgt id="911">7.74177e-12</wgt>
  <wgt id="912">7.92567e-12</wgt>
  <wgt id="913">6.67117e-12</wgt>
  <wgt id="914">8.98942e-12</wgt>
  <wgt id="915">7.66192e-12</wgt>
  <wgt id="916">8.92258e-12</wgt>
  <wgt id="917">7.23699e-12</wgt>
  <wgt id="918">7.80829e-12</wgt>
  <wgt id="919">7.90748e-12</wgt>
  <wgt id="920">7.0165e-12</wgt>
  <wgt id="921">8.50271e-12</wgt>
  <wgt id="922">7.56888e-12</wgt>
  <wgt id="923">8.62795e-12</wgt>
  <wgt id="924">6.93563e-12</wgt>
  <wgt id="925">6.2732e-12</wgt>
  <wgt id="926">9.45349e-12</wgt>
  <wgt id="927">9.05997e-12</wgt>
  <wgt id="928">8.61753e-12</wgt>
  <wgt id="929">8.17285e-12</wgt>
  <wgt id="930">8.35193e-12</wgt>
  <wgt id="931">8.15215e-12</wgt>
  <wgt id="932">7.3711e-12</wgt>
  <wgt id="933">9.28512e-12</wgt>
  <wgt id="934">8.12154e-12</wgt>
  <wgt id="935">9.73626e-12</wgt>
  <wgt id="936">7.57738e-12</wgt>
  <wgt id="937">8.55613e-12</wgt>
  <wgt id="938">8.22647e-12</wgt>
  <wgt id="939">7.53618e-12</wgt>
  <wgt id="940">7.37207e-12</wgt>
  <wgt id="941">7.83072e-12</wgt>
  <wgt id="942">8.74284e-12</wgt>
  <wgt id="943">9.94599e-12</wgt>
  <wgt id="944">8.95852e-12</wgt>
  <wgt id="945">7.74034e-12</wgt>
  <wgt id="946">7.51191e-12</wgt>
  <wgt id="947">8.07304e-12</wgt>
  <wgt id="948">9.14552e-12</wgt>
  <wgt id="949">9.42454e-12</wgt>
  <wgt id="950">6.70811e-12</wgt>
  <wgt id="951">7.92387e-12</wgt>
  <wgt id="952">8.5689e-12</wgt>
  <wgt id="953">9.03503e-12</wgt>
  <wgt id="954">8.29878e-12</wgt>
  <wgt id="955">7.37069e-12</wgt>
  <wgt id="956">7.29857e-12</wgt>
  <wgt id="957">8.692e-12</wgt>
  <wgt id="958">7.99499e-12</wgt>
  <wgt id="959">7.9438e-12</wgt>
  <wgt id="960">6.98278e-12</wgt>
  <wgt id="961">7.95483e-12</wgt>
  <wgt id="962">9.17195e-12</wgt>
  <wgt id="963">7.76991e-12</wgt>
  <wgt id="964">9.29549e-12</wgt>
  <wgt id="965">9.34834e-12</wgt>
  <wgt id="966">8.57885e-12</wgt>
  <wgt id="967">8.92667e-12</wgt>
  <wgt id="968">8.47191e-12</wgt>
  <wgt id="969">8.42373e-12</wgt>
  <wgt id="970">8.45117e-12</wgt>
  <wgt id="971">7.41432e-12</wgt>
  <wgt id="972">8.66196e-12</wgt>
  <wgt id="973">7.59275e-12</wgt>
  <wgt id="974">1.02502e-11</wgt>
  <wgt id="975">8.07661e-12</wgt>
  <wgt id="976">8.35193e-12</wgt>
  <wgt id="977">6.409e-12</wgt>
  <wgt id="978">8.69101e-12</wgt>
  <wgt id="979">9.80995e-12</wgt>
  <wgt id="980">8.19408e-12</wgt>
  <wgt id="981">8.49582e-12</wgt>
  <wgt id="982">8.0191e-12</wgt>
</rwgt>
</event>
<event>
 5   1  0.5790000E-11  0.2278499E+04  0.7818608E-02  0.7719932E-01
       21   -1    0    0  502  501  0.00000000000E+00  0.00000000000E+00  0.20200877759E+04  0.20200877759E+04  0.00000000000E+00 0. -1.
       21   -1    0    0  501  502 -0.00000000000E+00 -0.00000000000E+00 -0.64249144228E+03  0.64249144228E+03  0.00000000000E+00 0.  1.
       39    2    1    2    0    0  0.00000000000E+00  0.00000000000E+00  0.13775963336E+04  0.26625792182E+04  0.22784987239E+04 0.  0.
       25    1    3    3    0    0  0.79595526587E+03  0.80238127439E+03  0.77062804066E+03  0.13736277050E+04  0.12500000000E+03 0.  0.
       25    1    3    3    0    0 -0.79595526587E+03 -0.80238127439E+03  0.60696829294E+03  0.12889515132E+04  0.12500000000E+03 0.  0.
<mgrwt>
<rscale>  0 0.22784987E+04</rscale>
<asrwt>0</asrwt>
<pdfrwt beam="1">  1       21 0.31078273E+00 0.22784987E+04</pdfrwt>
<pdfrwt beam="2">  1       21 0.98844838E-01 0.22784987E+04</pdfrwt>
<totfact> 0.87682325E+00</totfact>
</mgrwt>
<rwgt>
  <wgt id="1">5.79e-12</wgt>
  <wgt id="2">5.00901e-12</wgt>
  <wgt id="3">6.76612e-12</wgt>
  <wgt id="4">5.79e-12</wgt>
  <wgt id="5">5.00901e-12</wgt>
  <wgt id="6">6.76612e-12</wgt>
  <wgt id="7">5.79e-12</wgt>
  <wgt id="8">5.00901e-12</wgt>
  <wgt id="9">6.76612e-12</wgt>
  <wgt id="10">6.07455e-12</wgt>
  <wgt id="11">6.07211e-12</wgt>
  <wgt id="12">6.06139e-12</wgt>
  <wgt id="13">6.06123e-12</wgt>
  <wgt id="14">6.0953e-12</wgt>
  <wgt id="15">6.08471e-12</wgt>
  <wgt id="16">6.06185e-12</wgt>
  <wgt id="17">6.10474e-12</wgt>
  <wgt id="18">6.06776e-12</wgt>
  <wgt id="19">6.09696e-12</wgt>
  <wgt id="20">6.07065e-12</wgt>
  <wgt id="21">6.02567e-12</wgt>
  <wgt id="22">6.03124e-12</wgt>
  <wgt id="23">5.98356e-12</wgt>
  <wgt id="24">6.02883e-12</wgt>
  <wgt id="25">6.05091e-12</wgt>
  <wgt id="26">6.09194e-12</wgt>
  <wgt id="27">6.06327e-12</wgt>
  <wgt id="28">6.03507e-12</wgt>
  <wgt id="29">6.07683e-12</wgt>
  <wgt id="30">6.02569e-12</wgt>
  <wgt id="31">6.10246e-12</wgt>
  <wgt id="32">6.03153e-12</wgt>
  <wgt id="33">6.08303e-12</wgt>
  <wgt id="34">6.03522e-12</wgt>
  <wgt id="35">6.03666e-12</wgt>
  <wgt id="36">6.10351e-12</wgt>
  <wgt id="37">6.05417e-12</wgt>
  <wgt id="38">6.04912e-12</wgt>
  <wgt id="39">6.18015e-12</wgt>
  <wgt id="40">6.07998e-12</wgt>
  <wgt id="41">6.07065e-12</wgt>
  <wgt id="42">6.08643e-12</wgt>
  <wgt id="43">6.07784e-12</wgt>
  <wgt id="44">6.10275e-12</wgt>
  <wgt id="45">6.08233e-12</wgt>
  <wgt id="46">6.05308e-12</wgt>
  <wgt id="47">6.12507e-12</wgt>
  <wgt id="48">6.10309e-12</wgt>
  <wgt id="49">6.04069e-12</wgt>
  <wgt id="50">6.02862e-12</wgt>
  <wgt id="51">6.04068e-12</wgt>
  <wgt id="52">6.09096e-12</wgt>
  <wgt id="53">6.11628e-12</wgt>
  <wgt id="54">6.10099e-12</wgt>
  <wgt id="55">6.07244e-12</wgt>
  <wgt id="56">6.05781e-12</wgt>
  <wgt id="57">6.04735e-12</wgt>
  <wgt id="58">6.06853e-12</wgt>
  <wgt id="59">6.08089e-12</wgt>
  <wgt id="60">6.03649e-12</wgt>
  <wgt id="61">6.03808e-12</wgt>
  <wgt id="62">6.05739e-12</wgt>
  <wgt id="63">6.06785e-12</wgt>
  <wgt id="64">6.0705e-12</wgt>
  <wgt id="65">6.05659e-12</wgt>
  <wgt id="66">6.07728e-12</wgt>
  <wgt id="67">6.05941e-12</wgt>
  <wgt id="68">6.07328e-12</wgt>
  <wgt id="69">6.06541e-12</wgt>
  <wgt id="70">6.06159e-12</wgt>
  <wgt id="71">6.06986e-12</wgt>
  <wgt id="72">6.04085e-12</wgt>
  <wgt id="73">6.09818e-12</wgt>
  <wgt id="74">6.09334e-12</wgt>
  <wgt id="75">6.07462e-12</wgt>
  <wgt id="76">6.1113e-12</wgt>
  <wgt id="77">6.06459e-12</wgt>
  <wgt id="78">6.06904e-12</wgt>
  <wgt id="79">6.09064e-12</wgt>
  <wgt id="80">6.0275e-12</wgt>
  <wgt id="81">6.07358e-12</wgt>
  <wgt id="82">6.07961e-12</wgt>
  <wgt id="83">6.03949e-12</wgt>
  <wgt id="84">6.05771e-12</wgt>
  <wgt id="85">6.05262e-12</wgt>
  <wgt id="86">6.0961e-12</wgt>
  <wgt id="87">6.02271e-12</wgt>
  <wgt id="88">6.08951e-12</wgt>
  <wgt id="89">6.08348e-12</wgt>
  <wgt id="90">6.09506e-12</wgt>
  <wgt id="91">6.08185e-12</wgt>
  <wgt id="92">6.09014e-12</wgt>
  <wgt id="93">6.08227e-12</wgt>
  <wgt id="94">6.06019e-12</wgt>
  <wgt id="95">6.09487e-12</wgt>
  <wgt id="96">6.08829e-12</wgt>
  <wgt id="97">6.05272e-12</wgt>
  <wgt id="98">6.0742e-12</wgt>
  <wgt id="99">6.06397e-12</wgt>
  <wgt id="100">6.08926e-12</wgt>
  <wgt id="101">6.06926e-12</wgt>
  <wgt id="102">6.06574e-12</wgt>
  <wgt id="103">6.09501e-12</wgt>
  <wgt id="104">6.06315e-12</wgt>
  <wgt id="105">6.08613e-12</wgt>
  <wgt id="106">6.05993e-12</wgt>
  <wgt id="107">6.10805e-12</wgt>
  <wgt id="108">6.06331e-12</wgt>
  <wgt id="109">6.08153e-12</wgt>
  <wgt id="110">6.07149e-12</wgt>
  <wgt id="111">6.08923e-12</wgt>
  <wgt id="112">6.14268e-12</wgt>
  <wgt id="113">8.62114e-12</wgt>
  <wgt id="114">8.15862e-12</wgt>
  <wgt id="115">8.00891e-12</wgt>
  <wgt id="116">1.10261e-11</wgt>
  <wgt id="117">6.69333e-12</wgt>
  <wgt id="118">6.71772e-12</wgt>
  <wgt id="119">6.67946e-12</wgt>
  <wgt id="120">6.69363e-12</wgt>
  <wgt id="121">6.69317e-12</wgt>
  <wgt id="122">6.68259e-12</wgt>
  <wgt id="123">6.70825e-12</wgt>
  <wgt id="124">6.68431e-12</wgt>
  <wgt id="125">6.6992e-12</wgt>
  <wgt id="126">6.70325e-12</wgt>
  <wgt id="127">6.68675e-12</wgt>
  <wgt id="128">6.71382e-12</wgt>
  <wgt id="129">6.67296e-12</wgt>
  <wgt id="130">6.72715e-12</wgt>
  <wgt id="131">6.65833e-12</wgt>
  <wgt id="132">6.51051e-12</wgt>
  <wgt id="133">6.91079e-12</wgt>
  <wgt id="134">6.6217e-12</wgt>
  <wgt id="135">6.74954e-12</wgt>
  <wgt id="136">6.79266e-12</wgt>
  <wgt id="137">6.5739e-12</wgt>
  <wgt id="138">6.98883e-12</wgt>
  <wgt id="139">6.41209e-12</wgt>
  <wgt id="140">6.65917e-12</wgt>
  <wgt id="141">6.71931e-12</wgt>
  <wgt id="142">6.69205e-12</wgt>
  <wgt id="143">6.71236e-12</wgt>
  <wgt id="144">6.43274e-12</wgt>
  <wgt id="145">6.94471e-12</wgt>
  <wgt id="146">6.7765e-12</wgt>
  <wgt id="147">6.62559e-12</wgt>
  <wgt id="148">6.71723e-12</wgt>
  <wgt id="149">6.69161e-12</wgt>
  <wgt id="150">6.74981e-12</wgt>
  <wgt id="151">6.66693e-12</wgt>
  <wgt id="152">6.69535e-12</wgt>
  <wgt id="153">6.69262e-12</wgt>
  <wgt id="154">6.71548e-12</wgt>
  <wgt id="155">6.65625e-12</wgt>
  <wgt id="156">6.90201e-12</wgt>
  <wgt id="157">6.49919e-12</wgt>
  <wgt id="158">8.02784e-12</wgt>
  <wgt id="159">8.06198e-12</wgt>
  <wgt id="160">8.00042e-12</wgt>
  <wgt id="161">8.00771e-12</wgt>
  <wgt id="162">8.05034e-12</wgt>
  <wgt id="163">8.01887e-12</wgt>
  <wgt id="164">8.04107e-12</wgt>
  <wgt id="165">8.03094e-12</wgt>
  <wgt id="166">8.0255e-12</wgt>
  <wgt id="167">8.02214e-12</wgt>
  <wgt id="168">8.03576e-12</wgt>
  <wgt id="169">7.99464e-12</wgt>
  <wgt id="170">8.04854e-12</wgt>
  <wgt id="171">8.02154e-12</wgt>
  <wgt id="172">8.0368e-12</wgt>
  <wgt id="173">8.01561e-12</wgt>
  <wgt id="174">8.03203e-12</wgt>
  <wgt id="175">7.79668e-12</wgt>
  <wgt id="176">8.3306e-12</wgt>
  <wgt id="177">8.0659e-12</wgt>
  <wgt id="178">7.9932e-12</wgt>
  <wgt id="179">8.42244e-12</wgt>
  <wgt id="180">7.41731e-12</wgt>
  <wgt id="181">7.76664e-12</wgt>
  <wgt id="182">8.20182e-12</wgt>
  <wgt id="183">7.86927e-12</wgt>
  <wgt id="184">8.10661e-12</wgt>
  <wgt id="185">7.94252e-12</wgt>
  <wgt id="186">8.13069e-12</wgt>
  <wgt id="187">7.94038e-12</wgt>
  <wgt id="188">8.18243e-12</wgt>
  <wgt id="189">7.96699e-12</wgt>
  <wgt id="190">8.05256e-12</wgt>
  <wgt id="191">8.05547e-12</wgt>
  <wgt id="192">8.01159e-12</wgt>
  <wgt id="193">8.15852e-12</wgt>
  <wgt id="194">7.96219e-12</wgt>
  <wgt id="195">7.75679e-12</wgt>
  <wgt id="196">8.47663e-12</wgt>
  <wgt id="197">8.07036e-12</wgt>
  <wgt id="198">8.01764e-12</wgt>
  <wgt id="199">8.02784e-12</wgt>
  <wgt id="200">8.10422e-12</wgt>
  <wgt id="201">8.078e-12</wgt>
  <wgt id="202">8.05254e-12</wgt>
  <wgt id="203">8.01587e-12</wgt>
  <wgt id="204">7.99749e-12</wgt>
  <wgt id="205">7.98236e-12</wgt>
  <wgt id="206">7.84608e-12</wgt>
  <wgt id="207">7.89281e-12</wgt>
  <wgt id="208">7.79973e-12</wgt>
  <wgt id="209">7.8692e-12</wgt>
  <wgt id="210">7.82911e-12</wgt>
  <wgt id="211">7.84339e-12</wgt>
  <wgt id="212">7.84811e-12</wgt>
  <wgt id="213">7.84532e-12</wgt>
  <wgt id="214">7.84706e-12</wgt>
  <wgt id="215">7.85178e-12</wgt>
  <wgt id="216">7.84201e-12</wgt>
  <wgt id="217">7.86461e-12</wgt>
  <wgt id="218">7.83166e-12</wgt>
  <wgt id="219">7.83609e-12</wgt>
  <wgt id="220">7.85209e-12</wgt>
  <wgt id="221">7.84793e-12</wgt>
  <wgt id="222">7.83987e-12</wgt>
  <wgt id="223">7.40646e-12</wgt>
  <wgt id="224">8.24869e-12</wgt>
  <wgt id="225">7.74957e-12</wgt>
  <wgt id="226">7.96847e-12</wgt>
  <wgt id="227">7.7711e-12</wgt>
  <wgt id="228">7.87893e-12</wgt>
  <wgt id="229">7.73447e-12</wgt>
  <wgt id="230">7.90141e-12</wgt>
  <wgt id="231">8.10476e-12</wgt>
  <wgt id="232">7.63433e-12</wgt>
  <wgt id="233">7.79812e-12</wgt>
  <wgt id="234">7.9256e-12</wgt>
  <wgt id="235">7.55274e-12</wgt>
  <wgt id="236">8.08859e-12</wgt>
  <wgt id="237">7.67245e-12</wgt>
  <wgt id="238">7.90394e-12</wgt>
  <wgt id="239">7.77532e-12</wgt>
  <wgt id="240">7.97291e-12</wgt>
  <wgt id="241">7.75336e-12</wgt>
  <wgt id="242">7.9559e-12</wgt>
  <wgt id="243">7.97396e-12</wgt>
  <wgt id="244">7.85365e-12</wgt>
  <wgt id="245">7.84244e-12</wgt>
  <wgt id="246">7.89187e-12</wgt>
  <wgt id="247">7.84608e-12</wgt>
  <wgt id="248">7.92753e-12</wgt>
  <wgt id="249">7.89923e-12</wgt>
  <wgt id="250">7.86991e-12</wgt>
  <wgt id="251">7.8299e-12</wgt>
  <wgt id="252">7.80963e-12</wgt>
  <wgt id="253">7.79561e-12</wgt>
  <wgt id="254">7.58306e-12</wgt>
  <wgt id="255">7.58976e-12</wgt>
  <wgt id="256">7.57572e-12</wgt>
  <wgt id="257">7.58903e-12</wgt>
  <wgt id="258">7.57866e-12</wgt>
  <wgt id="259">7.63381e-12</wgt>
  <wgt id="260">7.53408e-12</wgt>
  <wgt id="261">7.59456e-12</wgt>
  <wgt id="262">7.56954e-12</wgt>
  <wgt id="263">7.57786e-12</wgt>
  <wgt id="264">7.58904e-12</wgt>
  <wgt id="265">7.57407e-12</wgt>
  <wgt id="266">7.60112e-12</wgt>
  <wgt id="267">7.58557e-12</wgt>
  <wgt id="268">7.57941e-12</wgt>
  <wgt id="269">7.60641e-12</wgt>
  <wgt id="270">7.56719e-12</wgt>
  <wgt id="271">7.56361e-12</wgt>
  <wgt id="272">7.60474e-12</wgt>
  <wgt id="273">7.56252e-12</wgt>
  <wgt id="274">7.59865e-12</wgt>
  <wgt id="275">7.53962e-12</wgt>
  <wgt id="276">7.62806e-12</wgt>
  <wgt id="277">7.53901e-12</wgt>
  <wgt id="278">7.62333e-12</wgt>
  <wgt id="279">7.44226e-12</wgt>
  <wgt id="280">7.76027e-12</wgt>
  <wgt id="281">7.54802e-12</wgt>
  <wgt id="282">7.59163e-12</wgt>
  <wgt id="283">7.34135e-12</wgt>
  <wgt id="284">7.88413e-12</wgt>
  <wgt id="285">7.18338e-12</wgt>
  <wgt id="286">7.91983e-12</wgt>
  <wgt id="287">7.60949e-12</wgt>
  <wgt id="288">7.54919e-12</wgt>
  <wgt id="289">7.64303e-12</wgt>
  <wgt id="290">7.44977e-12</wgt>
  <wgt id="291">7.55521e-12</wgt>
  <wgt id="292">7.58452e-12</wgt>
  <wgt id="293">7.51787e-12</wgt>
  <wgt id="294">7.64782e-12</wgt>
  <wgt id="295">7.42496e-12</wgt>
  <wgt id="296">7.77666e-12</wgt>
  <wgt id="297">7.56787e-12</wgt>
  <wgt id="298">7.61956e-12</wgt>
  <wgt id="299">7.5575e-12</wgt>
  <wgt id="300">7.65079e-12</wgt>
  <wgt id="301">7.43868e-12</wgt>
  <wgt id="302">7.92e-12</wgt>
  <wgt id="303">7.50413e-12</wgt>
  <wgt id="304">7.62737e-12</wgt>
  <wgt id="305">7.53105e-12</wgt>
  <wgt id="306">7.53813e-12</wgt>
  <wgt id="307">7.5235e-12</wgt>
  <wgt id="308">7.53757e-12</wgt>
  <wgt id="309">7.52672e-12</wgt>
  <wgt id="310">7.58299e-12</wgt>
  <wgt id="311">7.4832e-12</wgt>
  <wgt id="312">7.54114e-12</wgt>
  <wgt id="313">7.52043e-12</wgt>
  <wgt id="314">7.52569e-12</wgt>
  <wgt id="315">7.53617e-12</wgt>
  <wgt id="316">7.5221e-12</wgt>
  <wgt id="317">7.55062e-12</wgt>
  <wgt id="318">7.53663e-12</wgt>
  <wgt id="319">7.5213e-12</wgt>
  <wgt id="320">7.55609e-12</wgt>
  <wgt id="321">7.51717e-12</wgt>
  <wgt id="322">7.50941e-12</wgt>
  <wgt id="323">7.55636e-12</wgt>
  <wgt id="324">7.51566e-12</wgt>
  <wgt id="325">7.54444e-12</wgt>
  <wgt id="326">7.49537e-12</wgt>
  <wgt id="327">7.57687e-12</wgt>
  <wgt id="328">7.49163e-12</wgt>
  <wgt id="329">7.55319e-12</wgt>
  <wgt id="330">7.74615e-12</wgt>
  <wgt id="331">7.3266e-12</wgt>
  <wgt id="332">7.50206e-12</wgt>
  <wgt id="333">7.5364e-12</wgt>
  <wgt id="334">7.34629e-12</wgt>
  <wgt id="335">7.76266e-12</wgt>
  <wgt id="336">7.24679e-12</wgt>
  <wgt id="337">7.88256e-12</wgt>
  <wgt id="338">7.62287e-12</wgt>
  <wgt id="339">7.44648e-12</wgt>
  <wgt id="340">7.58559e-12</wgt>
  <wgt id="341">7.39623e-12</wgt>
  <wgt id="342">7.51125e-12</wgt>
  <wgt id="343">7.51798e-12</wgt>
  <wgt id="344">7.47379e-12</wgt>
  <wgt id="345">7.59775e-12</wgt>
  <wgt id="346">7.36926e-12</wgt>
  <wgt id="347">7.71684e-12</wgt>
  <wgt id="348">7.51769e-12</wgt>
  <wgt id="349">7.56346e-12</wgt>
  <wgt id="350">7.49945e-12</wgt>
  <wgt id="351">7.61135e-12</wgt>
  <wgt id="352">7.38315e-12</wgt>
  <wgt id="353">7.86296e-12</wgt>
  <wgt id="354">7.41816e-12</wgt>
  <wgt id="355">7.59839e-12</wgt>
  <wgt id="356">7.58306e-12</wgt>
  <wgt id="357">7.54109e-12</wgt>
  <wgt id="358">7.53105e-12</wgt>
  <wgt id="359">7.58668e-12</wgt>
  <wgt id="360">7.70069e-12</wgt>
  <wgt id="361">7.61994e-12</wgt>
  <wgt id="362">7.76836e-12</wgt>
  <wgt id="363">7.7489e-12</wgt>
  <wgt id="364">7.71276e-12</wgt>
  <wgt id="365">7.68402e-12</wgt>
  <wgt id="366">7.65431e-12</wgt>
  <wgt id="367">7.59711e-12</wgt>
  <wgt id="368">7.56138e-12</wgt>
  <wgt id="369">7.52284e-12</wgt>
  <wgt id="370">7.61994e-12</wgt>
  <wgt id="371">7.65188e-12</wgt>
  <wgt id="372">7.63388e-12</wgt>
  <wgt id="373">7.60856e-12</wgt>
  <wgt id="374">7.61617e-12</wgt>
  <wgt id="375">8.60531e-12</wgt>
  <wgt id="376">8.60597e-12</wgt>
  <wgt id="377">8.60453e-12</wgt>
  <wgt id="378">8.63787e-12</wgt>
  <wgt id="379">8.57314e-12</wgt>
  <wgt id="380">8.62997e-12</wgt>
  <wgt id="381">8.59555e-12</wgt>
  <wgt id="382">8.64569e-12</wgt>
  <wgt id="383">8.5655e-12</wgt>
  <wgt id="384">8.6109e-12</wgt>
  <wgt id="385">8.60014e-12</wgt>
  <wgt id="386">8.63405e-12</wgt>
  <wgt id="387">8.59307e-12</wgt>
  <wgt id="388">8.5979e-12</wgt>
  <wgt id="389">8.61461e-12</wgt>
  <wgt id="390">8.62538e-12</wgt>
  <wgt id="391">8.5841e-12</wgt>
  <wgt id="392">8.53064e-12</wgt>
  <wgt id="393">8.64767e-12</wgt>
  <wgt id="394">8.6123e-12</wgt>
  <wgt id="395">8.59556e-12</wgt>
  <wgt id="396">8.61905e-12</wgt>
  <wgt id="397">8.59559e-12</wgt>
  <wgt id="398">8.58759e-12</wgt>
  <wgt id="399">8.62256e-12</wgt>
  <wgt id="400">8.59234e-12</wgt>
  <wgt id="401">8.63426e-12</wgt>
  <wgt id="402">8.52781e-12</wgt>
  <wgt id="403">8.65218e-12</wgt>
  <wgt id="404">8.84603e-12</wgt>
  <wgt id="405">8.0324e-12</wgt>
  <wgt id="406">8.43175e-12</wgt>
  <wgt id="407">8.99004e-12</wgt>
  <wgt id="408">8.69582e-12</wgt>
  <wgt id="409">8.43788e-12</wgt>
  <wgt id="410">8.32385e-12</wgt>
  <wgt id="411">8.74033e-12</wgt>
  <wgt id="412">8.58589e-12</wgt>
  <wgt id="413">8.63402e-12</wgt>
  <wgt id="414">8.49299e-12</wgt>
  <wgt id="415">8.6927e-12</wgt>
  <wgt id="416">8.88876e-12</wgt>
  <wgt id="417">8.21598e-12</wgt>
  <wgt id="418">8.62207e-12</wgt>
  <wgt id="419">8.51563e-12</wgt>
  <wgt id="420">8.80121e-12</wgt>
  <wgt id="421">8.47688e-12</wgt>
  <wgt id="422">8.55952e-12</wgt>
  <wgt id="423">8.62708e-12</wgt>
  <wgt id="424">8.84838e-12</wgt>
  <wgt id="425">8.44149e-12</wgt>
  <wgt id="426">8.60531e-12</wgt>
  <wgt id="427">8.44931e-12</wgt>
  <wgt id="428">8.9704e-12</wgt>
  <wgt id="429">8.71633e-12</wgt>
  <wgt id="430">8.99611e-12</wgt>
  <wgt id="431">8.93943e-12</wgt>
  <wgt id="432">8.88772e-12</wgt>
  <wgt id="433">8.83699e-12</wgt>
  <wgt id="434">8.77256e-12</wgt>
  <wgt id="435">8.64593e-12</wgt>
  <wgt id="436">8.58181e-12</wgt>
  <wgt id="437">8.51957e-12</wgt>
  <wgt id="438">8.71633e-12</wgt>
  <wgt id="439">8.74312e-12</wgt>
  <wgt id="440">8.72651e-12</wgt>
  <wgt id="441">8.70907e-12</wgt>
  <wgt id="442">8.70334e-12</wgt>
  <wgt id="443">7.95309e-12</wgt>
  <wgt id="444">8.03225e-12</wgt>
  <wgt id="445">8.02173e-12</wgt>
  <wgt id="446">7.8941e-12</wgt>
  <wgt id="447">7.95335e-12</wgt>
  <wgt id="448">7.75682e-12</wgt>
  <wgt id="449">8.11351e-12</wgt>
  <wgt id="450">8.04153e-12</wgt>
  <wgt id="451">7.93123e-12</wgt>
  <wgt id="452">8.12976e-12</wgt>
  <wgt id="453">8.04901e-12</wgt>
  <wgt id="454">7.55114e-12</wgt>
  <wgt id="455">8.01265e-12</wgt>
  <wgt id="456">8.07632e-12</wgt>
  <wgt id="457">7.97973e-12</wgt>
  <wgt id="458">8.0917e-12</wgt>
  <wgt id="459">8.02529e-12</wgt>
  <wgt id="460">8.10089e-12</wgt>
  <wgt id="461">7.7647e-12</wgt>
  <wgt id="462">7.89602e-12</wgt>
  <wgt id="463">7.82823e-12</wgt>
  <wgt id="464">7.91349e-12</wgt>
  <wgt id="465">8.03993e-12</wgt>
  <wgt id="466">7.77493e-12</wgt>
  <wgt id="467">7.88764e-12</wgt>
  <wgt id="468">7.94397e-12</wgt>
  <wgt id="469">7.93354e-12</wgt>
  <wgt id="470">7.83386e-12</wgt>
  <wgt id="471">7.85634e-12</wgt>
  <wgt id="472">8.00591e-12</wgt>
  <wgt id="473">7.69238e-12</wgt>
  <wgt id="474">5.79e-12</wgt>
  <wgt id="475">5.79812e-12</wgt>
  <wgt id="476">5.74364e-12</wgt>
  <wgt id="477">5.845e-12</wgt>
  <wgt id="478">5.86043e-12</wgt>
  <wgt id="479">5.53133e-12</wgt>
  <wgt id="480">6.08967e-12</wgt>
  <wgt id="481">5.8239e-12</wgt>
  <wgt id="482">5.78733e-12</wgt>
  <wgt id="483">5.7753e-12</wgt>
  <wgt id="484">6.02615e-12</wgt>
  <wgt id="485">5.35743e-12</wgt>
  <wgt id="486">6.09113e-12</wgt>
  <wgt id="487">5.65803e-12</wgt>
  <wgt id="488">5.8628e-12</wgt>
  <wgt id="489">5.25724e-12</wgt>
  <wgt id="490">5.6696e-12</wgt>
  <wgt id="491">5.72619e-12</wgt>
  <wgt id="492">5.69969e-12</wgt>
  <wgt id="493">5.38292e-12</wgt>
  <wgt id="494">5.41632e-12</wgt>
  <wgt id="495">5.80241e-12</wgt>
  <wgt id="496">5.51376e-12</wgt>
  <wgt id="497">5.42852e-12</wgt>
  <wgt id="498">5.96293e-12</wgt>
  <wgt id="499">5.82045e-12</wgt>
  <wgt id="500">5.69043e-12</wgt>
  <wgt id="501">6.00893e-12</wgt>
  <wgt id="502">5.97802e-12</wgt>
  <wgt id="503">5.70896e-12</wgt>
  <wgt id="504">5.97909e-12</wgt>
  <wgt id="505">5.96947e-12</wgt>
  <wgt id="506">5.45742e-12</wgt>
  <wgt id="507">5.72506e-12</wgt>
  <wgt id="508">6.09069e-12</wgt>
  <wgt id="509">5.52453e-12</wgt>
  <wgt id="510">5.84955e-12</wgt>
  <wgt id="511">5.50086e-12</wgt>
  <wgt id="512">6.15144e-12</wgt>
  <wgt id="513">6.02342e-12</wgt>
  <wgt id="514">6.07125e-12</wgt>
  <wgt id="515">5.91372e-12</wgt>
  <wgt id="516">6.35799e-12</wgt>
  <wgt id="517">5.92877e-12</wgt>
  <wgt id="518">5.99387e-12</wgt>
  <wgt id="519">5.56291e-12</wgt>
  <wgt id="520">5.89628e-12</wgt>
  <wgt id="521">5.70267e-12</wgt>
  <wgt id="522">6.03104e-12</wgt>
  <wgt id="523">5.52737e-12</wgt>
  <wgt id="524">5.86031e-12</wgt>
  <wgt id="525">5.72582e-12</wgt>
  <wgt id="526">6.05003e-12</wgt>
  <wgt id="527">5.72769e-12</wgt>
  <wgt id="528">5.78742e-12</wgt>
  <wgt id="529">5.56744e-12</wgt>
  <wgt id="530">6.06666e-12</wgt>
  <wgt id="531">5.56943e-12</wgt>
  <wgt id="532">6.26e-12</wgt>
  <wgt id="533">5.72919e-12</wgt>
  <wgt id="534">5.59903e-12</wgt>
  <wgt id="535">5.83769e-12</wgt>
  <wgt id="536">5.95322e-12</wgt>
  <wgt id="537">5.54326e-12</wgt>
  <wgt id="538">5.75981e-12</wgt>
  <wgt id="539">5.65997e-12</wgt>
  <wgt id="540">6.09668e-12</wgt>
  <wgt id="541">5.75727e-12</wgt>
  <wgt id="542">5.68707e-12</wgt>
  <wgt id="543">5.62304e-12</wgt>
  <wgt id="544">5.86857e-12</wgt>
  <wgt id="545">5.505e-12</wgt>
  <wgt id="546">5.36266e-12</wgt>
  <wgt id="547">5.60507e-12</wgt>
  <wgt id="548">5.57937e-12</wgt>
  <wgt id="549">5.68221e-12</wgt>
  <wgt id="550">5.64659e-12</wgt>
  <wgt id="551">5.82703e-12</wgt>
  <wgt id="552">5.34923e-12</wgt>
  <wgt id="553">5.48071e-12</wgt>
  <wgt id="554">6.10122e-12</wgt>
  <wgt id="555">5.93258e-12</wgt>
  <wgt id="556">5.6696e-12</wgt>
  <wgt id="557">5.92968e-12</wgt>
  <wgt id="558">5.72173e-12</wgt>
  <wgt id="559">5.80142e-12</wgt>
  <wgt id="560">6.40542e-12</wgt>
  <wgt id="561">5.90164e-12</wgt>
  <wgt id="562">6.01183e-12</wgt>
  <wgt id="563">6.33744e-12</wgt>
  <wgt id="564">6.11524e-12</wgt>
  <wgt id="565">5.93283e-12</wgt>
  <wgt id="566">5.65999e-12</wgt>
  <wgt id="567">5.78114e-12</wgt>
  <wgt id="568">5.61228e-12</wgt>
  <wgt id="569">5.85671e-12</wgt>
  <wgt id="570">5.70814e-12</wgt>
  <wgt id="571">6.40181e-12</wgt>
  <wgt id="572">5.61827e-12</wgt>
  <wgt id="573">5.62417e-12</wgt>
  <wgt id="574">5.65058e-12</wgt>
  <wgt id="575">6.39226e-12</wgt>
  <wgt id="576">6.90447e-12</wgt>
  <wgt id="577">6.67449e-12</wgt>
  <wgt id="578">6.51531e-12</wgt>
  <wgt id="579">6.64493e-12</wgt>
  <wgt id="580">6.80059e-12</wgt>
  <wgt id="581">7.04516e-12</wgt>
  <wgt id="582">6.80111e-12</wgt>
  <wgt id="583">6.50574e-12</wgt>
  <wgt id="584">6.32296e-12</wgt>
  <wgt id="585">5.96107e-12</wgt>
  <wgt id="586">6.03111e-12</wgt>
  <wgt id="587">6.51803e-12</wgt>
  <wgt id="588">6.9043e-12</wgt>
  <wgt id="589">6.93623e-12</wgt>
  <wgt id="590">6.33736e-12</wgt>
  <wgt id="591">6.57954e-12</wgt>
  <wgt id="592">5.92993e-12</wgt>
  <wgt id="593">6.21157e-12</wgt>
  <wgt id="594">6.28972e-12</wgt>
  <wgt id="595">6.67578e-12</wgt>
  <wgt id="596">7.45388e-12</wgt>
  <wgt id="597">6.46807e-12</wgt>
  <wgt id="598">6.442e-12</wgt>
  <wgt id="599">6.79805e-12</wgt>
  <wgt id="600">6.76452e-12</wgt>
  <wgt id="601">6.13677e-12</wgt>
  <wgt id="602">6.19276e-12</wgt>
  <wgt id="603">6.0103e-12</wgt>
  <wgt id="604">6.54802e-12</wgt>
  <wgt id="605">6.47561e-12</wgt>
  <wgt id="606">6.51312e-12</wgt>
  <wgt id="607">6.64836e-12</wgt>
  <wgt id="608">6.63219e-12</wgt>
  <wgt id="609">6.30409e-12</wgt>
  <wgt id="610">6.11507e-12</wgt>
  <wgt id="611">6.11777e-12</wgt>
  <wgt id="612">6.60893e-12</wgt>
  <wgt id="613">6.12389e-12</wgt>
  <wgt id="614">6.33768e-12</wgt>
  <wgt id="615">6.48038e-12</wgt>
  <wgt id="616">6.19523e-12</wgt>
  <wgt id="617">6.63372e-12</wgt>
  <wgt id="618">7.02922e-12</wgt>
  <wgt id="619">6.26754e-12</wgt>
  <wgt id="620">6.60881e-12</wgt>
  <wgt id="621">6.31899e-12</wgt>
  <wgt id="622">6.51803e-12</wgt>
  <wgt id="623">6.43515e-12</wgt>
  <wgt id="624">6.43465e-12</wgt>
  <wgt id="625">6.10974e-12</wgt>
  <wgt id="626">5.74256e-12</wgt>
  <wgt id="627">5.8178e-12</wgt>
  <wgt id="628">6.36287e-12</wgt>
  <wgt id="629">6.47821e-12</wgt>
  <wgt id="630">6.17892e-12</wgt>
  <wgt id="631">6.54236e-12</wgt>
  <wgt id="632">5.85814e-12</wgt>
  <wgt id="633">6.36028e-12</wgt>
  <wgt id="634">6.12282e-12</wgt>
  <wgt id="635">5.89801e-12</wgt>
  <wgt id="636">6.47582e-12</wgt>
  <wgt id="637">6.34598e-12</wgt>
  <wgt id="638">6.1064e-12</wgt>
  <wgt id="639">6.13574e-12</wgt>
  <wgt id="640">6.25604e-12</wgt>
  <wgt id="641">6.6899e-12</wgt>
  <wgt id="642">5.83818e-12</wgt>
  <wgt id="643">6.23568e-12</wgt>
  <wgt id="644">5.72785e-12</wgt>
  <wgt id="645">6.38344e-12</wgt>
  <wgt id="646">5.90512e-12</wgt>
  <wgt id="647">6.45387e-12</wgt>
  <wgt id="648">6.67645e-12</wgt>
  <wgt id="649">6.41894e-12</wgt>
  <wgt id="650">6.10574e-12</wgt>
  <wgt id="651">6.8375e-12</wgt>
  <wgt id="652">6.13456e-12</wgt>
  <wgt id="653">6.13545e-12</wgt>
  <wgt id="654">6.42655e-12</wgt>
  <wgt id="655">6.16339e-12</wgt>
  <wgt id="656">6.41305e-12</wgt>
  <wgt id="657">7.00767e-12</wgt>
  <wgt id="658">6.39758e-12</wgt>
  <wgt id="659">6.11697e-12</wgt>
  <wgt id="660">6.21895e-12</wgt>
  <wgt id="661">6.23658e-12</wgt>
  <wgt id="662">6.29593e-12</wgt>
  <wgt id="663">6.50455e-12</wgt>
  <wgt id="664">6.46219e-12</wgt>
  <wgt id="665">6.33152e-12</wgt>
  <wgt id="666">6.24644e-12</wgt>
  <wgt id="667">6.73416e-12</wgt>
  <wgt id="668">6.31574e-12</wgt>
  <wgt id="669">6.39627e-12</wgt>
  <wgt id="670">6.70034e-12</wgt>
  <wgt id="671">6.45987e-12</wgt>
  <wgt id="672">6.20968e-12</wgt>
  <wgt id="673">6.76738e-12</wgt>
  <wgt id="674">6.19394e-12</wgt>
  <wgt id="675">6.18568e-12</wgt>
  <wgt id="676">8.27004e-12</wgt>
  <wgt id="677">8.36425e-12</wgt>
  <wgt id="678">9.02917e-12</wgt>
  <wgt id="679">8.3939e-12</wgt>
  <wgt id="680">8.32634e-12</wgt>
  <wgt id="681">8.10259e-12</wgt>
  <wgt id="682">8.68177e-12</wgt>
  <wgt id="683">7.66922e-12</wgt>
  <wgt id="684">8.69821e-12</wgt>
  <wgt id="685">8.23147e-12</wgt>
  <wgt id="686">8.35112e-12</wgt>
  <wgt id="687">8.53073e-12</wgt>
  <wgt id="688">8.02648e-12</wgt>
  <wgt id="689">8.64669e-12</wgt>
  <wgt id="690">8.48299e-12</wgt>
  <wgt id="691">8.5021e-12</wgt>
  <wgt id="692">8.07987e-12</wgt>
  <wgt id="693">1.08237e-11</wgt>
  <wgt id="694">9.07959e-12</wgt>
  <wgt id="695">7.78239e-12</wgt>
  <wgt id="696">7.94254e-12</wgt>
  <wgt id="697">7.5281e-12</wgt>
  <wgt id="698">6.87986e-12</wgt>
  <wgt id="699">7.02523e-12</wgt>
  <wgt id="700">7.29973e-12</wgt>
  <wgt id="701">8.259e-12</wgt>
  <wgt id="702">7.99573e-12</wgt>
  <wgt id="703">1.01745e-11</wgt>
  <wgt id="704">9.30313e-12</wgt>
  <wgt id="705">9.2656e-12</wgt>
  <wgt id="706">7.75062e-12</wgt>
  <wgt id="707">7.75805e-12</wgt>
  <wgt id="708">7.92345e-12</wgt>
  <wgt id="709">8.0075e-12</wgt>
  <wgt id="710">7.04561e-12</wgt>
  <wgt id="711">8.72195e-12</wgt>
  <wgt id="712">7.77241e-12</wgt>
  <wgt id="713">8.92099e-12</wgt>
  <wgt id="714">7.49071e-12</wgt>
  <wgt id="715">7.92479e-12</wgt>
  <wgt id="716">7.95473e-12</wgt>
  <wgt id="717">7.25669e-12</wgt>
  <wgt id="718">8.46643e-12</wgt>
  <wgt id="719">7.52651e-12</wgt>
  <wgt id="720">8.40092e-12</wgt>
  <wgt id="721">7.07763e-12</wgt>
  <wgt id="722">6.59722e-12</wgt>
  <wgt id="723">9.25627e-12</wgt>
  <wgt id="724">8.94875e-12</wgt>
  <wgt id="725">8.64379e-12</wgt>
  <wgt id="726">8.22586e-12</wgt>
  <wgt id="727">8.28065e-12</wgt>
  <wgt id="728">8.06867e-12</wgt>
  <wgt id="729">7.66795e-12</wgt>
  <wgt id="730">9.13667e-12</wgt>
  <wgt id="731">8.12322e-12</wgt>
  <wgt id="732">9.58384e-12</wgt>
  <wgt id="733">7.72642e-12</wgt>
  <wgt id="734">8.53868e-12</wgt>
  <wgt id="735">8.31e-12</wgt>
  <wgt id="736">7.69659e-12</wgt>
  <wgt id="737">7.7998e-12</wgt>
  <wgt id="738">7.87237e-12</wgt>
  <wgt id="739">8.82161e-12</wgt>
  <wgt id="740">9.72161e-12</wgt>
  <wgt id="741">8.48907e-12</wgt>
  <wgt id="742">7.98041e-12</wgt>
  <wgt id="743">7.5653e-12</wgt>
  <wgt id="744">8.10602e-12</wgt>
  <wgt id="745">8.99229e-12</wgt>
  <wgt id="746">9.24197e-12</wgt>
  <wgt id="747">6.90707e-12</wgt>
  <wgt id="748">8.00537e-12</wgt>
  <wgt id="749">8.58734e-12</wgt>
  <wgt id="750">8.93412e-12</wgt>
  <wgt id="751">8.33099e-12</wgt>
  <wgt id="752">7.44883e-12</wgt>
  <wgt id="753">7.43752e-12</wgt>
  <wgt id="754">8.65507e-12</wgt>
  <wgt id="755">8.09788e-12</wgt>
  <wgt id="756">8.0408e-12</wgt>
  <wgt id="757">7.18573e-12</wgt>
  <wgt id="758">8.05235e-12</wgt>
  <wgt id="759">9.09327e-12</wgt>
  <wgt id="760">7.95648e-12</wgt>
  <wgt id="761">9.11896e-12</wgt>
  <wgt id="762">9.15967e-12</wgt>
  <wgt id="763">8.42608e-12</wgt>
  <wgt id="764">8.81393e-12</wgt>
  <wgt id="765">8.39166e-12</wgt>
  <wgt id="766">8.36336e-12</wgt>
  <wgt id="767">8.4358e-12</wgt>
  <wgt id="768">7.53762e-12</wgt>
  <wgt id="769">8.72228e-12</wgt>
  <wgt id="770">7.81816e-12</wgt>
  <wgt id="771">1.01148e-11</wgt>
  <wgt id="772">8.03971e-12</wgt>
  <wgt id="773">8.28337e-12</wgt>
  <wgt id="774">6.59424e-12</wgt>
  <wgt id="775">8.67296e-12</wgt>
  <wgt id="776">9.44097e-12</wgt>
  <wgt id="777">7.37642e-12</wgt>
  <wgt id="778">5.48358e-12</wgt>
  <wgt id="779">3.46864e-12</wgt>
  <wgt id="780">2.13032e-12</wgt>
  <wgt id="781">6.28098e-12</wgt>
  <wgt id="782">6.64358e-12</wgt>
  <wgt id="783">3.15993e-12</wgt>
  <wgt id="784">3.92802e-12</wgt>
  <wgt id="785">8.11312e-12</wgt>
  <wgt id="786">3.14485e-12</wgt>
  <wgt id="787">7.05005e-12</wgt>
  <wgt id="788">1.25893e-12</wgt>
  <wgt id="789">3.9119e-12</wgt>
  <wgt id="790">3.16023e-12</wgt>
  <wgt id="791">6.28109e-12</wgt>
  <wgt id="792">7.45638e-12</wgt>
  <wgt id="793">5.19873e-12</wgt>
  <wgt id="794">2.89051e-12</wgt>
  <wgt id="795">7.5154e-12</wgt>
  <wgt id="796">7.76166e-12</wgt>
  <wgt id="797">7.12251e-12</wgt>
  <wgt id="798">4.22545e-12</wgt>
  <wgt id="799">6.90527e-12</wgt>
  <wgt id="800">4.23782e-12</wgt>
  <wgt id="801">5.27071e-12</wgt>
  <wgt id="802">2.79039e-12</wgt>
  <wgt id="803">8.77951e-12</wgt>
  <wgt id="804">7.54362e-12</wgt>
  <wgt id="805">7.33239e-12</wgt>
  <wgt id="806">6.03828e-12</wgt>
  <wgt id="807">5.36656e-12</wgt>
  <wgt id="808">5.24564e-12</wgt>
  <wgt id="809">4.94906e-12</wgt>
  <wgt id="810">6.47854e-12</wgt>
  <wgt id="811">5.77623e-12</wgt>
  <wgt id="812">3.22403e-12</wgt>
  <wgt id="813">3.45891e-12</wgt>
  <wgt id="814">3.83633e-12</wgt>
  <wgt id="815">3.23338e-12</wgt>
  <wgt id="816">3.5419e-12</wgt>
  <wgt id="817">5.55959e-12</wgt>
  <wgt id="818">7.21852e-12</wgt>
  <wgt id="819">3.4181e-12</wgt>
  <wgt id="820">5.1819e-12</wgt>
  <wgt id="821">6.67324e-12</wgt>
  <wgt id="822">4.40337e-12</wgt>
  <wgt id="823">7.03299e-12</wgt>
  <wgt id="824">8.35239e-12</wgt>
  <wgt id="825">2.64828e-12</wgt>
  <wgt id="826">6.87569e-12</wgt>
  <wgt id="827">2.38582e-12</wgt>
  <wgt id="828">7.1241e-12</wgt>
  <wgt id="829">5.66896e-12</wgt>
  <wgt id="830">2.51638e-12</wgt>
  <wgt id="831">6.49113e-12</wgt>
  <wgt id="832">9.93362e-12</wgt>
  <wgt id="833">4.39142e-12</wgt>
  <wgt id="834">9.70571e-12</wgt>
  <wgt id="835">3.84374e-12</wgt>
  <wgt id="836">4.51941e-12</wgt>
  <wgt id="837">6.50959e-12</wgt>
  <wgt id="838">4.40808e-12</wgt>
  <wgt id="839">6.47333e-12</wgt>
  <wgt id="840">4.67478e-12</wgt>
  <wgt id="841">7.77923e-12</wgt>
  <wgt id="842">5.45309e-12</wgt>
  <wgt id="843">5.93961e-12</wgt>
  <wgt id="844">6.12863e-12</wgt>
  <wgt id="845">9.83282e-12</wgt>
  <wgt id="846">5.55192e-12</wgt>
  <wgt id="847">5.89843e-12</wgt>
  <wgt id="848">3.37162e-12</wgt>
  <wgt id="849">6.00832e-12</wgt>
  <wgt id="850">8.48794e-12</wgt>
  <wgt id="851">6.53363e-12</wgt>
  <wgt id="852">2.85989e-12</wgt>
  <wgt id="853">6.82703e-12</wgt>
  <wgt id="854">7.7309e-12</wgt>
  <wgt id="855">6.81791e-12</wgt>
  <wgt id="856">2.48875e-12</wgt>
  <wgt id="857">4.80105e-12</wgt>
  <wgt id="858">5.15168e-12</wgt>
  <wgt id="859">5.28248e-12</wgt>
  <wgt id="860">7.08536e-12</wgt>
  <wgt id="861">4.52973e-12</wgt>
  <wgt id="862">5.63118e-12</wgt>
  <wgt id="863">6.388e-12</wgt>
  <wgt id="864">5.69047e-12</wgt>
  <wgt id="865">8.96084e-12</wgt>
  <wgt id="866">9.9381e-12</wgt>
  <wgt id="867">5.58921e-12</wgt>
  <wgt id="868">5.71085e-12</wgt>
  <wgt id="869">3.11962e-12</wgt>
  <wgt id="870">3.73551e-12</wgt>
  <wgt id="871">3.76067e-12</wgt>
  <wgt id="872">7.94635e-12</wgt>
  <wgt id="873">4.33377e-12</wgt>
  <wgt id="874">6.12906e-12</wgt>
  <wgt id="875">4.23069e-12</wgt>
  <wgt id="876">7.59979e-12</wgt>
  <wgt id="877">6.31537e-12</wgt>
  <wgt id="878">4.38752e-12</wgt>
  <wgt id="879">8.27004e-12</wgt>
  <wgt id="880">8.36425e-12</wgt>
  <wgt id="881">9.02917e-12</wgt>
  <wgt id="882">8.3939e-12</wgt>
  <wgt id="883">8.32634e-12</wgt>
  <wgt id="884">8.10259e-12</wgt>
  <wgt id="885">8.68177e-12</wgt>
  <wgt id="886">7.66922e-12</wgt>
  <wgt id="887">8.69821e-12</wgt>
  <wgt id="888">8.23147e-12</wgt>
  <wgt id="889">8.35112e-12</wgt>
  <wgt id="890">8.53073e-12</wgt>
  <wgt id="891">8.02648e-12</wgt>
  <wgt id="892">8.64669e-12</wgt>
  <wgt id="893">8.48299e-12</wgt>
  <wgt id="894">8.5021e-12</wgt>
  <wgt id="895">8.07987e-12</wgt>
  <wgt id="896">1.08237e-11</wgt>
  <wgt id="897">9.07959e-12</wgt>
  <wgt id="898">7.78239e-12</wgt>
  <wgt id="899">7.94254e-12</wgt>
  <wgt id="900">7.5281e-12</wgt>
  <wgt id="901">6.87986e-12</wgt>
  <wgt id="902">7.02523e-12</wgt>
  <wgt id="903">7.29973e-12</wgt>
  <wgt id="904">8.259e-12</wgt>
  <wgt id="905">7.99573e-12</wgt>
  <wgt id="906">1.01745e-11</wgt>
  <wgt id="907">9.30313e-12</wgt>
  <wgt id="908">9.2656e-12</wgt>
  <wgt id="909">7.75062e-12</wgt>
  <wgt id="910">7.75805e-12</wgt>
  <wgt id="911">7.92345e-12</wgt>
  <wgt id="912">8.0075e-12</wgt>
  <wgt id="913">7.04561e-12</wgt>
  <wgt id="914">8.72195e-12</wgt>
  <wgt id="915">7.77241e-12</wgt>
  <wgt id="916">8.92099e-12</wgt>
  <wgt id="917">7.49071e-12</wgt>
  <wgt id="918">7.92479e-12</wgt>
  <wgt id="919">7.95473e-12</wgt>
  <wgt id="920">7.25669e-12</wgt>
  <wgt id="921">8.46643e-12</wgt>
  <wgt id="922">7.52651e-12</wgt>
  <wgt id="923">8.40092e-12</wgt>
  <wgt id="924">7.07763e-12</wgt>
  <wgt id="925">6.59722e-12</wgt>
  <wgt id="926">9.25627e-12</wgt>
  <wgt id="927">8.94875e-12</wgt>
  <wgt id="928">8.64379e-12</wgt>
  <wgt id="929">8.22586e-12</wgt>
  <wgt id="930">8.28065e-12</wgt>
  <wgt id="931">8.06867e-12</wgt>
  <wgt id="932">7.66795e-12</wgt>
  <wgt id="933">9.13667e-12</wgt>
  <wgt id="934">8.12322e-12</wgt>
  <wgt id="935">9.58384e-12</wgt>
  <wgt id="936">7.72642e-12</wgt>
  <wgt id="937">8.53868e-12</wgt>
  <wgt id="938">8.31e-12</wgt>
  <wgt id="939">7.69659e-12</wgt>
  <wgt id="940">7.7998e-12</wgt>
  <wgt id="941">7.87237e-12</wgt>
  <wgt id="942">8.82161e-12</wgt>
  <wgt id="943">9.72161e-12</wgt>
  <wgt id="944">8.48907e-12</wgt>
  <wgt id="945">7.98041e-12</wgt>
  <wgt id="946">7.5653e-12</wgt>
  <wgt id="947">8.10602e-12</wgt>
  <wgt id="948">8.99229e-12</wgt>
  <wgt id="949">9.24197e-12</wgt>
  <wgt id="950">6.90707e-12</wgt>
  <wgt id="951">8.00537e-12</wgt>
  <wgt id="952">8.58734e-12</wgt>
  <wgt id="953">8.93412e-12</wgt>
  <wgt id="954">8.33099e-12</wgt>
  <wgt id="955">7.44883e-12</wgt>
  <wgt id="956">7.43752e-12</wgt>
  <wgt id="957">8.65507e-12</wgt>
  <wgt id="958">8.09788e-12</wgt>
  <wgt id="959">8.0408e-12</wgt>
  <wgt id="960">7.18573e-12</wgt>
  <wgt id="961">8.05235e-12</wgt>
  <wgt id="962">9.09327e-12</wgt>
  <wgt id="963">7.95648e-12</wgt>
  <wgt id="964">9.11896e-12</wgt>
  <wgt id="965">9.15967e-12</wgt>
  <wgt id="966">8.42608e-12</wgt>
  <wgt id="967">8.81393e-12</wgt>
  <wgt id="968">8.39166e-12</wgt>
  <wgt id="969">8.36336e-12</wgt>
  <wgt id="970">8.4358e-12</wgt>
  <wgt id="971">7.53762e-12</wgt>
  <wgt id="972">8.72228e-12</wgt>
  <wgt id="973">7.81816e-12</wgt>
  <wgt id="974">1.01148e-11</wgt>
  <wgt id="975">8.03971e-12</wgt>
  <wgt id="976">8.28337e-12</wgt>
  <wgt id="977">6.59424e-12</wgt>
  <wgt id="978">8.67296e-12</wgt>
  <wgt id="979">9.44097e-12</wgt>
  <wgt id="980">8.2136e-12</wgt>
  <wgt id="981">8.43866e-12</wgt>
  <wgt id="982">8.01085e-12</wgt>
</rwgt>
</event>
<event>
 5   1  0.5790000E-11  0.2443081E+04  0.7818608E-02  0.7663044E-01
       21   -1    0    0  502  501  0.00000000000E+00  0.00000000000E+00  0.72867116604E+03  0.72867116604E+03  0.00000000000E+00 0. -1.
       21   -1    0    0  501  502 -0.00000000000E+00 -0.00000000000E+00 -0.20477835293E+04  0.20477835293E+04  0.00000000000E+00 0.  1.
       39    2    1    2    0    0  0.00000000000E+00  0.00000000000E+00 -0.13191123633E+04  0.27764546954E+04  0.24430806881E+04 0.  0.
       25    1    3    3    0    0 -0.12121238195E+04 -0.72471962580E+02 -0.60823321356E+03  0.13638434592E+04  0.12500000000E+03 0.  0.
       25    1    3    3    0    0  0.12121238195E+04  0.72471962580E+02 -0.71087914972E+03  0.14126112362E+04  0.12500000000E+03 0.  0.
<mgrwt>
<rscale>  0 0.24430807E+04</rscale>
<asrwt>0</asrwt>
<pdfrwt beam="1">  1       21 0.11210326E+00 0.24430807E+04</pdfrwt>
<pdfrwt beam="2">  1       21 0.31504361E+00 0.24430807E+04</pdfrwt>
<totfact> 0.57306925E+00</totfact>
</mgrwt>
<rwgt>
  <wgt id="1">5.79e-12</wgt>
  <wgt id="2">4.99366e-12</wgt>
  <wgt id="3">6.78879e-12</wgt>
  <wgt id="4">5.79e-12</wgt>
  <wgt id="5">4.99366e-12</wgt>
  <wgt id="6">6.78879e-12</wgt>
  <wgt id="7">5.79e-12</wgt>
  <wgt id="8">4.99366e-12</wgt>
  <wgt id="9">6.78879e-12</wgt>
  <wgt id="10">6.10412e-12</wgt>
  <wgt id="11">6.10164e-12</wgt>
  <wgt id="12">6.08975e-12</wgt>
  <wgt id="13">6.09028e-12</wgt>
  <wgt id="14">6.12447e-12</wgt>
  <wgt id="15">6.11431e-12</wgt>
  <wgt id="16">6.09001e-12</wgt>
  <wgt id="17">6.13523e-12</wgt>
  <wgt id="18">6.09768e-12</wgt>
  <wgt id="19">6.12786e-12</wgt>
  <wgt id="20">6.10002e-12</wgt>
  <wgt id="21">6.05515e-12</wgt>
  <wgt id="22">6.06098e-12</wgt>
  <wgt id="23">6.01163e-12</wgt>
  <wgt id="24">6.05775e-12</wgt>
  <wgt id="25">6.08038e-12</wgt>
  <wgt id="26">6.12209e-12</wgt>
  <wgt id="27">6.09271e-12</wgt>
  <wgt id="28">6.06453e-12</wgt>
  <wgt id="29">6.1064e-12</wgt>
  <wgt id="30">6.05538e-12</wgt>
  <wgt id="31">6.13189e-12</wgt>
  <wgt id="32">6.05991e-12</wgt>
  <wgt id="33">6.11299e-12</wgt>
  <wgt id="34">6.06488e-12</wgt>
  <wgt id="35">6.06443e-12</wgt>
  <wgt id="36">6.13298e-12</wgt>
  <wgt id="37">6.08312e-12</wgt>
  <wgt id="38">6.07857e-12</wgt>
  <wgt id="39">6.21226e-12</wgt>
  <wgt id="40">6.11198e-12</wgt>
  <wgt id="41">6.09948e-12</wgt>
  <wgt id="42">6.11934e-12</wgt>
  <wgt id="43">6.10904e-12</wgt>
  <wgt id="44">6.12819e-12</wgt>
  <wgt id="45">6.11208e-12</wgt>
  <wgt id="46">6.08138e-12</wgt>
  <wgt id="47">6.15372e-12</wgt>
  <wgt id="48">6.13661e-12</wgt>
  <wgt id="49">6.07616e-12</wgt>
  <wgt id="50">6.05991e-12</wgt>
  <wgt id="51">6.07022e-12</wgt>
  <wgt id="52">6.11572e-12</wgt>
  <wgt id="53">6.15227e-12</wgt>
  <wgt id="54">6.13096e-12</wgt>
  <wgt id="55">6.10174e-12</wgt>
  <wgt id="56">6.08159e-12</wgt>
  <wgt id="57">6.07341e-12</wgt>
  <wgt id="58">6.09699e-12</wgt>
  <wgt id="59">6.11153e-12</wgt>
  <wgt id="60">6.06079e-12</wgt>
  <wgt id="61">6.06888e-12</wgt>
  <wgt id="62">6.0895e-12</wgt>
  <wgt id="63">6.09842e-12</wgt>
  <wgt id="64">6.09954e-12</wgt>
  <wgt id="65">6.08348e-12</wgt>
  <wgt id="66">6.10817e-12</wgt>
  <wgt id="67">6.09203e-12</wgt>
  <wgt id="68">6.10226e-12</wgt>
  <wgt id="69">6.09394e-12</wgt>
  <wgt id="70">6.08892e-12</wgt>
  <wgt id="71">6.09932e-12</wgt>
  <wgt id="72">6.06933e-12</wgt>
  <wgt id="73">6.12873e-12</wgt>
  <wgt id="74">6.12459e-12</wgt>
  <wgt id="75">6.10353e-12</wgt>
  <wgt id="76">6.14315e-12</wgt>
  <wgt id="77">6.09319e-12</wgt>
  <wgt id="78">6.09836e-12</wgt>
  <wgt id="79">6.1207e-12</wgt>
  <wgt id="80">6.05448e-12</wgt>
  <wgt id="81">6.1031e-12</wgt>
  <wgt id="82">6.10946e-12</wgt>
  <wgt id="83">6.06684e-12</wgt>
  <wgt id="84">6.08626e-12</wgt>
  <wgt id="85">6.08065e-12</wgt>
  <wgt id="86">6.12758e-12</wgt>
  <wgt id="87">6.04937e-12</wgt>
  <wgt id="88">6.11994e-12</wgt>
  <wgt id="89">6.11381e-12</wgt>
  <wgt id="90">6.12614e-12</wgt>
  <wgt id="91">6.11179e-12</wgt>
  <wgt id="92">6.12081e-12</wgt>
  <wgt id="93">6.11221e-12</wgt>
  <wgt id="94">6.08883e-12</wgt>
  <wgt id="95">6.12552e-12</wgt>
  <wgt id="96">6.11854e-12</wgt>
  <wgt id="97">6.08071e-12</wgt>
  <wgt id="98">6.10384e-12</wgt>
  <wgt id="99">6.09311e-12</wgt>
  <wgt id="100">6.11889e-12</wgt>
  <wgt id="101">6.09821e-12</wgt>
  <wgt id="102">6.09442e-12</wgt>
  <wgt id="103">6.12564e-12</wgt>
  <wgt id="104">6.09276e-12</wgt>
  <wgt id="105">6.1172e-12</wgt>
  <wgt id="106">6.08847e-12</wgt>
  <wgt id="107">6.13952e-12</wgt>
  <wgt id="108">6.09246e-12</wgt>
  <wgt id="109">6.11016e-12</wgt>
  <wgt id="110">6.10142e-12</wgt>
  <wgt id="111">6.12095e-12</wgt>
  <wgt id="112">6.17463e-12</wgt>
  <wgt id="113">8.78479e-12</wgt>
  <wgt id="114">8.28079e-12</wgt>
  <wgt id="115">8.13298e-12</wgt>
  <wgt id="116">1.14573e-11</wgt>
  <wgt id="117">6.79214e-12</wgt>
  <wgt id="118">6.81859e-12</wgt>
  <wgt id="119">6.77705e-12</wgt>
  <wgt id="120">6.79233e-12</wgt>
  <wgt id="121">6.792e-12</wgt>
  <wgt id="122">6.78146e-12</wgt>
  <wgt id="123">6.807e-12</wgt>
  <wgt id="124">6.78319e-12</wgt>
  <wgt id="125">6.79794e-12</wgt>
  <wgt id="126">6.80326e-12</wgt>
  <wgt id="127">6.78471e-12</wgt>
  <wgt id="128">6.81292e-12</wgt>
  <wgt id="129">6.77144e-12</wgt>
  <wgt id="130">6.82732e-12</wgt>
  <wgt id="131">6.75575e-12</wgt>
  <wgt id="132">6.60207e-12</wgt>
  <wgt id="133">7.019e-12</wgt>
  <wgt id="134">6.71701e-12</wgt>
  <wgt id="135">6.85112e-12</wgt>
  <wgt id="136">6.89671e-12</wgt>
  <wgt id="137">6.66648e-12</wgt>
  <wgt id="138">7.10286e-12</wgt>
  <wgt id="139">6.49724e-12</wgt>
  <wgt id="140">6.75821e-12</wgt>
  <wgt id="141">6.81797e-12</wgt>
  <wgt id="142">6.79079e-12</wgt>
  <wgt id="143">6.8123e-12</wgt>
  <wgt id="144">6.51152e-12</wgt>
  <wgt id="145">7.0645e-12</wgt>
  <wgt id="146">6.8825e-12</wgt>
  <wgt id="147">6.71847e-12</wgt>
  <wgt id="148">6.81736e-12</wgt>
  <wgt id="149">6.79037e-12</wgt>
  <wgt id="150">6.8507e-12</wgt>
  <wgt id="151">6.7647e-12</wgt>
  <wgt id="152">6.79448e-12</wgt>
  <wgt id="153">6.79135e-12</wgt>
  <wgt id="154">6.81199e-12</wgt>
  <wgt id="155">6.75728e-12</wgt>
  <wgt id="156">7.01941e-12</wgt>
  <wgt id="157">6.5841e-12</wgt>
  <wgt id="158">8.14048e-12</wgt>
  <wgt id="159">8.17511e-12</wgt>
  <wgt id="160">8.11249e-12</wgt>
  <wgt id="161">8.11863e-12</wgt>
  <wgt id="162">8.16473e-12</wgt>
  <wgt id="163">8.13076e-12</wgt>
  <wgt id="164">8.15476e-12</wgt>
  <wgt id="165">8.14352e-12</wgt>
  <wgt id="166">8.13803e-12</wgt>
  <wgt id="167">8.13474e-12</wgt>
  <wgt id="168">8.14824e-12</wgt>
  <wgt id="169">8.1073e-12</wgt>
  <wgt id="170">8.16101e-12</wgt>
  <wgt id="171">8.1332e-12</wgt>
  <wgt id="172">8.15054e-12</wgt>
  <wgt id="173">8.1272e-12</wgt>
  <wgt id="174">8.14481e-12</wgt>
  <wgt id="175">7.89737e-12</wgt>
  <wgt id="176">8.45939e-12</wgt>
  <wgt id="177">8.18113e-12</wgt>
  <wgt id="178">8.10347e-12</wgt>
  <wgt id="179">8.55658e-12</wgt>
  <wgt id="180">7.49865e-12</wgt>
  <wgt id="181">7.86553e-12</wgt>
  <wgt id="182">8.3237e-12</wgt>
  <wgt id="183">7.97365e-12</wgt>
  <wgt id="184">8.22329e-12</wgt>
  <wgt id="185">8.05146e-12</wgt>
  <wgt id="186">8.24872e-12</wgt>
  <wgt id="187">8.05021e-12</wgt>
  <wgt id="188">8.30021e-12</wgt>
  <wgt id="189">8.07619e-12</wgt>
  <wgt id="190">8.16642e-12</wgt>
  <wgt id="191">8.16917e-12</wgt>
  <wgt id="192">8.12346e-12</wgt>
  <wgt id="193">8.27898e-12</wgt>
  <wgt id="194">8.071e-12</wgt>
  <wgt id="195">7.84281e-12</wgt>
  <wgt id="196">8.6284e-12</wgt>
  <wgt id="197">8.18531e-12</wgt>
  <wgt id="198">8.12967e-12</wgt>
  <wgt id="199">8.14048e-12</wgt>
  <wgt id="200">8.22003e-12</wgt>
  <wgt id="201">8.19273e-12</wgt>
  <wgt id="202">8.16632e-12</wgt>
  <wgt id="203">8.12798e-12</wgt>
  <wgt id="204">8.10879e-12</wgt>
  <wgt id="205">8.09315e-12</wgt>
  <wgt id="206">7.93508e-12</wgt>
  <wgt id="207">7.98293e-12</wgt>
  <wgt id="208">7.88783e-12</wgt>
  <wgt id="209">7.96115e-12</wgt>
  <wgt id="210">7.91614e-12</wgt>
  <wgt id="211">7.93194e-12</wgt>
  <wgt id="212">7.93756e-12</wgt>
  <wgt id="213">7.9344e-12</wgt>
  <wgt id="214">7.93613e-12</wgt>
  <wgt id="215">7.94153e-12</wgt>
  <wgt id="216">7.93047e-12</wgt>
  <wgt id="217">7.955e-12</wgt>
  <wgt id="218">7.91979e-12</wgt>
  <wgt id="219">7.92703e-12</wgt>
  <wgt id="220">7.93994e-12</wgt>
  <wgt id="221">7.93687e-12</wgt>
  <wgt id="222">7.92922e-12</wgt>
  <wgt id="223">7.4755e-12</wgt>
  <wgt id="224">8.35687e-12</wgt>
  <wgt id="225">7.83355e-12</wgt>
  <wgt id="226">8.06415e-12</wgt>
  <wgt id="227">7.85663e-12</wgt>
  <wgt id="228">7.96948e-12</wgt>
  <wgt id="229">7.8185e-12</wgt>
  <wgt id="230">7.99308e-12</wgt>
  <wgt id="231">8.20511e-12</wgt>
  <wgt id="232">7.71452e-12</wgt>
  <wgt id="233">7.88508e-12</wgt>
  <wgt id="234">8.0186e-12</wgt>
  <wgt id="235">7.62067e-12</wgt>
  <wgt id="236">8.19379e-12</wgt>
  <wgt id="237">7.74976e-12</wgt>
  <wgt id="238">7.99692e-12</wgt>
  <wgt id="239">7.85997e-12</wgt>
  <wgt id="240">8.06975e-12</wgt>
  <wgt id="241">7.83767e-12</wgt>
  <wgt id="242">8.05105e-12</wgt>
  <wgt id="243">8.07782e-12</wgt>
  <wgt id="244">7.93989e-12</wgt>
  <wgt id="245">7.93177e-12</wgt>
  <wgt id="246">7.98186e-12</wgt>
  <wgt id="247">7.93508e-12</wgt>
  <wgt id="248">8.01971e-12</wgt>
  <wgt id="249">7.99033e-12</wgt>
  <wgt id="250">7.95979e-12</wgt>
  <wgt id="251">7.91833e-12</wgt>
  <wgt id="252">7.89711e-12</wgt>
  <wgt id="253">7.8826e-12</wgt>
  <wgt id="254">7.67083e-12</wgt>
  <wgt id="255">7.67787e-12</wgt>
  <wgt id="256">7.66326e-12</wgt>
  <wgt id="257">7.67673e-12</wgt>
  <wgt id="258">7.6666e-12</wgt>
  <wgt id="259">7.72249e-12</wgt>
  <wgt id="260">7.621e-12</wgt>
  <wgt id="261">7.68454e-12</wgt>
  <wgt id="262">7.65468e-12</wgt>
  <wgt id="263">7.66521e-12</wgt>
  <wgt id="264">7.67758e-12</wgt>
  <wgt id="265">7.661e-12</wgt>
  <wgt id="266">7.69071e-12</wgt>
  <wgt id="267">7.67358e-12</wgt>
  <wgt id="268">7.66704e-12</wgt>
  <wgt id="269">7.69626e-12</wgt>
  <wgt id="270">7.65364e-12</wgt>
  <wgt id="271">7.6512e-12</wgt>
  <wgt id="272">7.69277e-12</wgt>
  <wgt id="273">7.64901e-12</wgt>
  <wgt id="274">7.68753e-12</wgt>
  <wgt id="275">7.6251e-12</wgt>
  <wgt id="276">7.71827e-12</wgt>
  <wgt id="277">7.62547e-12</wgt>
  <wgt id="278">7.71228e-12</wgt>
  <wgt id="279">7.52126e-12</wgt>
  <wgt id="280">7.85941e-12</wgt>
  <wgt id="281">7.63323e-12</wgt>
  <wgt id="282">7.6806e-12</wgt>
  <wgt id="283">7.41681e-12</wgt>
  <wgt id="284">7.98798e-12</wgt>
  <wgt id="285">7.25314e-12</wgt>
  <wgt id="286">8.02388e-12</wgt>
  <wgt id="287">7.69823e-12</wgt>
  <wgt id="288">7.63588e-12</wgt>
  <wgt id="289">7.73362e-12</wgt>
  <wgt id="290">7.53164e-12</wgt>
  <wgt id="291">7.64136e-12</wgt>
  <wgt id="292">7.67217e-12</wgt>
  <wgt id="293">7.60264e-12</wgt>
  <wgt id="294">7.73878e-12</wgt>
  <wgt id="295">7.5062e-12</wgt>
  <wgt id="296">7.87283e-12</wgt>
  <wgt id="297">7.65276e-12</wgt>
  <wgt id="298">7.71091e-12</wgt>
  <wgt id="299">7.644e-12</wgt>
  <wgt id="300">7.74244e-12</wgt>
  <wgt id="301">7.51129e-12</wgt>
  <wgt id="302">8.03862e-12</wgt>
  <wgt id="303">7.58502e-12</wgt>
  <wgt id="304">7.71898e-12</wgt>
  <wgt id="305">7.61138e-12</wgt>
  <wgt id="306">7.61872e-12</wgt>
  <wgt id="307">7.6036e-12</wgt>
  <wgt id="308">7.61783e-12</wgt>
  <wgt id="309">7.60709e-12</wgt>
  <wgt id="310">7.66415e-12</wgt>
  <wgt id="311">7.56265e-12</wgt>
  <wgt id="312">7.62375e-12</wgt>
  <wgt id="313">7.59828e-12</wgt>
  <wgt id="314">7.6055e-12</wgt>
  <wgt id="315">7.61699e-12</wgt>
  <wgt id="316">7.60147e-12</wgt>
  <wgt id="317">7.63283e-12</wgt>
  <wgt id="318">7.61736e-12</wgt>
  <wgt id="319">7.60092e-12</wgt>
  <wgt id="320">7.63855e-12</wgt>
  <wgt id="321">7.59622e-12</wgt>
  <wgt id="322">7.58944e-12</wgt>
  <wgt id="323">7.63682e-12</wgt>
  <wgt id="324">7.59467e-12</wgt>
  <wgt id="325">7.62595e-12</wgt>
  <wgt id="326">7.57397e-12</wgt>
  <wgt id="327">7.6594e-12</wgt>
  <wgt id="328">7.5716e-12</wgt>
  <wgt id="329">7.63343e-12</wgt>
  <wgt id="330">7.83764e-12</wgt>
  <wgt id="331">7.39647e-12</wgt>
  <wgt id="332">7.58009e-12</wgt>
  <wgt id="333">7.61734e-12</wgt>
  <wgt id="334">7.41742e-12</wgt>
  <wgt id="335">7.85483e-12</wgt>
  <wgt id="336">7.31459e-12</wgt>
  <wgt id="337">7.97937e-12</wgt>
  <wgt id="338">7.70669e-12</wgt>
  <wgt id="339">7.52363e-12</wgt>
  <wgt id="340">7.66829e-12</wgt>
  <wgt id="341">7.47083e-12</wgt>
  <wgt id="342">7.59015e-12</wgt>
  <wgt id="343">7.59735e-12</wgt>
  <wgt id="344">7.55154e-12</wgt>
  <wgt id="345">7.68099e-12</wgt>
  <wgt id="346">7.44282e-12</wgt>
  <wgt id="347">7.80501e-12</wgt>
  <wgt id="348">7.59449e-12</wgt>
  <wgt id="349">7.64742e-12</wgt>
  <wgt id="350">7.57817e-12</wgt>
  <wgt id="351">7.69582e-12</wgt>
  <wgt id="352">7.44709e-12</wgt>
  <wgt id="353">7.97346e-12</wgt>
  <wgt id="354">7.48823e-12</wgt>
  <wgt id="355">7.6846e-12</wgt>
  <wgt id="356">7.67083e-12</wgt>
  <wgt id="357">7.6198e-12</wgt>
  <wgt id="358">7.61138e-12</wgt>
  <wgt id="359">7.67249e-12</wgt>
  <wgt id="360">7.79817e-12</wgt>
  <wgt id="361">7.71014e-12</wgt>
  <wgt id="362">7.86702e-12</wgt>
  <wgt id="363">7.84622e-12</wgt>
  <wgt id="364">7.80783e-12</wgt>
  <wgt id="365">7.77742e-12</wgt>
  <wgt id="366">7.7461e-12</wgt>
  <wgt id="367">7.68622e-12</wgt>
  <wgt id="368">7.64881e-12</wgt>
  <wgt id="369">7.60846e-12</wgt>
  <wgt id="370">7.71014e-12</wgt>
  <wgt id="371">7.74308e-12</wgt>
  <wgt id="372">7.72458e-12</wgt>
  <wgt id="373">7.69844e-12</wgt>
  <wgt id="374">7.70686e-12</wgt>
  <wgt id="375">8.7578e-12</wgt>
  <wgt id="376">8.75866e-12</wgt>
  <wgt id="377">8.75663e-12</wgt>
  <wgt id="378">8.79113e-12</wgt>
  <wgt id="379">8.72473e-12</wgt>
  <wgt id="380">8.78259e-12</wgt>
  <wgt id="381">8.74791e-12</wgt>
  <wgt id="382">8.80132e-12</wgt>
  <wgt id="383">8.71474e-12</wgt>
  <wgt id="384">8.76353e-12</wgt>
  <wgt id="385">8.75231e-12</wgt>
  <wgt id="386">8.78926e-12</wgt>
  <wgt id="387">8.74427e-12</wgt>
  <wgt id="388">8.74978e-12</wgt>
  <wgt id="389">8.7677e-12</wgt>
  <wgt id="390">8.77921e-12</wgt>
  <wgt id="391">8.73502e-12</wgt>
  <wgt id="392">8.67681e-12</wgt>
  <wgt id="393">8.80375e-12</wgt>
  <wgt id="394">8.76514e-12</wgt>
  <wgt id="395">8.74737e-12</wgt>
  <wgt id="396">8.77317e-12</wgt>
  <wgt id="397">8.74681e-12</wgt>
  <wgt id="398">8.73554e-12</wgt>
  <wgt id="399">8.77932e-12</wgt>
  <wgt id="400">8.74286e-12</wgt>
  <wgt id="401">8.79134e-12</wgt>
  <wgt id="402">8.67439e-12</wgt>
  <wgt id="403">8.80883e-12</wgt>
  <wgt id="404">9.01387e-12</wgt>
  <wgt id="405">8.14965e-12</wgt>
  <wgt id="406">8.57432e-12</wgt>
  <wgt id="407">9.16531e-12</wgt>
  <wgt id="408">8.85384e-12</wgt>
  <wgt id="409">8.58042e-12</wgt>
  <wgt id="410">8.46023e-12</wgt>
  <wgt id="411">8.90099e-12</wgt>
  <wgt id="412">8.73728e-12</wgt>
  <wgt id="413">8.78854e-12</wgt>
  <wgt id="414">8.63919e-12</wgt>
  <wgt id="415">8.85007e-12</wgt>
  <wgt id="416">9.06124e-12</wgt>
  <wgt id="417">8.34197e-12</wgt>
  <wgt id="418">8.7752e-12</wgt>
  <wgt id="419">8.66435e-12</wgt>
  <wgt id="420">8.97589e-12</wgt>
  <wgt id="421">8.61451e-12</wgt>
  <wgt id="422">8.70507e-12</wgt>
  <wgt id="423">8.78271e-12</wgt>
  <wgt id="424">9.0233e-12</wgt>
  <wgt id="425">8.57912e-12</wgt>
  <wgt id="426">8.7578e-12</wgt>
  <wgt id="427">8.58857e-12</wgt>
  <wgt id="428">9.15373e-12</wgt>
  <wgt id="429">8.87797e-12</wgt>
  <wgt id="430">9.17521e-12</wgt>
  <wgt id="431">9.11459e-12</wgt>
  <wgt id="432">9.05974e-12</wgt>
  <wgt id="433">9.00589e-12</wgt>
  <wgt id="434">8.93731e-12</wgt>
  <wgt id="435">8.80358e-12</wgt>
  <wgt id="436">8.73606e-12</wgt>
  <wgt id="437">8.67035e-12</wgt>
  <wgt id="438">8.87797e-12</wgt>
  <wgt id="439">8.90547e-12</wgt>
  <wgt id="440">8.88842e-12</wgt>
  <wgt id="441">8.87057e-12</wgt>
  <wgt id="442">8.86481e-12</wgt>
  <wgt id="443">8.05349e-12</wgt>
  <wgt id="444">8.13604e-12</wgt>
  <wgt id="445">8.11848e-12</wgt>
  <wgt id="446">7.99456e-12</wgt>
  <wgt id="447">8.04932e-12</wgt>
  <wgt id="448">7.84676e-12</wgt>
  <wgt id="449">8.2229e-12</wgt>
  <wgt id="450">8.13943e-12</wgt>
  <wgt id="451">8.0308e-12</wgt>
  <wgt id="452">8.24119e-12</wgt>
  <wgt id="453">8.15816e-12</wgt>
  <wgt id="454">7.63308e-12</wgt>
  <wgt id="455">8.1141e-12</wgt>
  <wgt id="456">8.17833e-12</wgt>
  <wgt id="457">8.084e-12</wgt>
  <wgt id="458">8.19352e-12</wgt>
  <wgt id="459">8.12677e-12</wgt>
  <wgt id="460">8.20323e-12</wgt>
  <wgt id="461">7.85435e-12</wgt>
  <wgt id="462">7.98819e-12</wgt>
  <wgt id="463">7.92401e-12</wgt>
  <wgt id="464">8.00989e-12</wgt>
  <wgt id="465">8.14631e-12</wgt>
  <wgt id="466">7.86379e-12</wgt>
  <wgt id="467">7.98332e-12</wgt>
  <wgt id="468">8.04368e-12</wgt>
  <wgt id="469">8.02922e-12</wgt>
  <wgt id="470">7.92886e-12</wgt>
  <wgt id="471">7.94981e-12</wgt>
  <wgt id="472">8.11085e-12</wgt>
  <wgt id="473">7.76737e-12</wgt>
  <wgt id="474">5.79e-12</wgt>
  <wgt id="475">5.81774e-12</wgt>
  <wgt id="476">5.75441e-12</wgt>
  <wgt id="477">5.88969e-12</wgt>
  <wgt id="478">5.86259e-12</wgt>
  <wgt id="479">5.51522e-12</wgt>
  <wgt id="480">6.08907e-12</wgt>
  <wgt id="481">5.81444e-12</wgt>
  <wgt id="482">5.7756e-12</wgt>
  <wgt id="483">5.79308e-12</wgt>
  <wgt id="484">6.05478e-12</wgt>
  <wgt id="485">5.3476e-12</wgt>
  <wgt id="486">6.07556e-12</wgt>
  <wgt id="487">5.65471e-12</wgt>
  <wgt id="488">5.85071e-12</wgt>
  <wgt id="489">5.22622e-12</wgt>
  <wgt id="490">5.67441e-12</wgt>
  <wgt id="491">5.71032e-12</wgt>
  <wgt id="492">5.68292e-12</wgt>
  <wgt id="493">5.3663e-12</wgt>
  <wgt id="494">5.39407e-12</wgt>
  <wgt id="495">5.81638e-12</wgt>
  <wgt id="496">5.50149e-12</wgt>
  <wgt id="497">5.41589e-12</wgt>
  <wgt id="498">5.95709e-12</wgt>
  <wgt id="499">5.81969e-12</wgt>
  <wgt id="500">5.70059e-12</wgt>
  <wgt id="501">6.04222e-12</wgt>
  <wgt id="502">5.98491e-12</wgt>
  <wgt id="503">5.69232e-12</wgt>
  <wgt id="504">5.9771e-12</wgt>
  <wgt id="505">6.00868e-12</wgt>
  <wgt id="506">5.41856e-12</wgt>
  <wgt id="507">5.70317e-12</wgt>
  <wgt id="508">6.08567e-12</wgt>
  <wgt id="509">5.57536e-12</wgt>
  <wgt id="510">5.86072e-12</wgt>
  <wgt id="511">5.5021e-12</wgt>
  <wgt id="512">6.16954e-12</wgt>
  <wgt id="513">6.04634e-12</wgt>
  <wgt id="514">6.08163e-12</wgt>
  <wgt id="515">5.92504e-12</wgt>
  <wgt id="516">6.37019e-12</wgt>
  <wgt id="517">5.93314e-12</wgt>
  <wgt id="518">6.00184e-12</wgt>
  <wgt id="519">5.55303e-12</wgt>
  <wgt id="520">5.881e-12</wgt>
  <wgt id="521">5.69394e-12</wgt>
  <wgt id="522">6.03297e-12</wgt>
  <wgt id="523">5.53939e-12</wgt>
  <wgt id="524">5.90515e-12</wgt>
  <wgt id="525">5.71002e-12</wgt>
  <wgt id="526">6.0714e-12</wgt>
  <wgt id="527">5.73484e-12</wgt>
  <wgt id="528">5.78182e-12</wgt>
  <wgt id="529">5.54009e-12</wgt>
  <wgt id="530">6.07217e-12</wgt>
  <wgt id="531">5.55866e-12</wgt>
  <wgt id="532">6.28372e-12</wgt>
  <wgt id="533">5.72613e-12</wgt>
  <wgt id="534">5.58436e-12</wgt>
  <wgt id="535">5.85331e-12</wgt>
  <wgt id="536">5.97525e-12</wgt>
  <wgt id="537">5.52529e-12</wgt>
  <wgt id="538">5.75614e-12</wgt>
  <wgt id="539">5.64808e-12</wgt>
  <wgt id="540">6.10176e-12</wgt>
  <wgt id="541">5.76238e-12</wgt>
  <wgt id="542">5.66919e-12</wgt>
  <wgt id="543">5.59789e-12</wgt>
  <wgt id="544">5.86886e-12</wgt>
  <wgt id="545">5.49542e-12</wgt>
  <wgt id="546">5.37051e-12</wgt>
  <wgt id="547">5.58399e-12</wgt>
  <wgt id="548">5.5835e-12</wgt>
  <wgt id="549">5.6724e-12</wgt>
  <wgt id="550">5.64021e-12</wgt>
  <wgt id="551">5.82014e-12</wgt>
  <wgt id="552">5.35432e-12</wgt>
  <wgt id="553">5.46212e-12</wgt>
  <wgt id="554">6.10815e-12</wgt>
  <wgt id="555">5.93505e-12</wgt>
  <wgt id="556">5.67441e-12</wgt>
  <wgt id="557">5.92017e-12</wgt>
  <wgt id="558">5.71522e-12</wgt>
  <wgt id="559">5.83213e-12</wgt>
  <wgt id="560">6.41974e-12</wgt>
  <wgt id="561">5.91199e-12</wgt>
  <wgt id="562">5.99923e-12</wgt>
  <wgt id="563">6.33709e-12</wgt>
  <wgt id="564">6.10418e-12</wgt>
  <wgt id="565">5.94727e-12</wgt>
  <wgt id="566">5.63316e-12</wgt>
  <wgt id="567">5.77937e-12</wgt>
  <wgt id="568">5.59373e-12</wgt>
  <wgt id="569">5.83282e-12</wgt>
  <wgt id="570">5.74234e-12</wgt>
  <wgt id="571">6.43277e-12</wgt>
  <wgt id="572">5.59188e-12</wgt>
  <wgt id="573">5.61216e-12</wgt>
  <wgt id="574">5.64425e-12</wgt>
  <wgt id="575">6.41613e-12</wgt>
  <wgt id="576">6.94441e-12</wgt>
  <wgt id="577">6.69026e-12</wgt>
  <wgt id="578">6.51099e-12</wgt>
  <wgt id="579">6.6615e-12</wgt>
  <wgt id="580">6.82073e-12</wgt>
  <wgt id="581">7.07397e-12</wgt>
  <wgt id="582">6.81854e-12</wgt>
  <wgt id="583">6.53955e-12</wgt>
  <wgt id="584">6.35271e-12</wgt>
  <wgt id="585">5.97596e-12</wgt>
  <wgt id="586">6.043e-12</wgt>
  <wgt id="587">6.53627e-12</wgt>
  <wgt id="588">6.97276e-12</wgt>
  <wgt id="589">6.9897e-12</wgt>
  <wgt id="590">6.37933e-12</wgt>
  <wgt id="591">6.60354e-12</wgt>
  <wgt id="592">5.99517e-12</wgt>
  <wgt id="593">6.23143e-12</wgt>
  <wgt id="594">6.29087e-12</wgt>
  <wgt id="595">6.71629e-12</wgt>
  <wgt id="596">7.50504e-12</wgt>
  <wgt id="597">6.48642e-12</wgt>
  <wgt id="598">6.50626e-12</wgt>
  <wgt id="599">6.82951e-12</wgt>
  <wgt id="600">6.8147e-12</wgt>
  <wgt id="601">6.14859e-12</wgt>
  <wgt id="602">6.21407e-12</wgt>
  <wgt id="603">6.02176e-12</wgt>
  <wgt id="604">6.57964e-12</wgt>
  <wgt id="605">6.49246e-12</wgt>
  <wgt id="606">6.50993e-12</wgt>
  <wgt id="607">6.68524e-12</wgt>
  <wgt id="608">6.65209e-12</wgt>
  <wgt id="609">6.30834e-12</wgt>
  <wgt id="610">6.12987e-12</wgt>
  <wgt id="611">6.14978e-12</wgt>
  <wgt id="612">6.66219e-12</wgt>
  <wgt id="613">6.12183e-12</wgt>
  <wgt id="614">6.36894e-12</wgt>
  <wgt id="615">6.50628e-12</wgt>
  <wgt id="616">6.19525e-12</wgt>
  <wgt id="617">6.67202e-12</wgt>
  <wgt id="618">7.0258e-12</wgt>
  <wgt id="619">6.28442e-12</wgt>
  <wgt id="620">6.6278e-12</wgt>
  <wgt id="621">6.34835e-12</wgt>
  <wgt id="622">6.53627e-12</wgt>
  <wgt id="623">6.4455e-12</wgt>
  <wgt id="624">6.44913e-12</wgt>
  <wgt id="625">6.11849e-12</wgt>
  <wgt id="626">5.73626e-12</wgt>
  <wgt id="627">5.81275e-12</wgt>
  <wgt id="628">6.41106e-12</wgt>
  <wgt id="629">6.5175e-12</wgt>
  <wgt id="630">6.25256e-12</wgt>
  <wgt id="631">6.57742e-12</wgt>
  <wgt id="632">5.86659e-12</wgt>
  <wgt id="633">6.3724e-12</wgt>
  <wgt id="634">6.15137e-12</wgt>
  <wgt id="635">5.92377e-12</wgt>
  <wgt id="636">6.48492e-12</wgt>
  <wgt id="637">6.4e-12</wgt>
  <wgt id="638">6.10844e-12</wgt>
  <wgt id="639">6.13858e-12</wgt>
  <wgt id="640">6.26192e-12</wgt>
  <wgt id="641">6.7139e-12</wgt>
  <wgt id="642">5.90738e-12</wgt>
  <wgt id="643">6.25035e-12</wgt>
  <wgt id="644">5.76386e-12</wgt>
  <wgt id="645">6.41038e-12</wgt>
  <wgt id="646">5.92977e-12</wgt>
  <wgt id="647">6.48224e-12</wgt>
  <wgt id="648">6.70758e-12</wgt>
  <wgt id="649">6.45461e-12</wgt>
  <wgt id="650">6.12655e-12</wgt>
  <wgt id="651">6.85296e-12</wgt>
  <wgt id="652">6.15333e-12</wgt>
  <wgt id="653">6.16265e-12</wgt>
  <wgt id="654">6.49212e-12</wgt>
  <wgt id="655">6.14552e-12</wgt>
  <wgt id="656">6.4285e-12</wgt>
  <wgt id="657">7.00846e-12</wgt>
  <wgt id="658">6.46242e-12</wgt>
  <wgt id="659">6.13779e-12</wgt>
  <wgt id="660">6.22016e-12</wgt>
  <wgt id="661">6.24327e-12</wgt>
  <wgt id="662">6.30505e-12</wgt>
  <wgt id="663">6.52518e-12</wgt>
  <wgt id="664">6.48375e-12</wgt>
  <wgt id="665">6.33942e-12</wgt>
  <wgt id="666">6.26542e-12</wgt>
  <wgt id="667">6.76542e-12</wgt>
  <wgt id="668">6.33306e-12</wgt>
  <wgt id="669">6.40944e-12</wgt>
  <wgt id="670">6.72921e-12</wgt>
  <wgt id="671">6.47618e-12</wgt>
  <wgt id="672">6.23652e-12</wgt>
  <wgt id="673">6.80636e-12</wgt>
  <wgt id="674">6.21502e-12</wgt>
  <wgt id="675">6.17141e-12</wgt>
  <wgt id="676">8.35448e-12</wgt>
  <wgt id="677">8.43639e-12</wgt>
  <wgt id="678">9.16428e-12</wgt>
  <wgt id="679">8.5036e-12</wgt>
  <wgt id="680">8.40528e-12</wgt>
  <wgt id="681">8.17073e-12</wgt>
  <wgt id="682">8.76299e-12</wgt>
  <wgt id="683">7.71182e-12</wgt>
  <wgt id="684">8.82551e-12</wgt>
  <wgt id="685">8.28803e-12</wgt>
  <wgt id="686">8.50385e-12</wgt>
  <wgt id="687">8.67032e-12</wgt>
  <wgt id="688">8.08472e-12</wgt>
  <wgt id="689">8.8034e-12</wgt>
  <wgt id="690">8.60924e-12</wgt>
  <wgt id="691">8.57289e-12</wgt>
  <wgt id="692">8.14465e-12</wgt>
  <wgt id="693">1.10895e-11</wgt>
  <wgt id="694">9.2084e-12</wgt>
  <wgt id="695">7.81315e-12</wgt>
  <wgt id="696">7.94849e-12</wgt>
  <wgt id="697">7.534e-12</wgt>
  <wgt id="698">6.89867e-12</wgt>
  <wgt id="699">7.04996e-12</wgt>
  <wgt id="700">7.32975e-12</wgt>
  <wgt id="701">8.3545e-12</wgt>
  <wgt id="702">8.01053e-12</wgt>
  <wgt id="703">1.04088e-11</wgt>
  <wgt id="704">9.44564e-12</wgt>
  <wgt id="705">9.36537e-12</wgt>
  <wgt id="706">7.74927e-12</wgt>
  <wgt id="707">7.81232e-12</wgt>
  <wgt id="708">7.99826e-12</wgt>
  <wgt id="709">8.09132e-12</wgt>
  <wgt id="710">6.99735e-12</wgt>
  <wgt id="711">8.87544e-12</wgt>
  <wgt id="712">7.847e-12</wgt>
  <wgt id="713">9.01822e-12</wgt>
  <wgt id="714">7.5426e-12</wgt>
  <wgt id="715">7.972e-12</wgt>
  <wgt id="716">8.03066e-12</wgt>
  <wgt id="717">7.26975e-12</wgt>
  <wgt id="718">8.53139e-12</wgt>
  <wgt id="719">7.58342e-12</wgt>
  <wgt id="720">8.49109e-12</wgt>
  <wgt id="721">7.13121e-12</wgt>
  <wgt id="722">6.56942e-12</wgt>
  <wgt id="723">9.41642e-12</wgt>
  <wgt id="724">9.07294e-12</wgt>
  <wgt id="725">8.77037e-12</wgt>
  <wgt id="726">8.32455e-12</wgt>
  <wgt id="727">8.37324e-12</wgt>
  <wgt id="728">8.18224e-12</wgt>
  <wgt id="729">7.63371e-12</wgt>
  <wgt id="730">9.30532e-12</wgt>
  <wgt id="731">8.22709e-12</wgt>
  <wgt id="732">9.75127e-12</wgt>
  <wgt id="733">7.78768e-12</wgt>
  <wgt id="734">8.65919e-12</wgt>
  <wgt id="735">8.3402e-12</wgt>
  <wgt id="736">7.7522e-12</wgt>
  <wgt id="737">7.82751e-12</wgt>
  <wgt id="738">7.91997e-12</wgt>
  <wgt id="739">8.91685e-12</wgt>
  <wgt id="740">9.92132e-12</wgt>
  <wgt id="741">8.62309e-12</wgt>
  <wgt id="742">8.02513e-12</wgt>
  <wgt id="743">7.5921e-12</wgt>
  <wgt id="744">8.18963e-12</wgt>
  <wgt id="745">9.16214e-12</wgt>
  <wgt id="746">9.42036e-12</wgt>
  <wgt id="747">6.93946e-12</wgt>
  <wgt id="748">8.04662e-12</wgt>
  <wgt id="749">8.72356e-12</wgt>
  <wgt id="750">8.99696e-12</wgt>
  <wgt id="751">8.4447e-12</wgt>
  <wgt id="752">7.49233e-12</wgt>
  <wgt id="753">7.47529e-12</wgt>
  <wgt id="754">8.7354e-12</wgt>
  <wgt id="755">8.17584e-12</wgt>
  <wgt id="756">8.11937e-12</wgt>
  <wgt id="757">7.21123e-12</wgt>
  <wgt id="758">8.15557e-12</wgt>
  <wgt id="759">9.12084e-12</wgt>
  <wgt id="760">8.03335e-12</wgt>
  <wgt id="761">9.27276e-12</wgt>
  <wgt id="762">9.32223e-12</wgt>
  <wgt id="763">8.54785e-12</wgt>
  <wgt id="764">8.94804e-12</wgt>
  <wgt id="765">8.4387e-12</wgt>
  <wgt id="766">8.46623e-12</wgt>
  <wgt id="767">8.54199e-12</wgt>
  <wgt id="768">7.59079e-12</wgt>
  <wgt id="769">8.82405e-12</wgt>
  <wgt id="770">7.82835e-12</wgt>
  <wgt id="771">1.03477e-11</wgt>
  <wgt id="772">8.10245e-12</wgt>
  <wgt id="773">8.38138e-12</wgt>
  <wgt id="774">6.61176e-12</wgt>
  <wgt id="775">8.77512e-12</wgt>
  <wgt id="776">9.66296e-12</wgt>
  <wgt id="777">7.39937e-12</wgt>
  <wgt id="778">5.46417e-12</wgt>
  <wgt id="779">3.37351e-12</wgt>
  <wgt id="780">2.00038e-12</wgt>
  <wgt id="781">6.19803e-12</wgt>
  <wgt id="782">6.67694e-12</wgt>
  <wgt id="783">3.03477e-12</wgt>
  <wgt id="784">3.8323e-12</wgt>
  <wgt id="785">8.21316e-12</wgt>
  <wgt id="786">2.98206e-12</wgt>
  <wgt id="787">7.13224e-12</wgt>
  <wgt id="788">1.06609e-12</wgt>
  <wgt id="789">3.74197e-12</wgt>
  <wgt id="790">3.02891e-12</wgt>
  <wgt id="791">6.27482e-12</wgt>
  <wgt id="792">7.43988e-12</wgt>
  <wgt id="793">5.13062e-12</wgt>
  <wgt id="794">2.76612e-12</wgt>
  <wgt id="795">7.63907e-12</wgt>
  <wgt id="796">7.81941e-12</wgt>
  <wgt id="797">7.13984e-12</wgt>
  <wgt id="798">4.17435e-12</wgt>
  <wgt id="799">7.00638e-12</wgt>
  <wgt id="800">4.12947e-12</wgt>
  <wgt id="801">5.3087e-12</wgt>
  <wgt id="802">2.65908e-12</wgt>
  <wgt id="803">8.85801e-12</wgt>
  <wgt id="804">7.6172e-12</wgt>
  <wgt id="805">7.46546e-12</wgt>
  <wgt id="806">6.04364e-12</wgt>
  <wgt id="807">5.35522e-12</wgt>
  <wgt id="808">5.26133e-12</wgt>
  <wgt id="809">4.87335e-12</wgt>
  <wgt id="810">6.63331e-12</wgt>
  <wgt id="811">5.79425e-12</wgt>
  <wgt id="812">3.09944e-12</wgt>
  <wgt id="813">3.34781e-12</wgt>
  <wgt id="814">3.75257e-12</wgt>
  <wgt id="815">3.11328e-12</wgt>
  <wgt id="816">3.43168e-12</wgt>
  <wgt id="817">5.57928e-12</wgt>
  <wgt id="818">7.30478e-12</wgt>
  <wgt id="819">3.31539e-12</wgt>
  <wgt id="820">5.14896e-12</wgt>
  <wgt id="821">6.75992e-12</wgt>
  <wgt id="822">4.36188e-12</wgt>
  <wgt id="823">7.11579e-12</wgt>
  <wgt id="824">8.44897e-12</wgt>
  <wgt id="825">2.49481e-12</wgt>
  <wgt id="826">6.96078e-12</wgt>
  <wgt id="827">2.24734e-12</wgt>
  <wgt id="828">7.14757e-12</wgt>
  <wgt id="829">5.67965e-12</wgt>
  <wgt id="830">2.36545e-12</wgt>
  <wgt id="831">6.54599e-12</wgt>
  <wgt id="832">1.00852e-11</wgt>
  <wgt id="833">4.33173e-12</wgt>
  <wgt id="834">9.84671e-12</wgt>
  <wgt id="835">3.72392e-12</wgt>
  <wgt id="836">4.44952e-12</wgt>
  <wgt id="837">6.57465e-12</wgt>
  <wgt id="838">4.3484e-12</wgt>
  <wgt id="839">6.53425e-12</wgt>
  <wgt id="840">4.62974e-12</wgt>
  <wgt id="841">7.88469e-12</wgt>
  <wgt id="842">5.44767e-12</wgt>
  <wgt id="843">5.92107e-12</wgt>
  <wgt id="844">6.17122e-12</wgt>
  <wgt id="845">9.89526e-12</wgt>
  <wgt id="846">5.42876e-12</wgt>
  <wgt id="847">5.88139e-12</wgt>
  <wgt id="848">3.24652e-12</wgt>
  <wgt id="849">6.04324e-12</wgt>
  <wgt id="850">8.67384e-12</wgt>
  <wgt id="851">6.58242e-12</wgt>
  <wgt id="852">2.71742e-12</wgt>
  <wgt id="853">6.89058e-12</wgt>
  <wgt id="854">7.84411e-12</wgt>
  <wgt id="855">6.9349e-12</wgt>
  <wgt id="856">2.34102e-12</wgt>
  <wgt id="857">4.74923e-12</wgt>
  <wgt id="858">5.17389e-12</wgt>
  <wgt id="859">5.24973e-12</wgt>
  <wgt id="860">7.14931e-12</wgt>
  <wgt id="861">4.45588e-12</wgt>
  <wgt id="862">5.65746e-12</wgt>
  <wgt id="863">6.434e-12</wgt>
  <wgt id="864">5.66703e-12</wgt>
  <wgt id="865">9.19642e-12</wgt>
  <wgt id="866">1.01227e-11</wgt>
  <wgt id="867">5.59327e-12</wgt>
  <wgt id="868">5.78201e-12</wgt>
  <wgt id="869">2.99145e-12</wgt>
  <wgt id="870">3.6544e-12</wgt>
  <wgt id="871">3.70107e-12</wgt>
  <wgt id="872">8.10416e-12</wgt>
  <wgt id="873">4.25367e-12</wgt>
  <wgt id="874">6.16453e-12</wgt>
  <wgt id="875">4.14777e-12</wgt>
  <wgt id="876">7.7477e-12</wgt>
  <wgt id="877">6.38248e-12</wgt>
  <wgt id="878">4.35151e-12</wgt>
  <wgt id="879">8.35448e-12</wgt>
  <wgt id="880">8.43639e-12</wgt>
  <wgt id="881">9.16428e-12</wgt>
  <wgt id="882">8.5036e-12</wgt>
  <wgt id="883">8.40528e-12</wgt>
  <wgt id="884">8.17073e-12</wgt>
  <wgt id="885">8.76299e-12</wgt>
  <wgt id="886">7.71182e-12</wgt>
  <wgt id="887">8.82551e-12</wgt>
  <wgt id="888">8.28803e-12</wgt>
  <wgt id="889">8.50385e-12</wgt>
  <wgt id="890">8.67032e-12</wgt>
  <wgt id="891">8.08472e-12</wgt>
  <wgt id="892">8.8034e-12</wgt>
  <wgt id="893">8.60924e-12</wgt>
  <wgt id="894">8.57289e-12</wgt>
  <wgt id="895">8.14465e-12</wgt>
  <wgt id="896">1.10895e-11</wgt>
  <wgt id="897">9.2084e-12</wgt>
  <wgt id="898">7.81315e-12</wgt>
  <wgt id="899">7.94849e-12</wgt>
  <wgt id="900">7.534e-12</wgt>
  <wgt id="901">6.89867e-12</wgt>
  <wgt id="902">7.04996e-12</wgt>
  <wgt id="903">7.32975e-12</wgt>
  <wgt id="904">8.3545e-12</wgt>
  <wgt id="905">8.01053e-12</wgt>
  <wgt id="906">1.04088e-11</wgt>
  <wgt id="907">9.44564e-12</wgt>
  <wgt id="908">9.36537e-12</wgt>
  <wgt id="909">7.74927e-12</wgt>
  <wgt id="910">7.81232e-12</wgt>
  <wgt id="911">7.99826e-12</wgt>
  <wgt id="912">8.09132e-12</wgt>
  <wgt id="913">6.99735e-12</wgt>
  <wgt id="914">8.87544e-12</wgt>
  <wgt id="915">7.847e-12</wgt>
  <wgt id="916">9.01822e-12</wgt>
  <wgt id="917">7.5426e-12</wgt>
  <wgt id="918">7.972e-12</wgt>
  <wgt id="919">8.03066e-12</wgt>
  <wgt id="920">7.26975e-12</wgt>
  <wgt id="921">8.53139e-12</wgt>
  <wgt id="922">7.58342e-12</wgt>
  <wgt id="923">8.49109e-12</wgt>
  <wgt id="924">7.13121e-12</wgt>
  <wgt id="925">6.56942e-12</wgt>
  <wgt id="926">9.41642e-12</wgt>
  <wgt id="927">9.07294e-12</wgt>
  <wgt id="928">8.77037e-12</wgt>
  <wgt id="929">8.32455e-12</wgt>
  <wgt id="930">8.37324e-12</wgt>
  <wgt id="931">8.18224e-12</wgt>
  <wgt id="932">7.63371e-12</wgt>
  <wgt id="933">9.30532e-12</wgt>
  <wgt id="934">8.22709e-12</wgt>
  <wgt id="935">9.75127e-12</wgt>
  <wgt id="936">7.78768e-12</wgt>
  <wgt id="937">8.65919e-12</wgt>
  <wgt id="938">8.3402e-12</wgt>
  <wgt id="939">7.7522e-12</wgt>
  <wgt id="940">7.82751e-12</wgt>
  <wgt id="941">7.91997e-12</wgt>
  <wgt id="942">8.91685e-12</wgt>
  <wgt id="943">9.92132e-12</wgt>
  <wgt id="944">8.62309e-12</wgt>
  <wgt id="945">8.02513e-12</wgt>
  <wgt id="946">7.5921e-12</wgt>
  <wgt id="947">8.18963e-12</wgt>
  <wgt id="948">9.16214e-12</wgt>
  <wgt id="949">9.42036e-12</wgt>
  <wgt id="950">6.93946e-12</wgt>
  <wgt id="951">8.04662e-12</wgt>
  <wgt id="952">8.72356e-12</wgt>
  <wgt id="953">8.99696e-12</wgt>
  <wgt id="954">8.4447e-12</wgt>
  <wgt id="955">7.49233e-12</wgt>
  <wgt id="956">7.47529e-12</wgt>
  <wgt id="957">8.7354e-12</wgt>
  <wgt id="958">8.17584e-12</wgt>
  <wgt id="959">8.11937e-12</wgt>
  <wgt id="960">7.21123e-12</wgt>
  <wgt id="961">8.15557e-12</wgt>
  <wgt id="962">9.12084e-12</wgt>
  <wgt id="963">8.03335e-12</wgt>
  <wgt id="964">9.27276e-12</wgt>
  <wgt id="965">9.32223e-12</wgt>
  <wgt id="966">8.54785e-12</wgt>
  <wgt id="967">8.94804e-12</wgt>
  <wgt id="968">8.4387e-12</wgt>
  <wgt id="969">8.46623e-12</wgt>
  <wgt id="970">8.54199e-12</wgt>
  <wgt id="971">7.59079e-12</wgt>
  <wgt id="972">8.82405e-12</wgt>
  <wgt id="973">7.82835e-12</wgt>
  <wgt id="974">1.03477e-11</wgt>
  <wgt id="975">8.10245e-12</wgt>
  <wgt id="976">8.38138e-12</wgt>
  <wgt id="977">6.61176e-12</wgt>
  <wgt id="978">8.77512e-12</wgt>
  <wgt id="979">9.66296e-12</wgt>
  <wgt id="980">8.29746e-12</wgt>
  <wgt id="981">8.54207e-12</wgt>
  <wgt id="982">8.09788e-12</wgt>
</rwgt>
</event>
<event>
 5   1  0.5790000E-11  0.2129712E+04  0.7818608E-02  0.7775874E-01
       21   -1    0    0  502  501  0.00000000000E+00  0.00000000000E+00  0.15813889013E+04  0.15813889013E+04  0.00000000000E+00 0.  1.
       21   -1    0    0  501  502 -0.00000000000E+00 -0.00000000000E+00 -0.71703982217E+03  0.71703982217E+03  0.00000000000E+00 0. -1.
       39    2    1    2    0    0  0.00000000000E+00  0.00000000000E+00  0.86434907913E+03  0.22984287235E+04  0.21297124844E+04 0.  0.
       25    1    3    3    0    0  0.94138427681E+02 -0.10362610923E+04  0.63578630241E+03  0.12257847761E+04  0.12500000000E+03 0.  0.
       25    1    3    3    0    0 -0.94138427681E+02  0.10362610923E+04  0.22856277671E+03  0.10726439474E+04  0.12500000000E+03 0.  0.
<mgrwt>
<rscale>  0 0.21297125E+04</rscale>
<asrwt>0</asrwt>
<pdfrwt beam="1">  1       21 0.24329060E+00 0.21297125E+04</pdfrwt>
<pdfrwt beam="2">  1       21 0.11031382E+00 0.21297125E+04</pdfrwt>
<totfact> 0.18843569E+01</totfact>
</mgrwt>
<rwgt>
  <wgt id="1">5.79e-12</wgt>
  <wgt id="2">5.05235e-12</wgt>
  <wgt id="3">6.70307e-12</wgt>
  <wgt id="4">5.79e-12</wgt>
  <wgt id="5">5.05235e-12</wgt>
  <wgt id="6">6.70307e-12</wgt>
  <wgt id="7">5.79e-12</wgt>
  <wgt id="8">5.05235e-12</wgt>
  <wgt id="9">6.70307e-12</wgt>
  <wgt id="10">5.98436e-12</wgt>
  <wgt id="11">5.98071e-12</wgt>
  <wgt id="12">5.97526e-12</wgt>
  <wgt id="13">5.96648e-12</wgt>
  <wgt id="14">6.00605e-12</wgt>
  <wgt id="15">5.9945e-12</wgt>
  <wgt id="16">5.97556e-12</wgt>
  <wgt id="17">6.00227e-12</wgt>
  <wgt id="18">5.97495e-12</wgt>
  <wgt id="19">5.9975e-12</wgt>
  <wgt id="20">5.97148e-12</wgt>
  <wgt id="21">5.94283e-12</wgt>
  <wgt id="22">5.95386e-12</wgt>
  <wgt id="23">5.92146e-12</wgt>
  <wgt id="24">5.95097e-12</wgt>
  <wgt id="25">5.96733e-12</wgt>
  <wgt id="26">6.00325e-12</wgt>
  <wgt id="27">5.98059e-12</wgt>
  <wgt id="28">5.95347e-12</wgt>
  <wgt id="29">5.98825e-12</wgt>
  <wgt id="30">5.95547e-12</wgt>
  <wgt id="31">6.00704e-12</wgt>
  <wgt id="32">5.96399e-12</wgt>
  <wgt id="33">5.99565e-12</wgt>
  <wgt id="34">5.9586e-12</wgt>
  <wgt id="35">5.96931e-12</wgt>
  <wgt id="36">6.0038e-12</wgt>
  <wgt id="37">5.96835e-12</wgt>
  <wgt id="38">5.96696e-12</wgt>
  <wgt id="39">6.05857e-12</wgt>
  <wgt id="40">5.99068e-12</wgt>
  <wgt id="41">5.98189e-12</wgt>
  <wgt id="42">5.9938e-12</wgt>
  <wgt id="43">5.98361e-12</wgt>
  <wgt id="44">5.98267e-12</wgt>
  <wgt id="45">5.99466e-12</wgt>
  <wgt id="46">5.98328e-12</wgt>
  <wgt id="47">5.98592e-12</wgt>
  <wgt id="48">5.98599e-12</wgt>
  <wgt id="49">5.97215e-12</wgt>
  <wgt id="50">5.98653e-12</wgt>
  <wgt id="51">5.98731e-12</wgt>
  <wgt id="52">5.99116e-12</wgt>
  <wgt id="53">5.96203e-12</wgt>
  <wgt id="54">5.98315e-12</wgt>
  <wgt id="55">5.98354e-12</wgt>
  <wgt id="56">6.00742e-12</wgt>
  <wgt id="57">5.99616e-12</wgt>
  <wgt id="58">5.95973e-12</wgt>
  <wgt id="59">5.97123e-12</wgt>
  <wgt id="60">5.98805e-12</wgt>
  <wgt id="61">5.95484e-12</wgt>
  <wgt id="62">5.96664e-12</wgt>
  <wgt id="63">5.97765e-12</wgt>
  <wgt id="64">5.98697e-12</wgt>
  <wgt id="65">5.99238e-12</wgt>
  <wgt id="66">5.97776e-12</wgt>
  <wgt id="67">5.95748e-12</wgt>
  <wgt id="68">5.9819e-12</wgt>
  <wgt id="69">5.98578e-12</wgt>
  <wgt id="70">5.9857e-12</wgt>
  <wgt id="71">5.98281e-12</wgt>
  <wgt id="72">5.96981e-12</wgt>
  <wgt id="73">5.99065e-12</wgt>
  <wgt id="74">5.98684e-12</wgt>
  <wgt id="75">5.97684e-12</wgt>
  <wgt id="76">5.99867e-12</wgt>
  <wgt id="77">5.98204e-12</wgt>
  <wgt id="78">5.98323e-12</wgt>
  <wgt id="79">5.99906e-12</wgt>
  <wgt id="80">5.96135e-12</wgt>
  <wgt id="81">5.9808e-12</wgt>
  <wgt id="82">5.98475e-12</wgt>
  <wgt id="83">5.96261e-12</wgt>
  <wgt id="84">5.97726e-12</wgt>
  <wgt id="85">5.97007e-12</wgt>
  <wgt id="86">6.00268e-12</wgt>
  <wgt id="87">5.95199e-12</wgt>
  <wgt id="88">5.99063e-12</wgt>
  <wgt id="89">5.98911e-12</wgt>
  <wgt id="90">5.99802e-12</wgt>
  <wgt id="91">5.99091e-12</wgt>
  <wgt id="92">5.99629e-12</wgt>
  <wgt id="93">5.98819e-12</wgt>
  <wgt id="94">5.97865e-12</wgt>
  <wgt id="95">5.99487e-12</wgt>
  <wgt id="96">5.98935e-12</wgt>
  <wgt id="97">5.97211e-12</wgt>
  <wgt id="98">5.9867e-12</wgt>
  <wgt id="99">5.97378e-12</wgt>
  <wgt id="100">5.99137e-12</wgt>
  <wgt id="101">5.98584e-12</wgt>
  <wgt id="102">5.98028e-12</wgt>
  <wgt id="103">5.99306e-12</wgt>
  <wgt id="104">5.98175e-12</wgt>
  <wgt id="105">5.99319e-12</wgt>
  <wgt id="106">5.97507e-12</wgt>
  <wgt id="107">6.00225e-12</wgt>
  <wgt id="108">5.97775e-12</wgt>
  <wgt id="109">5.98556e-12</wgt>
  <wgt id="110">5.98467e-12</wgt>
  <wgt id="111">6.03172e-12</wgt>
  <wgt id="112">6.00172e-12</wgt>
  <wgt id="113">8.03341e-12</wgt>
  <wgt id="114">8.14231e-12</wgt>
  <wgt id="115">8.01352e-12</wgt>
  <wgt id="116">1.08349e-11</wgt>
  <wgt id="117">6.57173e-12</wgt>
  <wgt id="118">6.59284e-12</wgt>
  <wgt id="119">6.55958e-12</wgt>
  <wgt id="120">6.5724e-12</wgt>
  <wgt id="121">6.57135e-12</wgt>
  <wgt id="122">6.56009e-12</wgt>
  <wgt id="123">6.58754e-12</wgt>
  <wgt id="124">6.56223e-12</wgt>
  <wgt id="125">6.57768e-12</wgt>
  <wgt id="126">6.58169e-12</wgt>
  <wgt id="127">6.56496e-12</wgt>
  <wgt id="128">6.59211e-12</wgt>
  <wgt id="129">6.55145e-12</wgt>
  <wgt id="130">6.60743e-12</wgt>
  <wgt id="131">6.53488e-12</wgt>
  <wgt id="132">6.40409e-12</wgt>
  <wgt id="133">6.76927e-12</wgt>
  <wgt id="134">6.50432e-12</wgt>
  <wgt id="135">6.62433e-12</wgt>
  <wgt id="136">6.65472e-12</wgt>
  <wgt id="137">6.47127e-12</wgt>
  <wgt id="138">6.82212e-12</wgt>
  <wgt id="139">6.32972e-12</wgt>
  <wgt id="140">6.53008e-12</wgt>
  <wgt id="141">6.60404e-12</wgt>
  <wgt id="142">6.57194e-12</wgt>
  <wgt id="143">6.58279e-12</wgt>
  <wgt id="144">6.38881e-12</wgt>
  <wgt id="145">6.74147e-12</wgt>
  <wgt id="146">6.62889e-12</wgt>
  <wgt id="147">6.52622e-12</wgt>
  <wgt id="148">6.59165e-12</wgt>
  <wgt id="149">6.57025e-12</wgt>
  <wgt id="150">6.62638e-12</wgt>
  <wgt id="151">6.54614e-12</wgt>
  <wgt id="152">6.574e-12</wgt>
  <wgt id="153">6.57086e-12</wgt>
  <wgt id="154">6.61936e-12</wgt>
  <wgt id="155">6.51244e-12</wgt>
  <wgt id="156">6.70244e-12</wgt>
  <wgt id="157">6.43438e-12</wgt>
  <wgt id="158">7.90666e-12</wgt>
  <wgt id="159">7.93976e-12</wgt>
  <wgt id="160">7.88019e-12</wgt>
  <wgt id="161">7.88835e-12</wgt>
  <wgt id="162">7.92681e-12</wgt>
  <wgt id="163">7.8984e-12</wgt>
  <wgt id="164">7.91816e-12</wgt>
  <wgt id="165">7.90974e-12</wgt>
  <wgt id="166">7.90413e-12</wgt>
  <wgt id="167">7.90081e-12</wgt>
  <wgt id="168">7.91469e-12</wgt>
  <wgt id="169">7.8726e-12</wgt>
  <wgt id="170">7.92775e-12</wgt>
  <wgt id="171">7.8992e-12</wgt>
  <wgt id="172">7.91654e-12</wgt>
  <wgt id="173">7.90368e-12</wgt>
  <wgt id="174">7.90754e-12</wgt>
  <wgt id="175">7.69332e-12</wgt>
  <wgt id="176">8.18367e-12</wgt>
  <wgt id="177">7.94483e-12</wgt>
  <wgt id="178">7.87149e-12</wgt>
  <wgt id="179">8.2328e-12</wgt>
  <wgt id="180">7.39191e-12</wgt>
  <wgt id="181">7.68209e-12</wgt>
  <wgt id="182">8.05494e-12</wgt>
  <wgt id="183">7.76949e-12</wgt>
  <wgt id="184">7.97433e-12</wgt>
  <wgt id="185">7.83948e-12</wgt>
  <wgt id="186">7.98585e-12</wgt>
  <wgt id="187">7.83332e-12</wgt>
  <wgt id="188">8.03712e-12</wgt>
  <wgt id="189">7.85619e-12</wgt>
  <wgt id="190">7.92695e-12</wgt>
  <wgt id="191">7.9284e-12</wgt>
  <wgt id="192">7.89327e-12</wgt>
  <wgt id="193">8.01552e-12</wgt>
  <wgt id="194">7.85237e-12</wgt>
  <wgt id="195">7.72318e-12</wgt>
  <wgt id="196">8.23723e-12</wgt>
  <wgt id="197">7.94473e-12</wgt>
  <wgt id="198">7.8975e-12</wgt>
  <wgt id="199">7.90666e-12</wgt>
  <wgt id="200">7.97341e-12</wgt>
  <wgt id="201">7.94926e-12</wgt>
  <wgt id="202">7.92619e-12</wgt>
  <wgt id="203">7.89111e-12</wgt>
  <wgt id="204">7.87455e-12</wgt>
  <wgt id="205">7.86056e-12</wgt>
  <wgt id="206">7.71886e-12</wgt>
  <wgt id="207">7.76384e-12</wgt>
  <wgt id="208">7.67479e-12</wgt>
  <wgt id="209">7.73946e-12</wgt>
  <wgt id="210">7.70413e-12</wgt>
  <wgt id="211">7.71676e-12</wgt>
  <wgt id="212">7.72045e-12</wgt>
  <wgt id="213">7.71813e-12</wgt>
  <wgt id="214">7.71993e-12</wgt>
  <wgt id="215">7.72377e-12</wgt>
  <wgt id="216">7.71541e-12</wgt>
  <wgt id="217">7.73857e-12</wgt>
  <wgt id="218">7.70389e-12</wgt>
  <wgt id="219">7.70813e-12</wgt>
  <wgt id="220">7.72538e-12</wgt>
  <wgt id="221">7.71722e-12</wgt>
  <wgt id="222">7.72247e-12</wgt>
  <wgt id="223">7.3242e-12</wgt>
  <wgt id="224">8.07828e-12</wgt>
  <wgt id="225">7.63143e-12</wgt>
  <wgt id="226">7.82922e-12</wgt>
  <wgt id="227">7.64939e-12</wgt>
  <wgt id="228">7.74958e-12</wgt>
  <wgt id="229">7.61607e-12</wgt>
  <wgt id="230">7.77004e-12</wgt>
  <wgt id="231">7.93757e-12</wgt>
  <wgt id="232">7.53883e-12</wgt>
  <wgt id="233">7.67941e-12</wgt>
  <wgt id="234">7.78163e-12</wgt>
  <wgt id="235">7.55061e-12</wgt>
  <wgt id="236">7.87261e-12</wgt>
  <wgt id="237">7.60803e-12</wgt>
  <wgt id="238">7.75665e-12</wgt>
  <wgt id="239">7.67117e-12</wgt>
  <wgt id="240">7.80527e-12</wgt>
  <wgt id="241">7.64217e-12</wgt>
  <wgt id="242">7.81073e-12</wgt>
  <wgt id="243">7.80298e-12</wgt>
  <wgt id="244">7.75619e-12</wgt>
  <wgt id="245">7.71329e-12</wgt>
  <wgt id="246">7.77353e-12</wgt>
  <wgt id="247">7.71886e-12</wgt>
  <wgt id="248">7.78661e-12</wgt>
  <wgt id="249">7.76163e-12</wgt>
  <wgt id="250">7.73747e-12</wgt>
  <wgt id="251">7.70206e-12</wgt>
  <wgt id="252">7.68519e-12</wgt>
  <wgt id="253">7.67284e-12</wgt>
  <wgt id="254">7.52642e-12</wgt>
  <wgt id="255">7.53319e-12</wgt>
  <wgt id="256">7.51878e-12</wgt>
  <wgt id="257">7.53227e-12</wgt>
  <wgt id="258">7.52202e-12</wgt>
  <wgt id="259">7.57618e-12</wgt>
  <wgt id="260">7.47813e-12</wgt>
  <wgt id="261">7.53452e-12</wgt>
  <wgt id="262">7.51656e-12</wgt>
  <wgt id="263">7.52288e-12</wgt>
  <wgt id="264">7.53009e-12</wgt>
  <wgt id="265">7.51851e-12</wgt>
  <wgt id="266">7.54205e-12</wgt>
  <wgt id="267">7.5285e-12</wgt>
  <wgt id="268">7.52306e-12</wgt>
  <wgt id="269">7.54783e-12</wgt>
  <wgt id="270">7.51179e-12</wgt>
  <wgt id="271">7.51178e-12</wgt>
  <wgt id="272">7.54248e-12</wgt>
  <wgt id="273">7.50522e-12</wgt>
  <wgt id="274">7.54221e-12</wgt>
  <wgt id="275">7.49425e-12</wgt>
  <wgt id="276">7.55943e-12</wgt>
  <wgt id="277">7.48471e-12</wgt>
  <wgt id="278">7.56475e-12</wgt>
  <wgt id="279">7.39271e-12</wgt>
  <wgt id="280">7.69393e-12</wgt>
  <wgt id="281">7.49575e-12</wgt>
  <wgt id="282">7.52841e-12</wgt>
  <wgt id="283">7.31824e-12</wgt>
  <wgt id="284">7.78226e-12</wgt>
  <wgt id="285">7.17876e-12</wgt>
  <wgt id="286">7.81358e-12</wgt>
  <wgt id="287">7.54953e-12</wgt>
  <wgt id="288">7.49666e-12</wgt>
  <wgt id="289">7.57766e-12</wgt>
  <wgt id="290">7.40772e-12</wgt>
  <wgt id="291">7.50583e-12</wgt>
  <wgt id="292">7.53033e-12</wgt>
  <wgt id="293">7.47014e-12</wgt>
  <wgt id="294">7.582e-12</wgt>
  <wgt id="295">7.38801e-12</wgt>
  <wgt id="296">7.69503e-12</wgt>
  <wgt id="297">7.52554e-12</wgt>
  <wgt id="298">7.55212e-12</wgt>
  <wgt id="299">7.50354e-12</wgt>
  <wgt id="300">7.58635e-12</wgt>
  <wgt id="301">7.43276e-12</wgt>
  <wgt id="302">7.76921e-12</wgt>
  <wgt id="303">7.4727e-12</wgt>
  <wgt id="304">7.55703e-12</wgt>
  <wgt id="305">7.54038e-12</wgt>
  <wgt id="306">7.54753e-12</wgt>
  <wgt id="307">7.53217e-12</wgt>
  <wgt id="308">7.54687e-12</wgt>
  <wgt id="309">7.53564e-12</wgt>
  <wgt id="310">7.59183e-12</wgt>
  <wgt id="311">7.49214e-12</wgt>
  <wgt id="312">7.54623e-12</wgt>
  <wgt id="313">7.53389e-12</wgt>
  <wgt id="314">7.53672e-12</wgt>
  <wgt id="315">7.54322e-12</wgt>
  <wgt id="316">7.53267e-12</wgt>
  <wgt id="317">7.55661e-12</wgt>
  <wgt id="318">7.54493e-12</wgt>
  <wgt id="319">7.53145e-12</wgt>
  <wgt id="320">7.56271e-12</wgt>
  <wgt id="321">7.52749e-12</wgt>
  <wgt id="322">7.52196e-12</wgt>
  <wgt id="323">7.5612e-12</wgt>
  <wgt id="324">7.52303e-12</wgt>
  <wgt id="325">7.55487e-12</wgt>
  <wgt id="326">7.51406e-12</wgt>
  <wgt id="327">7.57342e-12</wgt>
  <wgt id="328">7.50148e-12</wgt>
  <wgt id="329">7.56231e-12</wgt>
  <wgt id="330">7.74846e-12</wgt>
  <wgt id="331">7.34132e-12</wgt>
  <wgt id="332">7.51474e-12</wgt>
  <wgt id="333">7.54076e-12</wgt>
  <wgt id="334">7.37757e-12</wgt>
  <wgt id="335">7.74215e-12</wgt>
  <wgt id="336">7.28845e-12</wgt>
  <wgt id="337">7.84619e-12</wgt>
  <wgt id="338">7.62157e-12</wgt>
  <wgt id="339">7.46464e-12</wgt>
  <wgt id="340">7.58824e-12</wgt>
  <wgt id="341">7.41658e-12</wgt>
  <wgt id="342">7.52589e-12</wgt>
  <wgt id="343">7.53251e-12</wgt>
  <wgt id="344">7.48938e-12</wgt>
  <wgt id="345">7.59886e-12</wgt>
  <wgt id="346">7.39657e-12</wgt>
  <wgt id="347">7.70493e-12</wgt>
  <wgt id="348">7.54289e-12</wgt>
  <wgt id="349">7.56101e-12</wgt>
  <wgt id="350">7.51143e-12</wgt>
  <wgt id="351">7.61289e-12</wgt>
  <wgt id="352">7.43937e-12</wgt>
  <wgt id="353">7.79104e-12</wgt>
  <wgt id="354">7.45982e-12</wgt>
  <wgt id="355">7.58956e-12</wgt>
  <wgt id="356">7.52642e-12</wgt>
  <wgt id="357">7.56831e-12</wgt>
  <wgt id="358">7.54038e-12</wgt>
  <wgt id="359">7.54975e-12</wgt>
  <wgt id="360">7.58252e-12</wgt>
  <wgt id="361">7.55064e-12</wgt>
  <wgt id="362">7.67648e-12</wgt>
  <wgt id="363">7.65935e-12</wgt>
  <wgt id="364">7.63319e-12</wgt>
  <wgt id="365">7.60862e-12</wgt>
  <wgt id="366">7.58139e-12</wgt>
  <wgt id="367">7.52573e-12</wgt>
  <wgt id="368">7.49419e-12</wgt>
  <wgt id="369">7.46019e-12</wgt>
  <wgt id="370">7.55064e-12</wgt>
  <wgt id="371">7.58325e-12</wgt>
  <wgt id="372">7.56532e-12</wgt>
  <wgt id="373">7.53871e-12</wgt>
  <wgt id="374">7.53808e-12</wgt>
  <wgt id="375">8.11659e-12</wgt>
  <wgt id="376">8.11721e-12</wgt>
  <wgt id="377">8.11554e-12</wgt>
  <wgt id="378">8.14594e-12</wgt>
  <wgt id="379">8.08773e-12</wgt>
  <wgt id="380">8.13918e-12</wgt>
  <wgt id="381">8.10786e-12</wgt>
  <wgt id="382">8.15459e-12</wgt>
  <wgt id="383">8.07908e-12</wgt>
  <wgt id="384">8.12169e-12</wgt>
  <wgt id="385">8.11144e-12</wgt>
  <wgt id="386">8.14501e-12</wgt>
  <wgt id="387">8.10462e-12</wgt>
  <wgt id="388">8.10943e-12</wgt>
  <wgt id="389">8.12533e-12</wgt>
  <wgt id="390">8.13663e-12</wgt>
  <wgt id="391">8.09558e-12</wgt>
  <wgt id="392">8.05879e-12</wgt>
  <wgt id="393">8.14971e-12</wgt>
  <wgt id="394">8.12641e-12</wgt>
  <wgt id="395">8.10341e-12</wgt>
  <wgt id="396">8.12182e-12</wgt>
  <wgt id="397">8.11302e-12</wgt>
  <wgt id="398">8.09188e-12</wgt>
  <wgt id="399">8.1408e-12</wgt>
  <wgt id="400">8.10552e-12</wgt>
  <wgt id="401">8.14206e-12</wgt>
  <wgt id="402">8.05448e-12</wgt>
  <wgt id="403">8.14551e-12</wgt>
  <wgt id="404">8.29951e-12</wgt>
  <wgt id="405">7.67525e-12</wgt>
  <wgt id="406">7.98397e-12</wgt>
  <wgt id="407">8.40519e-12</wgt>
  <wgt id="408">8.18467e-12</wgt>
  <wgt id="409">7.98683e-12</wgt>
  <wgt id="410">7.89916e-12</wgt>
  <wgt id="411">8.2177e-12</wgt>
  <wgt id="412">8.10233e-12</wgt>
  <wgt id="413">8.13741e-12</wgt>
  <wgt id="414">8.02973e-12</wgt>
  <wgt id="415">8.1841e-12</wgt>
  <wgt id="416">8.32401e-12</wgt>
  <wgt id="417">7.82971e-12</wgt>
  <wgt id="418">8.12787e-12</wgt>
  <wgt id="419">8.05455e-12</wgt>
  <wgt id="420">8.22843e-12</wgt>
  <wgt id="421">8.05214e-12</wgt>
  <wgt id="422">8.1047e-12</wgt>
  <wgt id="423">8.12383e-12</wgt>
  <wgt id="424">8.27256e-12</wgt>
  <wgt id="425">8.01734e-12</wgt>
  <wgt id="426">8.11659e-12</wgt>
  <wgt id="427">8.03826e-12</wgt>
  <wgt id="428">8.33076e-12</wgt>
  <wgt id="429">8.18786e-12</wgt>
  <wgt id="430">8.40945e-12</wgt>
  <wgt id="431">8.36559e-12</wgt>
  <wgt id="432">8.32383e-12</wgt>
  <wgt id="433">8.28354e-12</wgt>
  <wgt id="434">8.23406e-12</wgt>
  <wgt id="435">8.13074e-12</wgt>
  <wgt id="436">8.07782e-12</wgt>
  <wgt id="437">8.0274e-12</wgt>
  <wgt id="438">8.18786e-12</wgt>
  <wgt id="439">8.21416e-12</wgt>
  <wgt id="440">8.19858e-12</wgt>
  <wgt id="441">8.17984e-12</wgt>
  <wgt id="442">8.17348e-12</wgt>
  <wgt id="443">7.86445e-12</wgt>
  <wgt id="444">7.91335e-12</wgt>
  <wgt id="445">7.86925e-12</wgt>
  <wgt id="446">7.81194e-12</wgt>
  <wgt id="447">7.85229e-12</wgt>
  <wgt id="448">7.67415e-12</wgt>
  <wgt id="449">7.98585e-12</wgt>
  <wgt id="450">7.87519e-12</wgt>
  <wgt id="451">7.85022e-12</wgt>
  <wgt id="452">8.02582e-12</wgt>
  <wgt id="453">7.93016e-12</wgt>
  <wgt id="454">7.54414e-12</wgt>
  <wgt id="455">7.88919e-12</wgt>
  <wgt id="456">7.84509e-12</wgt>
  <wgt id="457">7.88923e-12</wgt>
  <wgt id="458">7.96626e-12</wgt>
  <wgt id="459">7.92234e-12</wgt>
  <wgt id="460">7.93898e-12</wgt>
  <wgt id="461">7.72175e-12</wgt>
  <wgt id="462">7.81442e-12</wgt>
  <wgt id="463">7.77278e-12</wgt>
  <wgt id="464">7.82879e-12</wgt>
  <wgt id="465">7.93926e-12</wgt>
  <wgt id="466">7.76379e-12</wgt>
  <wgt id="467">7.79895e-12</wgt>
  <wgt id="468">7.84771e-12</wgt>
  <wgt id="469">7.85054e-12</wgt>
  <wgt id="470">7.78556e-12</wgt>
  <wgt id="471">7.79719e-12</wgt>
  <wgt id="472">7.89838e-12</wgt>
  <wgt id="473">7.64859e-12</wgt>
  <wgt id="474">5.79e-12</wgt>
  <wgt id="475">5.97803e-12</wgt>
  <wgt id="476">5.69547e-12</wgt>
  <wgt id="477">5.63684e-12</wgt>
  <wgt id="478">5.83995e-12</wgt>
  <wgt id="479">5.68057e-12</wgt>
  <wgt id="480">6.01673e-12</wgt>
  <wgt id="481">5.74199e-12</wgt>
  <wgt id="482">5.67838e-12</wgt>
  <wgt id="483">5.6569e-12</wgt>
  <wgt id="484">6.00523e-12</wgt>
  <wgt id="485">5.6704e-12</wgt>
  <wgt id="486">6.0169e-12</wgt>
  <wgt id="487">5.80137e-12</wgt>
  <wgt id="488">5.8986e-12</wgt>
  <wgt id="489">5.50149e-12</wgt>
  <wgt id="490">5.5882e-12</wgt>
  <wgt id="491">5.76599e-12</wgt>
  <wgt id="492">5.68068e-12</wgt>
  <wgt id="493">5.55599e-12</wgt>
  <wgt id="494">5.60055e-12</wgt>
  <wgt id="495">5.81213e-12</wgt>
  <wgt id="496">5.60302e-12</wgt>
  <wgt id="497">5.55731e-12</wgt>
  <wgt id="498">5.93097e-12</wgt>
  <wgt id="499">5.71736e-12</wgt>
  <wgt id="500">5.66819e-12</wgt>
  <wgt id="501">6.00532e-12</wgt>
  <wgt id="502">5.74585e-12</wgt>
  <wgt id="503">5.79577e-12</wgt>
  <wgt id="504">5.88631e-12</wgt>
  <wgt id="505">5.70872e-12</wgt>
  <wgt id="506">5.7563e-12</wgt>
  <wgt id="507">5.78691e-12</wgt>
  <wgt id="508">5.9761e-12</wgt>
  <wgt id="509">5.43935e-12</wgt>
  <wgt id="510">5.89912e-12</wgt>
  <wgt id="511">5.60986e-12</wgt>
  <wgt id="512">5.94807e-12</wgt>
  <wgt id="513">5.96265e-12</wgt>
  <wgt id="514">5.85055e-12</wgt>
  <wgt id="515">5.77182e-12</wgt>
  <wgt id="516">6.08153e-12</wgt>
  <wgt id="517">5.92668e-12</wgt>
  <wgt id="518">5.95373e-12</wgt>
  <wgt id="519">5.63967e-12</wgt>
  <wgt id="520">5.89548e-12</wgt>
  <wgt id="521">5.9285e-12</wgt>
  <wgt id="522">6.03659e-12</wgt>
  <wgt id="523">5.74633e-12</wgt>
  <wgt id="524">5.76484e-12</wgt>
  <wgt id="525">5.92762e-12</wgt>
  <wgt id="526">5.85976e-12</wgt>
  <wgt id="527">5.83632e-12</wgt>
  <wgt id="528">5.81514e-12</wgt>
  <wgt id="529">5.72223e-12</wgt>
  <wgt id="530">5.92325e-12</wgt>
  <wgt id="531">5.68876e-12</wgt>
  <wgt id="532">6.14093e-12</wgt>
  <wgt id="533">5.54954e-12</wgt>
  <wgt id="534">5.76121e-12</wgt>
  <wgt id="535">5.80814e-12</wgt>
  <wgt id="536">5.76017e-12</wgt>
  <wgt id="537">5.76674e-12</wgt>
  <wgt id="538">5.85518e-12</wgt>
  <wgt id="539">5.68932e-12</wgt>
  <wgt id="540">5.78488e-12</wgt>
  <wgt id="541">5.6289e-12</wgt>
  <wgt id="542">5.72209e-12</wgt>
  <wgt id="543">5.77141e-12</wgt>
  <wgt id="544">6.02678e-12</wgt>
  <wgt id="545">5.66721e-12</wgt>
  <wgt id="546">5.60422e-12</wgt>
  <wgt id="547">5.65925e-12</wgt>
  <wgt id="548">5.56025e-12</wgt>
  <wgt id="549">5.70629e-12</wgt>
  <wgt id="550">5.67611e-12</wgt>
  <wgt id="551">5.87458e-12</wgt>
  <wgt id="552">5.59579e-12</wgt>
  <wgt id="553">5.7202e-12</wgt>
  <wgt id="554">6.18339e-12</wgt>
  <wgt id="555">5.95244e-12</wgt>
  <wgt id="556">5.5882e-12</wgt>
  <wgt id="557">5.93353e-12</wgt>
  <wgt id="558">5.66166e-12</wgt>
  <wgt id="559">5.65828e-12</wgt>
  <wgt id="560">6.32884e-12</wgt>
  <wgt id="561">5.73082e-12</wgt>
  <wgt id="562">5.95435e-12</wgt>
  <wgt id="563">5.82374e-12</wgt>
  <wgt id="564">5.93928e-12</wgt>
  <wgt id="565">5.67829e-12</wgt>
  <wgt id="566">5.85503e-12</wgt>
  <wgt id="567">5.74513e-12</wgt>
  <wgt id="568">5.76694e-12</wgt>
  <wgt id="569">5.88721e-12</wgt>
  <wgt id="570">5.56995e-12</wgt>
  <wgt id="571">6.38581e-12</wgt>
  <wgt id="572">5.70024e-12</wgt>
  <wgt id="573">5.59602e-12</wgt>
  <wgt id="574">5.62585e-12</wgt>
  <wgt id="575">6.35304e-12</wgt>
  <wgt id="576">6.44772e-12</wgt>
  <wgt id="577">6.56217e-12</wgt>
  <wgt id="578">6.54262e-12</wgt>
  <wgt id="579">6.51435e-12</wgt>
  <wgt id="580">6.57233e-12</wgt>
  <wgt id="581">6.83867e-12</wgt>
  <wgt id="582">6.44147e-12</wgt>
  <wgt id="583">6.40424e-12</wgt>
  <wgt id="584">6.32623e-12</wgt>
  <wgt id="585">6.22396e-12</wgt>
  <wgt id="586">6.14853e-12</wgt>
  <wgt id="587">6.451e-12</wgt>
  <wgt id="588">6.40484e-12</wgt>
  <wgt id="589">6.56182e-12</wgt>
  <wgt id="590">6.36283e-12</wgt>
  <wgt id="591">6.5872e-12</wgt>
  <wgt id="592">6.0321e-12</wgt>
  <wgt id="593">6.28811e-12</wgt>
  <wgt id="594">6.51024e-12</wgt>
  <wgt id="595">6.39903e-12</wgt>
  <wgt id="596">6.60723e-12</wgt>
  <wgt id="597">6.24971e-12</wgt>
  <wgt id="598">6.13692e-12</wgt>
  <wgt id="599">6.60893e-12</wgt>
  <wgt id="600">6.38725e-12</wgt>
  <wgt id="601">6.16729e-12</wgt>
  <wgt id="602">6.16835e-12</wgt>
  <wgt id="603">6.18421e-12</wgt>
  <wgt id="604">6.45441e-12</wgt>
  <wgt id="605">6.57533e-12</wgt>
  <wgt id="606">6.34222e-12</wgt>
  <wgt id="607">6.3663e-12</wgt>
  <wgt id="608">6.45825e-12</wgt>
  <wgt id="609">6.10561e-12</wgt>
  <wgt id="610">6.13086e-12</wgt>
  <wgt id="611">6.32679e-12</wgt>
  <wgt id="612">6.77058e-12</wgt>
  <wgt id="613">6.29766e-12</wgt>
  <wgt id="614">6.36612e-12</wgt>
  <wgt id="615">6.2942e-12</wgt>
  <wgt id="616">6.59403e-12</wgt>
  <wgt id="617">6.50412e-12</wgt>
  <wgt id="618">6.74409e-12</wgt>
  <wgt id="619">6.29017e-12</wgt>
  <wgt id="620">6.56259e-12</wgt>
  <wgt id="621">6.35784e-12</wgt>
  <wgt id="622">6.451e-12</wgt>
  <wgt id="623">6.50242e-12</wgt>
  <wgt id="624">6.35279e-12</wgt>
  <wgt id="625">6.22705e-12</wgt>
  <wgt id="626">6.09121e-12</wgt>
  <wgt id="627">6.05724e-12</wgt>
  <wgt id="628">6.45294e-12</wgt>
  <wgt id="629">6.28786e-12</wgt>
  <wgt id="630">6.13536e-12</wgt>
  <wgt id="631">6.39638e-12</wgt>
  <wgt id="632">6.05487e-12</wgt>
  <wgt id="633">6.31875e-12</wgt>
  <wgt id="634">6.26303e-12</wgt>
  <wgt id="635">6.10032e-12</wgt>
  <wgt id="636">6.43604e-12</wgt>
  <wgt id="637">6.36084e-12</wgt>
  <wgt id="638">6.15067e-12</wgt>
  <wgt id="639">6.25557e-12</wgt>
  <wgt id="640">6.34826e-12</wgt>
  <wgt id="641">6.47953e-12</wgt>
  <wgt id="642">6.06133e-12</wgt>
  <wgt id="643">6.30668e-12</wgt>
  <wgt id="644">5.92125e-12</wgt>
  <wgt id="645">6.38076e-12</wgt>
  <wgt id="646">6.27932e-12</wgt>
  <wgt id="647">6.29499e-12</wgt>
  <wgt id="648">6.46252e-12</wgt>
  <wgt id="649">6.40582e-12</wgt>
  <wgt id="650">6.18174e-12</wgt>
  <wgt id="651">6.54554e-12</wgt>
  <wgt id="652">6.26875e-12</wgt>
  <wgt id="653">6.16228e-12</wgt>
  <wgt id="654">6.25007e-12</wgt>
  <wgt id="655">6.25993e-12</wgt>
  <wgt id="656">6.34402e-12</wgt>
  <wgt id="657">6.73243e-12</wgt>
  <wgt id="658">6.35938e-12</wgt>
  <wgt id="659">6.09572e-12</wgt>
  <wgt id="660">6.41002e-12</wgt>
  <wgt id="661">6.26875e-12</wgt>
  <wgt id="662">6.31935e-12</wgt>
  <wgt id="663">6.38728e-12</wgt>
  <wgt id="664">6.31264e-12</wgt>
  <wgt id="665">6.35221e-12</wgt>
  <wgt id="666">6.29325e-12</wgt>
  <wgt id="667">6.59654e-12</wgt>
  <wgt id="668">6.34197e-12</wgt>
  <wgt id="669">6.48388e-12</wgt>
  <wgt id="670">6.52516e-12</wgt>
  <wgt id="671">6.32681e-12</wgt>
  <wgt id="672">6.10503e-12</wgt>
  <wgt id="673">6.45376e-12</wgt>
  <wgt id="674">6.20533e-12</wgt>
  <wgt id="675">6.26906e-12</wgt>
  <wgt id="676">8.00286e-12</wgt>
  <wgt id="677">8.10959e-12</wgt>
  <wgt id="678">8.44025e-12</wgt>
  <wgt id="679">7.67106e-12</wgt>
  <wgt id="680">7.88074e-12</wgt>
  <wgt id="681">8.09536e-12</wgt>
  <wgt id="682">8.24133e-12</wgt>
  <wgt id="683">7.82057e-12</wgt>
  <wgt id="684">8.3208e-12</wgt>
  <wgt id="685">7.76058e-12</wgt>
  <wgt id="686">7.81262e-12</wgt>
  <wgt id="687">8.28401e-12</wgt>
  <wgt id="688">7.88826e-12</wgt>
  <wgt id="689">8.39352e-12</wgt>
  <wgt id="690">8.31167e-12</wgt>
  <wgt id="691">8.36756e-12</wgt>
  <wgt id="692">7.93092e-12</wgt>
  <wgt id="693">9.48732e-12</wgt>
  <wgt id="694">8.52775e-12</wgt>
  <wgt id="695">7.74478e-12</wgt>
  <wgt id="696">7.75039e-12</wgt>
  <wgt id="697">7.67036e-12</wgt>
  <wgt id="698">7.24361e-12</wgt>
  <wgt id="699">7.18985e-12</wgt>
  <wgt id="700">7.10294e-12</wgt>
  <wgt id="701">7.99814e-12</wgt>
  <wgt id="702">7.86184e-12</wgt>
  <wgt id="703">9.19043e-12</wgt>
  <wgt id="704">8.77191e-12</wgt>
  <wgt id="705">8.56131e-12</wgt>
  <wgt id="706">7.60731e-12</wgt>
  <wgt id="707">7.66786e-12</wgt>
  <wgt id="708">7.84643e-12</wgt>
  <wgt id="709">7.82976e-12</wgt>
  <wgt id="710">7.32991e-12</wgt>
  <wgt id="711">7.99281e-12</wgt>
  <wgt id="712">7.76407e-12</wgt>
  <wgt id="713">8.58156e-12</wgt>
  <wgt id="714">7.73038e-12</wgt>
  <wgt id="715">7.87847e-12</wgt>
  <wgt id="716">7.724e-12</wgt>
  <wgt id="717">7.51218e-12</wgt>
  <wgt id="718">8.06817e-12</wgt>
  <wgt id="719">7.30786e-12</wgt>
  <wgt id="720">7.73121e-12</wgt>
  <wgt id="721">7.26885e-12</wgt>
  <wgt id="722">7.03787e-12</wgt>
  <wgt id="723">8.55712e-12</wgt>
  <wgt id="724">8.40643e-12</wgt>
  <wgt id="725">8.37511e-12</wgt>
  <wgt id="726">8.0236e-12</wgt>
  <wgt id="727">7.87219e-12</wgt>
  <wgt id="728">7.80159e-12</wgt>
  <wgt id="729">7.69741e-12</wgt>
  <wgt id="730">8.53047e-12</wgt>
  <wgt id="731">7.86574e-12</wgt>
  <wgt id="732">8.84048e-12</wgt>
  <wgt id="733">7.81729e-12</wgt>
  <wgt id="734">8.17369e-12</wgt>
  <wgt id="735">8.09244e-12</wgt>
  <wgt id="736">7.76429e-12</wgt>
  <wgt id="737">8.04124e-12</wgt>
  <wgt id="738">7.69392e-12</wgt>
  <wgt id="739">8.23961e-12</wgt>
  <wgt id="740">8.91431e-12</wgt>
  <wgt id="741">7.35728e-12</wgt>
  <wgt id="742">7.9122e-12</wgt>
  <wgt id="743">7.60992e-12</wgt>
  <wgt id="744">7.83512e-12</wgt>
  <wgt id="745">8.35293e-12</wgt>
  <wgt id="746">8.50906e-12</wgt>
  <wgt id="747">7.15581e-12</wgt>
  <wgt id="748">7.8986e-12</wgt>
  <wgt id="749">8.33307e-12</wgt>
  <wgt id="750">8.38469e-12</wgt>
  <wgt id="751">8.152e-12</wgt>
  <wgt id="752">7.36382e-12</wgt>
  <wgt id="753">7.51534e-12</wgt>
  <wgt id="754">8.28938e-12</wgt>
  <wgt id="755">7.98115e-12</wgt>
  <wgt id="756">7.95159e-12</wgt>
  <wgt id="757">7.33062e-12</wgt>
  <wgt id="758">7.96355e-12</wgt>
  <wgt id="759">8.47541e-12</wgt>
  <wgt id="760">7.99346e-12</wgt>
  <wgt id="761">8.47281e-12</wgt>
  <wgt id="762">8.49289e-12</wgt>
  <wgt id="763">7.99283e-12</wgt>
  <wgt id="764">8.31679e-12</wgt>
  <wgt id="765">8.10192e-12</wgt>
  <wgt id="766">7.99818e-12</wgt>
  <wgt id="767">8.14921e-12</wgt>
  <wgt id="768">7.51823e-12</wgt>
  <wgt id="769">8.45385e-12</wgt>
  <wgt id="770">7.87181e-12</wgt>
  <wgt id="771">9.38005e-12</wgt>
  <wgt id="772">7.64377e-12</wgt>
  <wgt id="773">7.94691e-12</wgt>
  <wgt id="774">6.95246e-12</wgt>
  <wgt id="775">8.35458e-12</wgt>
  <wgt id="776">8.64337e-12</wgt>
  <wgt id="777">7.55547e-12</wgt>
  <wgt id="778">5.84297e-12</wgt>
  <wgt id="779">4.63285e-12</wgt>
  <wgt id="780">3.65544e-12</wgt>
  <wgt id="781">6.4818e-12</wgt>
  <wgt id="782">6.33845e-12</wgt>
  <wgt id="783">4.64205e-12</wgt>
  <wgt id="784">4.96467e-12</wgt>
  <wgt id="785">7.37928e-12</wgt>
  <wgt id="786">4.41729e-12</wgt>
  <wgt id="787">6.73877e-12</wgt>
  <wgt id="788">3.31647e-12</wgt>
  <wgt id="789">4.86778e-12</wgt>
  <wgt id="790">4.32665e-12</wgt>
  <wgt id="791">5.81437e-12</wgt>
  <wgt id="792">7.77136e-12</wgt>
  <wgt id="793">5.77045e-12</wgt>
  <wgt id="794">4.25301e-12</wgt>
  <wgt id="795">6.96035e-12</wgt>
  <wgt id="796">7.65545e-12</wgt>
  <wgt id="797">6.96802e-12</wgt>
  <wgt id="798">5.17469e-12</wgt>
  <wgt id="799">6.67175e-12</wgt>
  <wgt id="800">4.87938e-12</wgt>
  <wgt id="801">5.41273e-12</wgt>
  <wgt id="802">4.24949e-12</wgt>
  <wgt id="803">8.19231e-12</wgt>
  <wgt id="804">6.94526e-12</wgt>
  <wgt id="805">6.94347e-12</wgt>
  <wgt id="806">6.41483e-12</wgt>
  <wgt id="807">5.59471e-12</wgt>
  <wgt id="808">5.61132e-12</wgt>
  <wgt id="809">5.43993e-12</wgt>
  <wgt id="810">6.47358e-12</wgt>
  <wgt id="811">6.2637e-12</wgt>
  <wgt id="812">4.3193e-12</wgt>
  <wgt id="813">4.44148e-12</wgt>
  <wgt id="814">4.75088e-12</wgt>
  <wgt id="815">4.61915e-12</wgt>
  <wgt id="816">4.2968e-12</wgt>
  <wgt id="817">6.01244e-12</wgt>
  <wgt id="818">6.16007e-12</wgt>
  <wgt id="819">4.64866e-12</wgt>
  <wgt id="820">5.77108e-12</wgt>
  <wgt id="821">6.66942e-12</wgt>
  <wgt id="822">4.80041e-12</wgt>
  <wgt id="823">6.80522e-12</wgt>
  <wgt id="824">7.95081e-12</wgt>
  <wgt id="825">4.12283e-12</wgt>
  <wgt id="826">6.34521e-12</wgt>
  <wgt id="827">3.47602e-12</wgt>
  <wgt id="828">7.44497e-12</wgt>
  <wgt id="829">6.01214e-12</wgt>
  <wgt id="830">3.92025e-12</wgt>
  <wgt id="831">6.35725e-12</wgt>
  <wgt id="832">9.56875e-12</wgt>
  <wgt id="833">5.28365e-12</wgt>
  <wgt id="834">9.12545e-12</wgt>
  <wgt id="835">4.74258e-12</wgt>
  <wgt id="836">5.53553e-12</wgt>
  <wgt id="837">6.58545e-12</wgt>
  <wgt id="838">5.34097e-12</wgt>
  <wgt id="839">6.3176e-12</wgt>
  <wgt id="840">5.36619e-12</wgt>
  <wgt id="841">7.31119e-12</wgt>
  <wgt id="842">5.41961e-12</wgt>
  <wgt id="843">5.90764e-12</wgt>
  <wgt id="844">6.12655e-12</wgt>
  <wgt id="845">8.68319e-12</wgt>
  <wgt id="846">5.96441e-12</wgt>
  <wgt id="847">5.98203e-12</wgt>
  <wgt id="848">4.79434e-12</wgt>
  <wgt id="849">6.03015e-12</wgt>
  <wgt id="850">7.72902e-12</wgt>
  <wgt id="851">6.46563e-12</wgt>
  <wgt id="852">4.57596e-12</wgt>
  <wgt id="853">6.53858e-12</wgt>
  <wgt id="854">7.23702e-12</wgt>
  <wgt id="855">6.71524e-12</wgt>
  <wgt id="856">3.97499e-12</wgt>
  <wgt id="857">5.6808e-12</wgt>
  <wgt id="858">5.54681e-12</wgt>
  <wgt id="859">5.52683e-12</wgt>
  <wgt id="860">6.52167e-12</wgt>
  <wgt id="861">5.12831e-12</wgt>
  <wgt id="862">5.89339e-12</wgt>
  <wgt id="863">6.26626e-12</wgt>
  <wgt id="864">6.14397e-12</wgt>
  <wgt id="865">8.35062e-12</wgt>
  <wgt id="866">9.23195e-12</wgt>
  <wgt id="867">5.91533e-12</wgt>
  <wgt id="868">5.75111e-12</wgt>
  <wgt id="869">4.36645e-12</wgt>
  <wgt id="870">4.64881e-12</wgt>
  <wgt id="871">4.51925e-12</wgt>
  <wgt id="872">7.14712e-12</wgt>
  <wgt id="873">4.91625e-12</wgt>
  <wgt id="874">6.1888e-12</wgt>
  <wgt id="875">5.00945e-12</wgt>
  <wgt id="876">7.05581e-12</wgt>
  <wgt id="877">6.58269e-12</wgt>
  <wgt id="878">4.90518e-12</wgt>
  <wgt id="879">8.00286e-12</wgt>
  <wgt id="880">8.10959e-12</wgt>
  <wgt id="881">8.44025e-12</wgt>
  <wgt id="882">7.67106e-12</wgt>
  <wgt id="883">7.88074e-12</wgt>
  <wgt id="884">8.09536e-12</wgt>
  <wgt id="885">8.24133e-12</wgt>
  <wgt id="886">7.82057e-12</wgt>
  <wgt id="887">8.3208e-12</wgt>
  <wgt id="888">7.76058e-12</wgt>
  <wgt id="889">7.81262e-12</wgt>
  <wgt id="890">8.28401e-12</wgt>
  <wgt id="891">7.88826e-12</wgt>
  <wgt id="892">8.39352e-12</wgt>
  <wgt id="893">8.31167e-12</wgt>
  <wgt id="894">8.36756e-12</wgt>
  <wgt id="895">7.93092e-12</wgt>
  <wgt id="896">9.48732e-12</wgt>
  <wgt id="897">8.52775e-12</wgt>
  <wgt id="898">7.74478e-12</wgt>
  <wgt id="899">7.75039e-12</wgt>
  <wgt id="900">7.67036e-12</wgt>
  <wgt id="901">7.24361e-12</wgt>
  <wgt id="902">7.18985e-12</wgt>
  <wgt id="903">7.10294e-12</wgt>
  <wgt id="904">7.99814e-12</wgt>
  <wgt id="905">7.86184e-12</wgt>
  <wgt id="906">9.19043e-12</wgt>
  <wgt id="907">8.77191e-12</wgt>
  <wgt id="908">8.56131e-12</wgt>
  <wgt id="909">7.60731e-12</wgt>
  <wgt id="910">7.66786e-12</wgt>
  <wgt id="911">7.84643e-12</wgt>
  <wgt id="912">7.82976e-12</wgt>
  <wgt id="913">7.32991e-12</wgt>
  <wgt id="914">7.99281e-12</wgt>
  <wgt id="915">7.76407e-12</wgt>
  <wgt id="916">8.58156e-12</wgt>
  <wgt id="917">7.73038e-12</wgt>
  <wgt id="918">7.87847e-12</wgt>
  <wgt id="919">7.724e-12</wgt>
  <wgt id="920">7.51218e-12</wgt>
  <wgt id="921">8.06817e-12</wgt>
  <wgt id="922">7.30786e-12</wgt>
  <wgt id="923">7.73121e-12</wgt>
  <wgt id="924">7.26885e-12</wgt>
  <wgt id="925">7.03787e-12</wgt>
  <wgt id="926">8.55712e-12</wgt>
  <wgt id="927">8.40643e-12</wgt>
  <wgt id="928">8.37511e-12</wgt>
  <wgt id="929">8.0236e-12</wgt>
  <wgt id="930">7.87219e-12</wgt>
  <wgt id="931">7.80159e-12</wgt>
  <wgt id="932">7.69741e-12</wgt>
  <wgt id="933">8.53047e-12</wgt>
  <wgt id="934">7.86574e-12</wgt>
  <wgt id="935">8.84048e-12</wgt>
  <wgt id="936">7.81729e-12</wgt>
  <wgt id="937">8.17369e-12</wgt>
  <wgt id="938">8.09244e-12</wgt>
  <wgt id="939">7.76429e-12</wgt>
  <wgt id="940">8.04124e-12</wgt>
  <wgt id="941">7.69392e-12</wgt>
  <wgt id="942">8.23961e-12</wgt>
  <wgt id="943">8.91431e-12</wgt>
  <wgt id="944">7.35728e-12</wgt>
  <wgt id="945">7.9122e-12</wgt>
  <wgt id="946">7.60992e-12</wgt>
  <wgt id="947">7.83512e-12</wgt>
  <wgt id="948">8.35293e-12</wgt>
  <wgt id="949">8.50906e-12</wgt>
  <wgt id="950">7.15581e-12</wgt>
  <wgt id="951">7.8986e-12</wgt>
  <wgt id="952">8.33307e-12</wgt>
  <wgt id="953">8.38469e-12</wgt>
  <wgt id="954">8.152e-12</wgt>
  <wgt id="955">7.36382e-12</wgt>
  <wgt id="956">7.51534e-12</wgt>
  <wgt id="957">8.28938e-12</wgt>
  <wgt id="958">7.98115e-12</wgt>
  <wgt id="959">7.95159e-12</wgt>
  <wgt id="960">7.33062e-12</wgt>
  <wgt id="961">7.96355e-12</wgt>
  <wgt id="962">8.47541e-12</wgt>
  <wgt id="963">7.99346e-12</wgt>
  <wgt id="964">8.47281e-12</wgt>
  <wgt id="965">8.49289e-12</wgt>
  <wgt id="966">7.99283e-12</wgt>
  <wgt id="967">8.31679e-12</wgt>
  <wgt id="968">8.10192e-12</wgt>
  <wgt id="969">7.99818e-12</wgt>
  <wgt id="970">8.14921e-12</wgt>
  <wgt id="971">7.51823e-12</wgt>
  <wgt id="972">8.45385e-12</wgt>
  <wgt id="973">7.87181e-12</wgt>
  <wgt id="974">9.38005e-12</wgt>
  <wgt id="975">7.64377e-12</wgt>
  <wgt id="976">7.94691e-12</wgt>
  <wgt id="977">6.95246e-12</wgt>
  <wgt id="978">8.35458e-12</wgt>
  <wgt id="979">8.64337e-12</wgt>
  <wgt id="980">7.98648e-12</wgt>
  <wgt id="981">8.05119e-12</wgt>
  <wgt id="982">7.75762e-12</wgt>
</rwgt>
</event>
<event>
 5   1  0.5790000E-11  0.2207487E+04  0.7818608E-02  0.7746054E-01
       21   -1    0    0  502  501  0.00000000000E+00  0.00000000000E+00  0.99635224310E+03  0.99635224310E+03  0.00000000000E+00 0.  1.
       21   -1    0    0  501  502 -0.00000000000E+00 -0.00000000000E+00 -0.12227101013E+04  0.12227101013E+04  0.00000000000E+00 0. -1.
       39    2    1    2    0    0  0.00000000000E+00  0.00000000000E+00 -0.22635785816E+03  0.22190623444E+04  0.22074872159E+04 0.  0.
       25    1    3    3    0    0 -0.10704419364E+03  0.10782452442E+04 -0.28304333982E+03  0.11268583754E+04  0.12500000000E+03 0.  0.
       25    1    3    3    0    0  0.10704419364E+03 -0.10782452442E+04  0.56685481653E+02  0.10922039690E+04  0.12500000000E+03 0.  0.
<mgrwt>
<rscale>  0 0.22074872E+04</rscale>
<asrwt>0</asrwt>
<pdfrwt beam="1">  1       21 0.15328496E+00 0.22074872E+04</pdfrwt>
<pdfrwt beam="2">  1       21 0.18810925E+00 0.22074872E+04</pdfrwt>
<totfact> 0.18332062E+01</totfact>
</mgrwt>
<rwgt>
  <wgt id="1">5.79e-12</wgt>
  <wgt id="2">5.05458e-12</wgt>
  <wgt id="3">6.70018e-12</wgt>
  <wgt id="4">5.79e-12</wgt>
  <wgt id="5">5.05458e-12</wgt>
  <wgt id="6">6.70018e-12</wgt>
  <wgt id="7">5.79e-12</wgt>
  <wgt id="8">5.05458e-12</wgt>
  <wgt id="9">6.70018e-12</wgt>
  <wgt id="10">5.95766e-12</wgt>
  <wgt id="11">5.95157e-12</wgt>
  <wgt id="12">5.94601e-12</wgt>
  <wgt id="13">5.93708e-12</wgt>
  <wgt id="14">5.97889e-12</wgt>
  <wgt id="15">5.96607e-12</wgt>
  <wgt id="16">5.94436e-12</wgt>
  <wgt id="17">5.96691e-12</wgt>
  <wgt id="18">5.94934e-12</wgt>
  <wgt id="19">5.97005e-12</wgt>
  <wgt id="20">5.93957e-12</wgt>
  <wgt id="21">5.92667e-12</wgt>
  <wgt id="22">5.94045e-12</wgt>
  <wgt id="23">5.90813e-12</wgt>
  <wgt id="24">5.93236e-12</wgt>
  <wgt id="25">5.94339e-12</wgt>
  <wgt id="26">5.9828e-12</wgt>
  <wgt id="27">5.95741e-12</wgt>
  <wgt id="28">5.92998e-12</wgt>
  <wgt id="29">5.96402e-12</wgt>
  <wgt id="30">5.94408e-12</wgt>
  <wgt id="31">5.97254e-12</wgt>
  <wgt id="32">5.9464e-12</wgt>
  <wgt id="33">5.97082e-12</wgt>
  <wgt id="34">5.94103e-12</wgt>
  <wgt id="35">5.95176e-12</wgt>
  <wgt id="36">5.97187e-12</wgt>
  <wgt id="37">5.94256e-12</wgt>
  <wgt id="38">5.94305e-12</wgt>
  <wgt id="39">6.01666e-12</wgt>
  <wgt id="40">5.97292e-12</wgt>
  <wgt id="41">5.95641e-12</wgt>
  <wgt id="42">5.97663e-12</wgt>
  <wgt id="43">5.96304e-12</wgt>
  <wgt id="44">5.93246e-12</wgt>
  <wgt id="45">5.96726e-12</wgt>
  <wgt id="46">5.96558e-12</wgt>
  <wgt id="47">5.93022e-12</wgt>
  <wgt id="48">5.95824e-12</wgt>
  <wgt id="49">5.98165e-12</wgt>
  <wgt id="50">5.99769e-12</wgt>
  <wgt id="51">5.98423e-12</wgt>
  <wgt id="52">5.93641e-12</wgt>
  <wgt id="53">5.92022e-12</wgt>
  <wgt id="54">5.94501e-12</wgt>
  <wgt id="55">5.95616e-12</wgt>
  <wgt id="56">5.97538e-12</wgt>
  <wgt id="57">5.97845e-12</wgt>
  <wgt id="58">5.91605e-12</wgt>
  <wgt id="59">5.93748e-12</wgt>
  <wgt id="60">5.9588e-12</wgt>
  <wgt id="61">5.95264e-12</wgt>
  <wgt id="62">5.95882e-12</wgt>
  <wgt id="63">5.96645e-12</wgt>
  <wgt id="64">5.96474e-12</wgt>
  <wgt id="65">5.96265e-12</wgt>
  <wgt id="66">5.95054e-12</wgt>
  <wgt id="67">5.95217e-12</wgt>
  <wgt id="68">5.95141e-12</wgt>
  <wgt id="69">5.9555e-12</wgt>
  <wgt id="70">5.95315e-12</wgt>
  <wgt id="71">5.95442e-12</wgt>
  <wgt id="72">5.95181e-12</wgt>
  <wgt id="73">5.96208e-12</wgt>
  <wgt id="74">5.96063e-12</wgt>
  <wgt id="75">5.95744e-12</wgt>
  <wgt id="76">5.97226e-12</wgt>
  <wgt id="77">5.95679e-12</wgt>
  <wgt id="78">5.95948e-12</wgt>
  <wgt id="79">5.96691e-12</wgt>
  <wgt id="80">5.93478e-12</wgt>
  <wgt id="81">5.9504e-12</wgt>
  <wgt id="82">5.9578e-12</wgt>
  <wgt id="83">5.93775e-12</wgt>
  <wgt id="84">5.94596e-12</wgt>
  <wgt id="85">5.94912e-12</wgt>
  <wgt id="86">5.96844e-12</wgt>
  <wgt id="87">5.93256e-12</wgt>
  <wgt id="88">5.96363e-12</wgt>
  <wgt id="89">5.96262e-12</wgt>
  <wgt id="90">5.96409e-12</wgt>
  <wgt id="91">5.96127e-12</wgt>
  <wgt id="92">5.96732e-12</wgt>
  <wgt id="93">5.95679e-12</wgt>
  <wgt id="94">5.9533e-12</wgt>
  <wgt id="95">5.96059e-12</wgt>
  <wgt id="96">5.96111e-12</wgt>
  <wgt id="97">5.9511e-12</wgt>
  <wgt id="98">5.96047e-12</wgt>
  <wgt id="99">5.95561e-12</wgt>
  <wgt id="100">5.96305e-12</wgt>
  <wgt id="101">5.95597e-12</wgt>
  <wgt id="102">5.95246e-12</wgt>
  <wgt id="103">5.96468e-12</wgt>
  <wgt id="104">5.95348e-12</wgt>
  <wgt id="105">5.96224e-12</wgt>
  <wgt id="106">5.95125e-12</wgt>
  <wgt id="107">5.97135e-12</wgt>
  <wgt id="108">5.95248e-12</wgt>
  <wgt id="109">5.96009e-12</wgt>
  <wgt id="110">5.9565e-12</wgt>
  <wgt id="111">6.02781e-12</wgt>
  <wgt id="112">5.94377e-12</wgt>
  <wgt id="113">7.86227e-12</wgt>
  <wgt id="114">8.18571e-12</wgt>
  <wgt id="115">8.07547e-12</wgt>
  <wgt id="116">1.1095e-11</wgt>
  <wgt id="117">6.56999e-12</wgt>
  <wgt id="118">6.59152e-12</wgt>
  <wgt id="119">6.55801e-12</wgt>
  <wgt id="120">6.57081e-12</wgt>
  <wgt id="121">6.56964e-12</wgt>
  <wgt id="122">6.55826e-12</wgt>
  <wgt id="123">6.58632e-12</wgt>
  <wgt id="124">6.56049e-12</wgt>
  <wgt id="125">6.57635e-12</wgt>
  <wgt id="126">6.58135e-12</wgt>
  <wgt id="127">6.56265e-12</wgt>
  <wgt id="128">6.59069e-12</wgt>
  <wgt id="129">6.54962e-12</wgt>
  <wgt id="130">6.60813e-12</wgt>
  <wgt id="131">6.53111e-12</wgt>
  <wgt id="132">6.4043e-12</wgt>
  <wgt id="133">6.76552e-12</wgt>
  <wgt id="134">6.50211e-12</wgt>
  <wgt id="135">6.62304e-12</wgt>
  <wgt id="136">6.64951e-12</wgt>
  <wgt id="137">6.47391e-12</wgt>
  <wgt id="138">6.81103e-12</wgt>
  <wgt id="139">6.33616e-12</wgt>
  <wgt id="140">6.525e-12</wgt>
  <wgt id="141">6.60537e-12</wgt>
  <wgt id="142">6.57118e-12</wgt>
  <wgt id="143">6.57775e-12</wgt>
  <wgt id="144">6.40918e-12</wgt>
  <wgt id="145">6.71753e-12</wgt>
  <wgt id="146">6.6212e-12</wgt>
  <wgt id="147">6.53016e-12</wgt>
  <wgt id="148">6.58894e-12</wgt>
  <wgt id="149">6.5687e-12</wgt>
  <wgt id="150">6.62569e-12</wgt>
  <wgt id="151">6.54404e-12</wgt>
  <wgt id="152">6.57278e-12</wgt>
  <wgt id="153">6.56913e-12</wgt>
  <wgt id="154">6.62853e-12</wgt>
  <wgt id="155">6.5017e-12</wgt>
  <wgt id="156">6.67838e-12</wgt>
  <wgt id="157">6.44924e-12</wgt>
  <wgt id="158">7.90666e-12</wgt>
  <wgt id="159">7.93938e-12</wgt>
  <wgt id="160">7.88013e-12</wgt>
  <wgt id="161">7.88769e-12</wgt>
  <wgt id="162">7.92753e-12</wgt>
  <wgt id="163">7.89864e-12</wgt>
  <wgt id="164">7.91866e-12</wgt>
  <wgt id="165">7.90972e-12</wgt>
  <wgt id="166">7.90439e-12</wgt>
  <wgt id="167">7.90086e-12</wgt>
  <wgt id="168">7.91481e-12</wgt>
  <wgt id="169">7.87267e-12</wgt>
  <wgt id="170">7.92803e-12</wgt>
  <wgt id="171">7.8983e-12</wgt>
  <wgt id="172">7.91849e-12</wgt>
  <wgt id="173">7.90805e-12</wgt>
  <wgt id="174">7.90585e-12</wgt>
  <wgt id="175">7.69229e-12</wgt>
  <wgt id="176">8.18522e-12</wgt>
  <wgt id="177">7.94682e-12</wgt>
  <wgt id="178">7.86931e-12</wgt>
  <wgt id="179">8.21713e-12</wgt>
  <wgt id="180">7.41403e-12</wgt>
  <wgt id="181">7.68879e-12</wgt>
  <wgt id="182">8.05016e-12</wgt>
  <wgt id="183">7.77324e-12</wgt>
  <wgt id="184">7.97285e-12</wgt>
  <wgt id="185">7.8465e-12</wgt>
  <wgt id="186">7.97792e-12</wgt>
  <wgt id="187">7.83874e-12</wgt>
  <wgt id="188">8.02936e-12</wgt>
  <wgt id="189">7.85933e-12</wgt>
  <wgt id="190">7.92615e-12</wgt>
  <wgt id="191">7.92676e-12</wgt>
  <wgt id="192">7.8948e-12</wgt>
  <wgt id="193">8.01202e-12</wgt>
  <wgt id="194">7.85456e-12</wgt>
  <wgt id="195">7.74249e-12</wgt>
  <wgt id="196">8.21466e-12</wgt>
  <wgt id="197">7.94417e-12</wgt>
  <wgt id="198">7.89769e-12</wgt>
  <wgt id="199">7.90666e-12</wgt>
  <wgt id="200">7.97136e-12</wgt>
  <wgt id="201">7.94725e-12</wgt>
  <wgt id="202">7.92418e-12</wgt>
  <wgt id="203">7.88892e-12</wgt>
  <wgt id="204">7.87237e-12</wgt>
  <wgt id="205">7.85864e-12</wgt>
  <wgt id="206">7.69152e-12</wgt>
  <wgt id="207">7.73599e-12</wgt>
  <wgt id="208">7.64748e-12</wgt>
  <wgt id="209">7.71299e-12</wgt>
  <wgt id="210">7.67569e-12</wgt>
  <wgt id="211">7.68913e-12</wgt>
  <wgt id="212">7.69341e-12</wgt>
  <wgt id="213">7.69082e-12</wgt>
  <wgt id="214">7.69264e-12</wgt>
  <wgt id="215">7.69659e-12</wgt>
  <wgt id="216">7.6878e-12</wgt>
  <wgt id="217">7.71292e-12</wgt>
  <wgt id="218">7.67499e-12</wgt>
  <wgt id="219">7.68225e-12</wgt>
  <wgt id="220">7.69708e-12</wgt>
  <wgt id="221">7.68756e-12</wgt>
  <wgt id="222">7.70075e-12</wgt>
  <wgt id="223">7.30137e-12</wgt>
  <wgt id="224">8.04576e-12</wgt>
  <wgt id="225">7.6042e-12</wgt>
  <wgt id="226">7.80084e-12</wgt>
  <wgt id="227">7.62166e-12</wgt>
  <wgt id="228">7.72218e-12</wgt>
  <wgt id="229">7.58845e-12</wgt>
  <wgt id="230">7.74275e-12</wgt>
  <wgt id="231">7.89978e-12</wgt>
  <wgt id="232">7.51992e-12</wgt>
  <wgt id="233">7.65385e-12</wgt>
  <wgt id="234">7.7488e-12</wgt>
  <wgt id="235">7.5677e-12</wgt>
  <wgt id="236">7.81523e-12</wgt>
  <wgt id="237">7.60181e-12</wgt>
  <wgt id="238">7.72245e-12</wgt>
  <wgt id="239">7.65149e-12</wgt>
  <wgt id="240">7.76425e-12</wgt>
  <wgt id="241">7.61847e-12</wgt>
  <wgt id="242">7.77942e-12</wgt>
  <wgt id="243">7.76796e-12</wgt>
  <wgt id="244">7.74198e-12</wgt>
  <wgt id="245">7.68512e-12</wgt>
  <wgt id="246">7.75143e-12</wgt>
  <wgt id="247">7.69152e-12</wgt>
  <wgt id="248">7.75457e-12</wgt>
  <wgt id="249">7.73009e-12</wgt>
  <wgt id="250">7.7077e-12</wgt>
  <wgt id="251">7.67339e-12</wgt>
  <wgt id="252">7.65751e-12</wgt>
  <wgt id="253">7.64576e-12</wgt>
  <wgt id="254">7.53966e-12</wgt>
  <wgt id="255">7.54702e-12</wgt>
  <wgt id="256">7.53178e-12</wgt>
  <wgt id="257">7.54555e-12</wgt>
  <wgt id="258">7.53534e-12</wgt>
  <wgt id="259">7.58989e-12</wgt>
  <wgt id="260">7.49137e-12</wgt>
  <wgt id="261">7.54844e-12</wgt>
  <wgt id="262">7.52934e-12</wgt>
  <wgt id="263">7.53695e-12</wgt>
  <wgt id="264">7.54278e-12</wgt>
  <wgt id="265">7.53167e-12</wgt>
  <wgt id="266">7.55546e-12</wgt>
  <wgt id="267">7.54204e-12</wgt>
  <wgt id="268">7.53658e-12</wgt>
  <wgt id="269">7.56223e-12</wgt>
  <wgt id="270">7.52438e-12</wgt>
  <wgt id="271">7.52755e-12</wgt>
  <wgt id="272">7.5532e-12</wgt>
  <wgt id="273">7.51701e-12</wgt>
  <wgt id="274">7.5571e-12</wgt>
  <wgt id="275">7.51178e-12</wgt>
  <wgt id="276">7.56844e-12</wgt>
  <wgt id="277">7.49847e-12</wgt>
  <wgt id="278">7.57763e-12</wgt>
  <wgt id="279">7.4009e-12</wgt>
  <wgt id="280">7.71323e-12</wgt>
  <wgt id="281">7.50858e-12</wgt>
  <wgt id="282">7.54017e-12</wgt>
  <wgt id="283">7.33773e-12</wgt>
  <wgt id="284">7.78741e-12</wgt>
  <wgt id="285">7.20289e-12</wgt>
  <wgt id="286">7.81628e-12</wgt>
  <wgt id="287">7.56182e-12</wgt>
  <wgt id="288">7.51134e-12</wgt>
  <wgt id="289">7.58878e-12</wgt>
  <wgt id="290">7.42343e-12</wgt>
  <wgt id="291">7.52222e-12</wgt>
  <wgt id="292">7.54402e-12</wgt>
  <wgt id="293">7.48575e-12</wgt>
  <wgt id="294">7.59317e-12</wgt>
  <wgt id="295">7.40577e-12</wgt>
  <wgt id="296">7.7027e-12</wgt>
  <wgt id="297">7.54359e-12</wgt>
  <wgt id="298">7.56319e-12</wgt>
  <wgt id="299">7.51712e-12</wgt>
  <wgt id="300">7.59917e-12</wgt>
  <wgt id="301">7.45707e-12</wgt>
  <wgt id="302">7.76447e-12</wgt>
  <wgt id="303">7.49235e-12</wgt>
  <wgt id="304">7.56736e-12</wgt>
  <wgt id="305">7.58044e-12</wgt>
  <wgt id="306">7.58837e-12</wgt>
  <wgt id="307">7.57229e-12</wgt>
  <wgt id="308">7.58708e-12</wgt>
  <wgt id="309">7.5761e-12</wgt>
  <wgt id="310">7.63273e-12</wgt>
  <wgt id="311">7.53217e-12</wgt>
  <wgt id="312">7.58702e-12</wgt>
  <wgt id="313">7.57428e-12</wgt>
  <wgt id="314">7.57802e-12</wgt>
  <wgt id="315">7.58316e-12</wgt>
  <wgt id="316">7.57303e-12</wgt>
  <wgt id="317">7.59707e-12</wgt>
  <wgt id="318">7.58569e-12</wgt>
  <wgt id="319">7.57204e-12</wgt>
  <wgt id="320">7.60401e-12</wgt>
  <wgt id="321">7.56759e-12</wgt>
  <wgt id="322">7.56433e-12</wgt>
  <wgt id="323">7.59979e-12</wgt>
  <wgt id="324">7.56161e-12</wgt>
  <wgt id="325">7.59725e-12</wgt>
  <wgt id="326">7.55817e-12</wgt>
  <wgt id="327">7.60925e-12</wgt>
  <wgt id="328">7.54305e-12</wgt>
  <wgt id="329">7.60214e-12</wgt>
  <wgt id="330">7.79615e-12</wgt>
  <wgt id="331">7.37449e-12</wgt>
  <wgt id="332">7.55484e-12</wgt>
  <wgt id="333">7.58008e-12</wgt>
  <wgt id="334">7.42086e-12</wgt>
  <wgt id="335">7.77819e-12</wgt>
  <wgt id="336">7.33475e-12</wgt>
  <wgt id="337">7.87763e-12</wgt>
  <wgt id="338">7.65918e-12</wgt>
  <wgt id="339">7.50754e-12</wgt>
  <wgt id="340">7.62764e-12</wgt>
  <wgt id="341">7.45807e-12</wgt>
  <wgt id="342">7.56865e-12</wgt>
  <wgt id="343">7.57407e-12</wgt>
  <wgt id="344">7.53105e-12</wgt>
  <wgt id="345">7.63791e-12</wgt>
  <wgt id="346">7.44094e-12</wgt>
  <wgt id="347">7.74128e-12</wgt>
  <wgt id="348">7.58826e-12</wgt>
  <wgt id="349">7.59876e-12</wgt>
  <wgt id="350">7.55191e-12</wgt>
  <wgt id="351">7.65323e-12</wgt>
  <wgt id="352">7.48745e-12</wgt>
  <wgt id="353">7.81973e-12</wgt>
  <wgt id="354">7.50706e-12</wgt>
  <wgt id="355">7.62635e-12</wgt>
  <wgt id="356">7.53966e-12</wgt>
  <wgt id="357">7.61665e-12</wgt>
  <wgt id="358">7.58044e-12</wgt>
  <wgt id="359">7.57113e-12</wgt>
  <wgt id="360">7.57313e-12</wgt>
  <wgt id="361">7.55971e-12</wgt>
  <wgt id="362">7.68171e-12</wgt>
  <wgt id="363">7.66439e-12</wgt>
  <wgt id="364">7.64133e-12</wgt>
  <wgt id="365">7.61731e-12</wgt>
  <wgt id="366">7.58996e-12</wgt>
  <wgt id="367">7.53242e-12</wgt>
  <wgt id="368">7.50145e-12</wgt>
  <wgt id="369">7.46814e-12</wgt>
  <wgt id="370">7.55971e-12</wgt>
  <wgt id="371">7.59326e-12</wgt>
  <wgt id="372">7.57478e-12</wgt>
  <wgt id="373">7.54731e-12</wgt>
  <wgt id="374">7.54271e-12</wgt>
  <wgt id="375">7.97507e-12</wgt>
  <wgt id="376">7.97609e-12</wgt>
  <wgt id="377">7.97382e-12</wgt>
  <wgt id="378">8.00353e-12</wgt>
  <wgt id="379">7.94666e-12</wgt>
  <wgt id="380">7.99655e-12</wgt>
  <wgt id="381">7.96638e-12</wgt>
  <wgt id="382">8.01435e-12</wgt>
  <wgt id="383">7.93614e-12</wgt>
  <wgt id="384">7.98024e-12</wgt>
  <wgt id="385">7.9701e-12</wgt>
  <wgt id="386">8.00536e-12</wgt>
  <wgt id="387">7.96183e-12</wgt>
  <wgt id="388">7.96778e-12</wgt>
  <wgt id="389">7.98381e-12</wgt>
  <wgt id="390">7.99587e-12</wgt>
  <wgt id="391">7.9531e-12</wgt>
  <wgt id="392">7.92022e-12</wgt>
  <wgt id="393">8.0061e-12</wgt>
  <wgt id="394">7.98657e-12</wgt>
  <wgt id="395">7.95914e-12</wgt>
  <wgt id="396">7.97734e-12</wgt>
  <wgt id="397">7.97342e-12</wgt>
  <wgt id="398">7.94158e-12</wgt>
  <wgt id="399">8.00734e-12</wgt>
  <wgt id="400">7.96236e-12</wgt>
  <wgt id="401">8.00327e-12</wgt>
  <wgt id="402">7.91483e-12</wgt>
  <wgt id="403">7.99928e-12</wgt>
  <wgt id="404">8.1442e-12</wgt>
  <wgt id="405">7.56583e-12</wgt>
  <wgt id="406">7.85342e-12</wgt>
  <wgt id="407">8.23712e-12</wgt>
  <wgt id="408">8.03749e-12</wgt>
  <wgt id="409">7.85478e-12</wgt>
  <wgt id="410">7.77439e-12</wgt>
  <wgt id="411">8.06657e-12</wgt>
  <wgt id="412">7.96238e-12</wgt>
  <wgt id="413">7.99278e-12</wgt>
  <wgt id="414">7.89497e-12</wgt>
  <wgt id="415">8.03711e-12</wgt>
  <wgt id="416">8.16318e-12</wgt>
  <wgt id="417">7.71458e-12</wgt>
  <wgt id="418">7.98465e-12</wgt>
  <wgt id="419">7.92351e-12</wgt>
  <wgt id="420">8.06703e-12</wgt>
  <wgt id="421">7.92759e-12</wgt>
  <wgt id="422">7.97253e-12</wgt>
  <wgt id="423">7.97834e-12</wgt>
  <wgt id="424">8.1099e-12</wgt>
  <wgt id="425">7.89309e-12</wgt>
  <wgt id="426">7.97507e-12</wgt>
  <wgt id="427">7.92114e-12</wgt>
  <wgt id="428">8.14537e-12</wgt>
  <wgt id="429">8.03577e-12</wgt>
  <wgt id="430">8.24521e-12</wgt>
  <wgt id="431">8.20359e-12</wgt>
  <wgt id="432">8.16378e-12</wgt>
  <wgt id="433">8.12521e-12</wgt>
  <wgt id="434">8.07921e-12</wgt>
  <wgt id="435">7.98127e-12</wgt>
  <wgt id="436">7.93057e-12</wgt>
  <wgt id="437">7.88267e-12</wgt>
  <wgt id="438">8.03577e-12</wgt>
  <wgt id="439">8.06227e-12</wgt>
  <wgt id="440">8.04687e-12</wgt>
  <wgt id="441">8.02733e-12</wgt>
  <wgt id="442">8.02009e-12</wgt>
  <wgt id="443">7.8689e-12</wgt>
  <wgt id="444">7.90358e-12</wgt>
  <wgt id="445">7.83672e-12</wgt>
  <wgt id="446">7.82194e-12</wgt>
  <wgt id="447">7.84113e-12</wgt>
  <wgt id="448">7.67477e-12</wgt>
  <wgt id="449">7.97963e-12</wgt>
  <wgt id="450">7.83316e-12</wgt>
  <wgt id="451">7.85825e-12</wgt>
  <wgt id="452">8.02963e-12</wgt>
  <wgt id="453">7.93141e-12</wgt>
  <wgt id="454">7.57482e-12</wgt>
  <wgt id="455">7.87668e-12</wgt>
  <wgt id="456">7.75361e-12</wgt>
  <wgt id="457">7.8975e-12</wgt>
  <wgt id="458">7.94991e-12</wgt>
  <wgt id="459">7.91604e-12</wgt>
  <wgt id="460">7.90747e-12</wgt>
  <wgt id="461">7.74441e-12</wgt>
  <wgt id="462">7.81302e-12</wgt>
  <wgt id="463">7.79476e-12</wgt>
  <wgt id="464">7.83109e-12</wgt>
  <wgt id="465">7.93997e-12</wgt>
  <wgt id="466">7.79223e-12</wgt>
  <wgt id="467">7.80214e-12</wgt>
  <wgt id="468">7.84982e-12</wgt>
  <wgt id="469">7.85033e-12</wgt>
  <wgt id="470">7.80666e-12</wgt>
  <wgt id="471">7.80955e-12</wgt>
  <wgt id="472">7.90006e-12</wgt>
  <wgt id="473">7.64731e-12</wgt>
  <wgt id="474">5.79e-12</wgt>
  <wgt id="475">6.16244e-12</wgt>
  <wgt id="476">5.67306e-12</wgt>
  <wgt id="477">5.67185e-12</wgt>
  <wgt id="478">5.82091e-12</wgt>
  <wgt id="479">5.71592e-12</wgt>
  <wgt id="480">5.96582e-12</wgt>
  <wgt id="481">5.64186e-12</wgt>
  <wgt id="482">5.55455e-12</wgt>
  <wgt id="483">5.64182e-12</wgt>
  <wgt id="484">6.21595e-12</wgt>
  <wgt id="485">5.81331e-12</wgt>
  <wgt id="486">5.88311e-12</wgt>
  <wgt id="487">5.88146e-12</wgt>
  <wgt id="488">5.85761e-12</wgt>
  <wgt id="489">5.59411e-12</wgt>
  <wgt id="490">5.62439e-12</wgt>
  <wgt id="491">5.72538e-12</wgt>
  <wgt id="492">5.60782e-12</wgt>
  <wgt id="493">5.59471e-12</wgt>
  <wgt id="494">5.61983e-12</wgt>
  <wgt id="495">5.89898e-12</wgt>
  <wgt id="496">5.59414e-12</wgt>
  <wgt id="497">5.5855e-12</wgt>
  <wgt id="498">5.85403e-12</wgt>
  <wgt id="499">5.63976e-12</wgt>
  <wgt id="500">5.69178e-12</wgt>
  <wgt id="501">6.03688e-12</wgt>
  <wgt id="502">5.62768e-12</wgt>
  <wgt id="503">5.77066e-12</wgt>
  <wgt id="504">5.79392e-12</wgt>
  <wgt id="505">5.86142e-12</wgt>
  <wgt id="506">5.88202e-12</wgt>
  <wgt id="507">5.72222e-12</wgt>
  <wgt id="508">5.87486e-12</wgt>
  <wgt id="509">5.76107e-12</wgt>
  <wgt id="510">5.92443e-12</wgt>
  <wgt id="511">5.67115e-12</wgt>
  <wgt id="512">5.85248e-12</wgt>
  <wgt id="513">6.00168e-12</wgt>
  <wgt id="514">5.73723e-12</wgt>
  <wgt id="515">5.71548e-12</wgt>
  <wgt id="516">5.93298e-12</wgt>
  <wgt id="517">5.91596e-12</wgt>
  <wgt id="518">5.93656e-12</wgt>
  <wgt id="519">5.65469e-12</wgt>
  <wgt id="520">5.81465e-12</wgt>
  <wgt id="521">6.00086e-12</wgt>
  <wgt id="522">6.00317e-12</wgt>
  <wgt id="523">5.91655e-12</wgt>
  <wgt id="524">5.90716e-12</wgt>
  <wgt id="525">5.93481e-12</wgt>
  <wgt id="526">5.78133e-12</wgt>
  <wgt id="527">5.89626e-12</wgt>
  <wgt id="528">5.78755e-12</wgt>
  <wgt id="529">5.71486e-12</wgt>
  <wgt id="530">5.8181e-12</wgt>
  <wgt id="531">5.71945e-12</wgt>
  <wgt id="532">6.08727e-12</wgt>
  <wgt id="533">5.44046e-12</wgt>
  <wgt id="534">5.80098e-12</wgt>
  <wgt id="535">5.89429e-12</wgt>
  <wgt id="536">5.79765e-12</wgt>
  <wgt id="537">5.81207e-12</wgt>
  <wgt id="538">5.88569e-12</wgt>
  <wgt id="539">5.66122e-12</wgt>
  <wgt id="540">5.72399e-12</wgt>
  <wgt id="541">5.69497e-12</wgt>
  <wgt id="542">5.6626e-12</wgt>
  <wgt id="543">5.78037e-12</wgt>
  <wgt id="544">6.07061e-12</wgt>
  <wgt id="545">5.7164e-12</wgt>
  <wgt id="546">5.73668e-12</wgt>
  <wgt id="547">5.61645e-12</wgt>
  <wgt id="548">5.55528e-12</wgt>
  <wgt id="549">5.70096e-12</wgt>
  <wgt id="550">5.82003e-12</wgt>
  <wgt id="551">5.85608e-12</wgt>
  <wgt id="552">5.74418e-12</wgt>
  <wgt id="553">5.77838e-12</wgt>
  <wgt id="554">6.22097e-12</wgt>
  <wgt id="555">5.9478e-12</wgt>
  <wgt id="556">5.62439e-12</wgt>
  <wgt id="557">5.87299e-12</wgt>
  <wgt id="558">5.59969e-12</wgt>
  <wgt id="559">5.72374e-12</wgt>
  <wgt id="560">6.24119e-12</wgt>
  <wgt id="561">5.65405e-12</wgt>
  <wgt id="562">5.86045e-12</wgt>
  <wgt id="563">5.63689e-12</wgt>
  <wgt id="564">5.778e-12</wgt>
  <wgt id="565">5.60007e-12</wgt>
  <wgt id="566">5.85137e-12</wgt>
  <wgt id="567">5.6996e-12</wgt>
  <wgt id="568">5.79164e-12</wgt>
  <wgt id="569">5.84363e-12</wgt>
  <wgt id="570">5.65592e-12</wgt>
  <wgt id="571">6.3997e-12</wgt>
  <wgt id="572">5.66138e-12</wgt>
  <wgt id="573">5.53017e-12</wgt>
  <wgt id="574">5.5861e-12</wgt>
  <wgt id="575">6.34237e-12</wgt>
  <wgt id="576">6.2373e-12</wgt>
  <wgt id="577">6.56187e-12</wgt>
  <wgt id="578">6.45887e-12</wgt>
  <wgt id="579">6.4014e-12</wgt>
  <wgt id="580">6.4325e-12</wgt>
  <wgt id="581">6.71007e-12</wgt>
  <wgt id="582">6.21855e-12</wgt>
  <wgt id="583">6.40347e-12</wgt>
  <wgt id="584">6.34908e-12</wgt>
  <wgt id="585">6.39906e-12</wgt>
  <wgt id="586">6.20198e-12</wgt>
  <wgt id="587">6.41258e-12</wgt>
  <wgt id="588">6.29849e-12</wgt>
  <wgt id="589">6.41092e-12</wgt>
  <wgt id="590">6.44593e-12</wgt>
  <wgt id="591">6.59234e-12</wgt>
  <wgt id="592">6.23835e-12</wgt>
  <wgt id="593">6.31329e-12</wgt>
  <wgt id="594">6.59652e-12</wgt>
  <wgt id="595">6.29542e-12</wgt>
  <wgt id="596">6.42219e-12</wgt>
  <wgt id="597">6.10889e-12</wgt>
  <wgt id="598">6.28207e-12</wgt>
  <wgt id="599">6.66373e-12</wgt>
  <wgt id="600">6.27763e-12</wgt>
  <wgt id="601">6.16317e-12</wgt>
  <wgt id="602">6.23119e-12</wgt>
  <wgt id="603">6.26095e-12</wgt>
  <wgt id="604">6.42281e-12</wgt>
  <wgt id="605">6.5988e-12</wgt>
  <wgt id="606">6.17968e-12</wgt>
  <wgt id="607">6.24963e-12</wgt>
  <wgt id="608">6.32109e-12</wgt>
  <wgt id="609">5.96983e-12</wgt>
  <wgt id="610">6.09699e-12</wgt>
  <wgt id="611">6.44657e-12</wgt>
  <wgt id="612">6.81033e-12</wgt>
  <wgt id="613">6.35184e-12</wgt>
  <wgt id="614">6.42336e-12</wgt>
  <wgt id="615">6.21278e-12</wgt>
  <wgt id="616">6.76004e-12</wgt>
  <wgt id="617">6.56506e-12</wgt>
  <wgt id="618">6.32902e-12</wgt>
  <wgt id="619">6.30598e-12</wgt>
  <wgt id="620">6.55972e-12</wgt>
  <wgt id="621">6.44006e-12</wgt>
  <wgt id="622">6.41258e-12</wgt>
  <wgt id="623">6.5043e-12</wgt>
  <wgt id="624">6.30179e-12</wgt>
  <wgt id="625">6.27329e-12</wgt>
  <wgt id="626">6.21258e-12</wgt>
  <wgt id="627">6.12179e-12</wgt>
  <wgt id="628">6.69285e-12</wgt>
  <wgt id="629">6.20424e-12</wgt>
  <wgt id="630">6.17087e-12</wgt>
  <wgt id="631">6.34421e-12</wgt>
  <wgt id="632">6.16818e-12</wgt>
  <wgt id="633">6.26087e-12</wgt>
  <wgt id="634">6.37709e-12</wgt>
  <wgt id="635">6.29187e-12</wgt>
  <wgt id="636">6.37781e-12</wgt>
  <wgt id="637">6.35907e-12</wgt>
  <wgt id="638">6.1215e-12</wgt>
  <wgt id="639">6.27599e-12</wgt>
  <wgt id="640">6.35688e-12</wgt>
  <wgt id="641">6.3503e-12</wgt>
  <wgt id="642">6.23284e-12</wgt>
  <wgt id="643">6.3206e-12</wgt>
  <wgt id="644">6.14444e-12</wgt>
  <wgt id="645">6.38148e-12</wgt>
  <wgt id="646">6.47511e-12</wgt>
  <wgt id="647">6.23888e-12</wgt>
  <wgt id="648">6.36414e-12</wgt>
  <wgt id="649">6.43959e-12</wgt>
  <wgt id="650">6.23161e-12</wgt>
  <wgt id="651">6.3991e-12</wgt>
  <wgt id="652">6.33346e-12</wgt>
  <wgt id="653">6.17961e-12</wgt>
  <wgt id="654">6.32083e-12</wgt>
  <wgt id="655">6.20893e-12</wgt>
  <wgt id="656">6.33913e-12</wgt>
  <wgt id="657">6.47818e-12</wgt>
  <wgt id="658">6.44521e-12</wgt>
  <wgt id="659">6.11647e-12</wgt>
  <wgt id="660">6.46361e-12</wgt>
  <wgt id="661">6.24946e-12</wgt>
  <wgt id="662">6.31917e-12</wgt>
  <wgt id="663">6.32245e-12</wgt>
  <wgt id="664">6.23851e-12</wgt>
  <wgt id="665">6.31751e-12</wgt>
  <wgt id="666">6.32599e-12</wgt>
  <wgt id="667">6.53569e-12</wgt>
  <wgt id="668">6.31051e-12</wgt>
  <wgt id="669">6.49882e-12</wgt>
  <wgt id="670">6.41565e-12</wgt>
  <wgt id="671">6.24207e-12</wgt>
  <wgt id="672">6.07815e-12</wgt>
  <wgt id="673">6.31642e-12</wgt>
  <wgt id="674">6.21576e-12</wgt>
  <wgt id="675">6.2109e-12</wgt>
  <wgt id="676">7.88747e-12</wgt>
  <wgt id="677">7.99522e-12</wgt>
  <wgt id="678">8.23788e-12</wgt>
  <wgt id="679">7.49826e-12</wgt>
  <wgt id="680">7.61747e-12</wgt>
  <wgt id="681">8.11694e-12</wgt>
  <wgt id="682">8.01222e-12</wgt>
  <wgt id="683">7.82633e-12</wgt>
  <wgt id="684">8.22727e-12</wgt>
  <wgt id="685">7.47038e-12</wgt>
  <wgt id="686">7.91331e-12</wgt>
  <wgt id="687">8.23702e-12</wgt>
  <wgt id="688">7.85481e-12</wgt>
  <wgt id="689">8.4569e-12</wgt>
  <wgt id="690">8.32991e-12</wgt>
  <wgt id="691">8.32019e-12</wgt>
  <wgt id="692">7.85608e-12</wgt>
  <wgt id="693">9.06127e-12</wgt>
  <wgt id="694">8.3229e-12</wgt>
  <wgt id="695">7.63562e-12</wgt>
  <wgt id="696">7.51033e-12</wgt>
  <wgt id="697">7.66064e-12</wgt>
  <wgt id="698">7.40912e-12</wgt>
  <wgt id="699">7.32075e-12</wgt>
  <wgt id="700">7.0213e-12</wgt>
  <wgt id="701">7.90614e-12</wgt>
  <wgt id="702">7.55338e-12</wgt>
  <wgt id="703">8.91541e-12</wgt>
  <wgt id="704">8.469e-12</wgt>
  <wgt id="705">8.16556e-12</wgt>
  <wgt id="706">7.36568e-12</wgt>
  <wgt id="707">7.59496e-12</wgt>
  <wgt id="708">7.7979e-12</wgt>
  <wgt id="709">7.76122e-12</wgt>
  <wgt id="710">7.08702e-12</wgt>
  <wgt id="711">7.87779e-12</wgt>
  <wgt id="712">7.79295e-12</wgt>
  <wgt id="713">8.42837e-12</wgt>
  <wgt id="714">7.85841e-12</wgt>
  <wgt id="715">7.81161e-12</wgt>
  <wgt id="716">7.60428e-12</wgt>
  <wgt id="717">7.593e-12</wgt>
  <wgt id="718">7.75674e-12</wgt>
  <wgt id="719">7.22915e-12</wgt>
  <wgt id="720">7.47395e-12</wgt>
  <wgt id="721">7.48833e-12</wgt>
  <wgt id="722">7.15304e-12</wgt>
  <wgt id="723">8.32639e-12</wgt>
  <wgt id="724">8.19414e-12</wgt>
  <wgt id="725">8.33253e-12</wgt>
  <wgt id="726">7.97724e-12</wgt>
  <wgt id="727">7.70772e-12</wgt>
  <wgt id="728">7.81076e-12</wgt>
  <wgt id="729">7.15751e-12</wgt>
  <wgt id="730">8.38135e-12</wgt>
  <wgt id="731">7.81431e-12</wgt>
  <wgt id="732">8.58114e-12</wgt>
  <wgt id="733">7.89264e-12</wgt>
  <wgt id="734">8.06907e-12</wgt>
  <wgt id="735">7.84083e-12</wgt>
  <wgt id="736">7.79162e-12</wgt>
  <wgt id="737">8.02064e-12</wgt>
  <wgt id="738">7.58343e-12</wgt>
  <wgt id="739">7.86636e-12</wgt>
  <wgt id="740">8.70008e-12</wgt>
  <wgt id="741">7.02736e-12</wgt>
  <wgt id="742">7.77148e-12</wgt>
  <wgt id="743">7.65375e-12</wgt>
  <wgt id="744">7.73444e-12</wgt>
  <wgt id="745">8.17703e-12</wgt>
  <wgt id="746">8.27267e-12</wgt>
  <wgt id="747">7.29223e-12</wgt>
  <wgt id="748">7.76519e-12</wgt>
  <wgt id="749">8.32771e-12</wgt>
  <wgt id="750">7.83294e-12</wgt>
  <wgt id="751">8.17345e-12</wgt>
  <wgt id="752">7.29734e-12</wgt>
  <wgt id="753">7.5331e-12</wgt>
  <wgt id="754">8.12664e-12</wgt>
  <wgt id="755">7.93906e-12</wgt>
  <wgt id="756">7.93452e-12</wgt>
  <wgt id="757">7.34773e-12</wgt>
  <wgt id="758">7.99198e-12</wgt>
  <wgt id="759">7.85831e-12</wgt>
  <wgt id="760">8.0351e-12</wgt>
  <wgt id="761">8.29612e-12</wgt>
  <wgt id="762">8.30197e-12</wgt>
  <wgt id="763">7.90326e-12</wgt>
  <wgt id="764">8.1608e-12</wgt>
  <wgt id="765">7.96819e-12</wgt>
  <wgt id="766">7.85917e-12</wgt>
  <wgt id="767">8.06663e-12</wgt>
  <wgt id="768">7.51015e-12</wgt>
  <wgt id="769">8.32931e-12</wgt>
  <wgt id="770">7.66724e-12</wgt>
  <wgt id="771">9.20362e-12</wgt>
  <wgt id="772">7.43029e-12</wgt>
  <wgt id="773">7.85699e-12</wgt>
  <wgt id="774">7.15431e-12</wgt>
  <wgt id="775">8.25006e-12</wgt>
  <wgt id="776">8.60178e-12</wgt>
  <wgt id="777">7.65157e-12</wgt>
  <wgt id="778">5.93318e-12</wgt>
  <wgt id="779">5.08404e-12</wgt>
  <wgt id="780">4.31504e-12</wgt>
  <wgt id="781">5.91052e-12</wgt>
  <wgt id="782">6.27473e-12</wgt>
  <wgt id="783">5.18215e-12</wgt>
  <wgt id="784">5.29864e-12</wgt>
  <wgt id="785">7.07966e-12</wgt>
  <wgt id="786">4.66334e-12</wgt>
  <wgt id="787">6.6169e-12</wgt>
  <wgt id="788">4.0116e-12</wgt>
  <wgt id="789">4.804e-12</wgt>
  <wgt id="790">4.65006e-12</wgt>
  <wgt id="791">5.50101e-12</wgt>
  <wgt id="792">7.54893e-12</wgt>
  <wgt id="793">5.73352e-12</wgt>
  <wgt id="794">4.74282e-12</wgt>
  <wgt id="795">6.74833e-12</wgt>
  <wgt id="796">7.67303e-12</wgt>
  <wgt id="797">6.71545e-12</wgt>
  <wgt id="798">5.55957e-12</wgt>
  <wgt id="799">6.65187e-12</wgt>
  <wgt id="800">4.86135e-12</wgt>
  <wgt id="801">5.61476e-12</wgt>
  <wgt id="802">4.78801e-12</wgt>
  <wgt id="803">7.64773e-12</wgt>
  <wgt id="804">6.70492e-12</wgt>
  <wgt id="805">6.83676e-12</wgt>
  <wgt id="806">6.69756e-12</wgt>
  <wgt id="807">5.70174e-12</wgt>
  <wgt id="808">5.80477e-12</wgt>
  <wgt id="809">5.48617e-12</wgt>
  <wgt id="810">6.77355e-12</wgt>
  <wgt id="811">6.43406e-12</wgt>
  <wgt id="812">4.7028e-12</wgt>
  <wgt id="813">4.76078e-12</wgt>
  <wgt id="814">5.04872e-12</wgt>
  <wgt id="815">5.10295e-12</wgt>
  <wgt id="816">4.53182e-12</wgt>
  <wgt id="817">6.25424e-12</wgt>
  <wgt id="818">5.76113e-12</wgt>
  <wgt id="819">5.10159e-12</wgt>
  <wgt id="820">5.9598e-12</wgt>
  <wgt id="821">6.70549e-12</wgt>
  <wgt id="822">5.13679e-12</wgt>
  <wgt id="823">6.71316e-12</wgt>
  <wgt id="824">7.84842e-12</wgt>
  <wgt id="825">4.56772e-12</wgt>
  <wgt id="826">6.1429e-12</wgt>
  <wgt id="827">3.84907e-12</wgt>
  <wgt id="828">7.58168e-12</wgt>
  <wgt id="829">6.11797e-12</wgt>
  <wgt id="830">4.34506e-12</wgt>
  <wgt id="831">6.31106e-12</wgt>
  <wgt id="832">9.45054e-12</wgt>
  <wgt id="833">5.64114e-12</wgt>
  <wgt id="834">8.84582e-12</wgt>
  <wgt id="835">4.88333e-12</wgt>
  <wgt id="836">5.98344e-12</wgt>
  <wgt id="837">6.62349e-12</wgt>
  <wgt id="838">5.7082e-12</wgt>
  <wgt id="839">6.28394e-12</wgt>
  <wgt id="840">5.64303e-12</wgt>
  <wgt id="841">7.083e-12</wgt>
  <wgt id="842">5.45926e-12</wgt>
  <wgt id="843">5.76127e-12</wgt>
  <wgt id="844">6.12914e-12</wgt>
  <wgt id="845">7.97594e-12</wgt>
  <wgt id="846">5.47366e-12</wgt>
  <wgt id="847">5.87449e-12</wgt>
  <wgt id="848">5.29466e-12</wgt>
  <wgt id="849">6.05932e-12</wgt>
  <wgt id="850">7.49778e-12</wgt>
  <wgt id="851">6.44365e-12</wgt>
  <wgt id="852">5.2411e-12</wgt>
  <wgt id="853">6.40663e-12</wgt>
  <wgt id="854">7.08257e-12</wgt>
  <wgt id="855">6.72005e-12</wgt>
  <wgt id="856">4.45688e-12</wgt>
  <wgt id="857">6.00541e-12</wgt>
  <wgt id="858">5.90327e-12</wgt>
  <wgt id="859">5.53915e-12</wgt>
  <wgt id="860">6.22708e-12</wgt>
  <wgt id="861">5.35552e-12</wgt>
  <wgt id="862">6.02841e-12</wgt>
  <wgt id="863">6.19159e-12</wgt>
  <wgt id="864">6.23268e-12</wgt>
  <wgt id="865">8.23069e-12</wgt>
  <wgt id="866">8.99622e-12</wgt>
  <wgt id="867">5.98291e-12</wgt>
  <wgt id="868">5.83838e-12</wgt>
  <wgt id="869">4.75478e-12</wgt>
  <wgt id="870">4.99554e-12</wgt>
  <wgt id="871">4.85994e-12</wgt>
  <wgt id="872">6.88221e-12</wgt>
  <wgt id="873">4.96869e-12</wgt>
  <wgt id="874">6.17483e-12</wgt>
  <wgt id="875">5.20869e-12</wgt>
  <wgt id="876">6.89876e-12</wgt>
  <wgt id="877">6.67758e-12</wgt>
  <wgt id="878">5.24146e-12</wgt>
  <wgt id="879">7.88747e-12</wgt>
  <wgt id="880">7.99522e-12</wgt>
  <wgt id="881">8.23788e-12</wgt>
  <wgt id="882">7.49826e-12</wgt>
  <wgt id="883">7.61747e-12</wgt>
  <wgt id="884">8.11694e-12</wgt>
  <wgt id="885">8.01222e-12</wgt>
  <wgt id="886">7.82633e-12</wgt>
  <wgt id="887">8.22727e-12</wgt>
  <wgt id="888">7.47038e-12</wgt>
  <wgt id="889">7.91331e-12</wgt>
  <wgt id="890">8.23702e-12</wgt>
  <wgt id="891">7.85481e-12</wgt>
  <wgt id="892">8.4569e-12</wgt>
  <wgt id="893">8.32991e-12</wgt>
  <wgt id="894">8.32019e-12</wgt>
  <wgt id="895">7.85608e-12</wgt>
  <wgt id="896">9.06127e-12</wgt>
  <wgt id="897">8.3229e-12</wgt>
  <wgt id="898">7.63562e-12</wgt>
  <wgt id="899">7.51033e-12</wgt>
  <wgt id="900">7.66064e-12</wgt>
  <wgt id="901">7.40912e-12</wgt>
  <wgt id="902">7.32075e-12</wgt>
  <wgt id="903">7.0213e-12</wgt>
  <wgt id="904">7.90614e-12</wgt>
  <wgt id="905">7.55338e-12</wgt>
  <wgt id="906">8.91541e-12</wgt>
  <wgt id="907">8.469e-12</wgt>
  <wgt id="908">8.16556e-12</wgt>
  <wgt id="909">7.36568e-12</wgt>
  <wgt id="910">7.59496e-12</wgt>
  <wgt id="911">7.7979e-12</wgt>
  <wgt id="912">7.76122e-12</wgt>
  <wgt id="913">7.08702e-12</wgt>
  <wgt id="914">7.87779e-12</wgt>
  <wgt id="915">7.79295e-12</wgt>
  <wgt id="916">8.42837e-12</wgt>
  <wgt id="917">7.85841e-12</wgt>
  <wgt id="918">7.81161e-12</wgt>
  <wgt id="919">7.60428e-12</wgt>
  <wgt id="920">7.593e-12</wgt>
  <wgt id="921">7.75674e-12</wgt>
  <wgt id="922">7.22915e-12</wgt>
  <wgt id="923">7.47395e-12</wgt>
  <wgt id="924">7.48833e-12</wgt>
  <wgt id="925">7.15304e-12</wgt>
  <wgt id="926">8.32639e-12</wgt>
  <wgt id="927">8.19414e-12</wgt>
  <wgt id="928">8.33253e-12</wgt>
  <wgt id="929">7.97724e-12</wgt>
  <wgt id="930">7.70772e-12</wgt>
  <wgt id="931">7.81076e-12</wgt>
  <wgt id="932">7.15751e-12</wgt>
  <wgt id="933">8.38135e-12</wgt>
  <wgt id="934">7.81431e-12</wgt>
  <wgt id="935">8.58114e-12</wgt>
  <wgt id="936">7.89264e-12</wgt>
  <wgt id="937">8.06907e-12</wgt>
  <wgt id="938">7.84083e-12</wgt>
  <wgt id="939">7.79162e-12</wgt>
  <wgt id="940">8.02064e-12</wgt>
  <wgt id="941">7.58343e-12</wgt>
  <wgt id="942">7.86636e-12</wgt>
  <wgt id="943">8.70008e-12</wgt>
  <wgt id="944">7.02736e-12</wgt>
  <wgt id="945">7.77148e-12</wgt>
  <wgt id="946">7.65375e-12</wgt>
  <wgt id="947">7.73444e-12</wgt>
  <wgt id="948">8.17703e-12</wgt>
  <wgt id="949">8.27267e-12</wgt>
  <wgt id="950">7.29223e-12</wgt>
  <wgt id="951">7.76519e-12</wgt>
  <wgt id="952">8.32771e-12</wgt>
  <wgt id="953">7.83294e-12</wgt>
  <wgt id="954">8.17345e-12</wgt>
  <wgt id="955">7.29734e-12</wgt>
  <wgt id="956">7.5331e-12</wgt>
  <wgt id="957">8.12664e-12</wgt>
  <wgt id="958">7.93906e-12</wgt>
  <wgt id="959">7.93452e-12</wgt>
  <wgt id="960">7.34773e-12</wgt>
  <wgt id="961">7.99198e-12</wgt>
  <wgt id="962">7.85831e-12</wgt>
  <wgt id="963">8.0351e-12</wgt>
  <wgt id="964">8.29612e-12</wgt>
  <wgt id="965">8.30197e-12</wgt>
  <wgt id="966">7.90326e-12</wgt>
  <wgt id="967">8.1608e-12</wgt>
  <wgt id="968">7.96819e-12</wgt>
  <wgt id="969">7.85917e-12</wgt>
  <wgt id="970">8.06663e-12</wgt>
  <wgt id="971">7.51015e-12</wgt>
  <wgt id="972">8.32931e-12</wgt>
  <wgt id="973">7.66724e-12</wgt>
  <wgt id="974">9.20362e-12</wgt>
  <wgt id="975">7.43029e-12</wgt>
  <wgt id="976">7.85699e-12</wgt>
  <wgt id="977">7.15431e-12</wgt>
  <wgt id="978">8.25006e-12</wgt>
  <wgt id="979">8.60178e-12</wgt>
  <wgt id="980">7.90263e-12</wgt>
  <wgt id="981">7.91451e-12</wgt>
  <wgt id="982">7.67154e-12</wgt>
</rwgt>
</event>
<event>
 5   1  0.5790000E-11  0.2052647E+04  0.7818608E-02  0.7806753E-01
       21   -1    0    0  502  501  0.00000000000E+00  0.00000000000E+00  0.20385270492E+04  0.20385270492E+04  0.00000000000E+00 0.  1.
       21   -1    0    0  501  502 -0.00000000000E+00 -0.00000000000E+00 -0.51671605449E+03  0.51671605449E+03  0.00000000000E+00 0. -1.
       39    2    1    2    0    0  0.00000000000E+00  0.00000000000E+00  0.15218109947E+04  0.25552431037E+04  0.20526467342E+04 0.  0.
       25    1    3    3    0    0  0.63982630941E+03  0.43752951582E+03  0.15837380320E+04  0.17676710489E+04  0.12500000000E+03 0.  0.
       25    1    3    3    0    0 -0.63982630941E+03 -0.43752951582E+03 -0.61927037271E+02  0.78757205471E+03  0.12500000000E+03 0.  0.
<mgrwt>
<rscale>  0 0.20526467E+04</rscale>
<asrwt>0</asrwt>
<pdfrwt beam="1">  1       21 0.31361954E+00 0.20526467E+04</pdfrwt>
<pdfrwt beam="2">  1       21 0.79494779E-01 0.20526467E+04</pdfrwt>
<totfact> 0.15207945E+01</totfact>
</mgrwt>
<rwgt>
  <wgt id="1">5.79e-12</wgt>
  <wgt id="2">5.02629e-12</wgt>
  <wgt id="3">6.74069e-12</wgt>
  <wgt id="4">5.79e-12</wgt>
  <wgt id="5">5.02629e-12</wgt>
  <wgt id="6">6.74069e-12</wgt>
  <wgt id="7">5.79e-12</wgt>
  <wgt id="8">5.02629e-12</wgt>
  <wgt id="9">6.74069e-12</wgt>
  <wgt id="10">6.04085e-12</wgt>
  <wgt id="11">6.03849e-12</wgt>
  <wgt id="12">6.02764e-12</wgt>
  <wgt id="13">6.02907e-12</wgt>
  <wgt id="14">6.06166e-12</wgt>
  <wgt id="15">6.05016e-12</wgt>
  <wgt id="16">6.02836e-12</wgt>
  <wgt id="17">6.06955e-12</wgt>
  <wgt id="18">6.03278e-12</wgt>
  <wgt id="19">6.06344e-12</wgt>
  <wgt id="20">6.03841e-12</wgt>
  <wgt id="21">5.99216e-12</wgt>
  <wgt id="22">5.99699e-12</wgt>
  <wgt id="23">5.94954e-12</wgt>
  <wgt id="24">5.99658e-12</wgt>
  <wgt id="25">6.01824e-12</wgt>
  <wgt id="26">6.05833e-12</wgt>
  <wgt id="27">6.02939e-12</wgt>
  <wgt id="28">6.0025e-12</wgt>
  <wgt id="29">6.04296e-12</wgt>
  <wgt id="30">5.99371e-12</wgt>
  <wgt id="31">6.06731e-12</wgt>
  <wgt id="32">6.0001e-12</wgt>
  <wgt id="33">6.04952e-12</wgt>
  <wgt id="34">6.00084e-12</wgt>
  <wgt id="35">6.00629e-12</wgt>
  <wgt id="36">6.07344e-12</wgt>
  <wgt id="37">6.02088e-12</wgt>
  <wgt id="38">6.01315e-12</wgt>
  <wgt id="39">6.14387e-12</wgt>
  <wgt id="40">6.04403e-12</wgt>
  <wgt id="41">6.03875e-12</wgt>
  <wgt id="42">6.04687e-12</wgt>
  <wgt id="43">6.0423e-12</wgt>
  <wgt id="44">6.07847e-12</wgt>
  <wgt id="45">6.04939e-12</wgt>
  <wgt id="46">6.02097e-12</wgt>
  <wgt id="47">6.09765e-12</wgt>
  <wgt id="48">6.06892e-12</wgt>
  <wgt id="49">5.99769e-12</wgt>
  <wgt id="50">5.99028e-12</wgt>
  <wgt id="51">6.00636e-12</wgt>
  <wgt id="52">6.06456e-12</wgt>
  <wgt id="53">6.0816e-12</wgt>
  <wgt id="54">6.06906e-12</wgt>
  <wgt id="55">6.03816e-12</wgt>
  <wgt id="56">6.0218e-12</wgt>
  <wgt id="57">6.0113e-12</wgt>
  <wgt id="58">6.03635e-12</wgt>
  <wgt id="59">6.04768e-12</wgt>
  <wgt id="60">6.00027e-12</wgt>
  <wgt id="61">6.00534e-12</wgt>
  <wgt id="62">6.02558e-12</wgt>
  <wgt id="63">6.03558e-12</wgt>
  <wgt id="64">6.03691e-12</wgt>
  <wgt id="65">6.02042e-12</wgt>
  <wgt id="66">6.04396e-12</wgt>
  <wgt id="67">6.02902e-12</wgt>
  <wgt id="68">6.03955e-12</wgt>
  <wgt id="69">6.03068e-12</wgt>
  <wgt id="70">6.02622e-12</wgt>
  <wgt id="71">6.0366e-12</wgt>
  <wgt id="72">6.00832e-12</wgt>
  <wgt id="73">6.06455e-12</wgt>
  <wgt id="74">6.06117e-12</wgt>
  <wgt id="75">6.04235e-12</wgt>
  <wgt id="76">6.07851e-12</wgt>
  <wgt id="77">6.03087e-12</wgt>
  <wgt id="78">6.03513e-12</wgt>
  <wgt id="79">6.05594e-12</wgt>
  <wgt id="80">5.99291e-12</wgt>
  <wgt id="81">6.03984e-12</wgt>
  <wgt id="82">6.04618e-12</wgt>
  <wgt id="83">6.00587e-12</wgt>
  <wgt id="84">6.02256e-12</wgt>
  <wgt id="85">6.01965e-12</wgt>
  <wgt id="86">6.06138e-12</wgt>
  <wgt id="87">5.98936e-12</wgt>
  <wgt id="88">6.05638e-12</wgt>
  <wgt id="89">6.05018e-12</wgt>
  <wgt id="90">6.06089e-12</wgt>
  <wgt id="91">6.04787e-12</wgt>
  <wgt id="92">6.05608e-12</wgt>
  <wgt id="93">6.04871e-12</wgt>
  <wgt id="94">6.02623e-12</wgt>
  <wgt id="95">6.06078e-12</wgt>
  <wgt id="96">6.05486e-12</wgt>
  <wgt id="97">6.01927e-12</wgt>
  <wgt id="98">6.04062e-12</wgt>
  <wgt id="99">6.03108e-12</wgt>
  <wgt id="100">6.05584e-12</wgt>
  <wgt id="101">6.03504e-12</wgt>
  <wgt id="102">6.0322e-12</wgt>
  <wgt id="103">6.06122e-12</wgt>
  <wgt id="104">6.02937e-12</wgt>
  <wgt id="105">6.05201e-12</wgt>
  <wgt id="106">6.02633e-12</wgt>
  <wgt id="107">6.07431e-12</wgt>
  <wgt id="108">6.02924e-12</wgt>
  <wgt id="109">6.04822e-12</wgt>
  <wgt id="110">6.03767e-12</wgt>
  <wgt id="111">6.04377e-12</wgt>
  <wgt id="112">6.11165e-12</wgt>
  <wgt id="113">8.45879e-12</wgt>
  <wgt id="114">7.97579e-12</wgt>
  <wgt id="115">7.82112e-12</wgt>
  <wgt id="116">1.04236e-11</wgt>
  <wgt id="117">6.55488e-12</wgt>
  <wgt id="118">6.5765e-12</wgt>
  <wgt id="119">6.54255e-12</wgt>
  <wgt id="120">6.55529e-12</wgt>
  <wgt id="121">6.55465e-12</wgt>
  <wgt id="122">6.54413e-12</wgt>
  <wgt id="123">6.56974e-12</wgt>
  <wgt id="124">6.54586e-12</wgt>
  <wgt id="125">6.56071e-12</wgt>
  <wgt id="126">6.5628e-12</wgt>
  <wgt id="127">6.54971e-12</wgt>
  <wgt id="128">6.57486e-12</wgt>
  <wgt id="129">6.53506e-12</wgt>
  <wgt id="130">6.5859e-12</wgt>
  <wgt id="131">6.52274e-12</wgt>
  <wgt id="132">6.38088e-12</wgt>
  <wgt id="133">6.76118e-12</wgt>
  <wgt id="134">6.48798e-12</wgt>
  <wgt id="135">6.60728e-12</wgt>
  <wgt id="136">6.64907e-12</wgt>
  <wgt id="137">6.44154e-12</wgt>
  <wgt id="138">6.83519e-12</wgt>
  <wgt id="139">6.28761e-12</wgt>
  <wgt id="140">6.52192e-12</wgt>
  <wgt id="141">6.57973e-12</wgt>
  <wgt id="142">6.55336e-12</wgt>
  <wgt id="143">6.57354e-12</wgt>
  <wgt id="144">6.30994e-12</wgt>
  <wgt id="145">6.7901e-12</wgt>
  <wgt id="146">6.63222e-12</wgt>
  <wgt id="147">6.49172e-12</wgt>
  <wgt id="148">6.57745e-12</wgt>
  <wgt id="149">6.55323e-12</wgt>
  <wgt id="150">6.60834e-12</wgt>
  <wgt id="151">6.5298e-12</wgt>
  <wgt id="152">6.55638e-12</wgt>
  <wgt id="153">6.55434e-12</wgt>
  <wgt id="154">6.57519e-12</wgt>
  <wgt id="155">6.51896e-12</wgt>
  <wgt id="156">6.75038e-12</wgt>
  <wgt id="157">6.37096e-12</wgt>
  <wgt id="158">7.86529e-12</wgt>
  <wgt id="159">7.89906e-12</wgt>
  <wgt id="160">7.83854e-12</wgt>
  <wgt id="161">7.84742e-12</wgt>
  <wgt id="162">7.88557e-12</wgt>
  <wgt id="163">7.85771e-12</wgt>
  <wgt id="164">7.87717e-12</wgt>
  <wgt id="165">7.86866e-12</wgt>
  <wgt id="166">7.86343e-12</wgt>
  <wgt id="167">7.85994e-12</wgt>
  <wgt id="168">7.87328e-12</wgt>
  <wgt id="169">7.83197e-12</wgt>
  <wgt id="170">7.88607e-12</wgt>
  <wgt id="171">7.8608e-12</wgt>
  <wgt id="172">7.87204e-12</wgt>
  <wgt id="173">7.85251e-12</wgt>
  <wgt id="174">7.87015e-12</wgt>
  <wgt id="175">7.65034e-12</wgt>
  <wgt id="176">8.14631e-12</wgt>
  <wgt id="177">7.89931e-12</wgt>
  <wgt id="178">7.8348e-12</wgt>
  <wgt id="179">8.23937e-12</wgt>
  <wgt id="180">7.28562e-12</wgt>
  <wgt id="181">7.619e-12</wgt>
  <wgt id="182">8.02966e-12</wgt>
  <wgt id="183">7.71583e-12</wgt>
  <wgt id="184">7.93976e-12</wgt>
  <wgt id="185">7.78293e-12</wgt>
  <wgt id="186">7.96419e-12</wgt>
  <wgt id="187">7.77962e-12</wgt>
  <wgt id="188">8.01703e-12</wgt>
  <wgt id="189">7.80796e-12</wgt>
  <wgt id="190">7.88911e-12</wgt>
  <wgt id="191">7.89263e-12</wgt>
  <wgt id="192">7.84946e-12</wgt>
  <wgt id="193">7.98806e-12</wgt>
  <wgt id="194">7.80351e-12</wgt>
  <wgt id="195">7.61614e-12</wgt>
  <wgt id="196">8.27735e-12</wgt>
  <wgt id="197">7.90484e-12</wgt>
  <wgt id="198">7.85576e-12</wgt>
  <wgt id="199">7.86529e-12</wgt>
  <wgt id="200">7.93832e-12</wgt>
  <wgt id="201">7.91356e-12</wgt>
  <wgt id="202">7.88929e-12</wgt>
  <wgt id="203">7.85521e-12</wgt>
  <wgt id="204">7.83795e-12</wgt>
  <wgt id="205">7.82306e-12</wgt>
  <wgt id="206">7.71571e-12</wgt>
  <wgt id="207">7.76069e-12</wgt>
  <wgt id="208">7.67065e-12</wgt>
  <wgt id="209">7.73495e-12</wgt>
  <wgt id="210">7.70154e-12</wgt>
  <wgt id="211">7.7138e-12</wgt>
  <wgt id="212">7.71712e-12</wgt>
  <wgt id="213">7.71493e-12</wgt>
  <wgt id="214">7.71665e-12</wgt>
  <wgt id="215">7.72056e-12</wgt>
  <wgt id="216">7.71234e-12</wgt>
  <wgt id="217">7.73191e-12</wgt>
  <wgt id="218">7.70285e-12</wgt>
  <wgt id="219">7.70268e-12</wgt>
  <wgt id="220">7.72351e-12</wgt>
  <wgt id="221">7.71851e-12</wgt>
  <wgt id="222">7.70662e-12</wgt>
  <wgt id="223">7.30029e-12</wgt>
  <wgt id="224">8.09538e-12</wgt>
  <wgt id="225">7.62547e-12</wgt>
  <wgt id="226">7.83005e-12</wgt>
  <wgt id="227">7.64524e-12</wgt>
  <wgt id="228">7.7465e-12</wgt>
  <wgt id="229">7.61071e-12</wgt>
  <wgt id="230">7.76754e-12</wgt>
  <wgt id="231">7.96353e-12</wgt>
  <wgt id="232">7.51222e-12</wgt>
  <wgt id="233">7.6693e-12</wgt>
  <wgt id="234">7.79279e-12</wgt>
  <wgt id="235">7.42977e-12</wgt>
  <wgt id="236">7.95091e-12</wgt>
  <wgt id="237">7.54774e-12</wgt>
  <wgt id="238">7.77128e-12</wgt>
  <wgt id="239">7.64732e-12</wgt>
  <wgt id="240">7.83836e-12</wgt>
  <wgt id="241">7.62728e-12</wgt>
  <wgt id="242">7.81945e-12</wgt>
  <wgt id="243">7.83167e-12</wgt>
  <wgt id="244">7.71948e-12</wgt>
  <wgt id="245">7.71253e-12</wgt>
  <wgt id="246">7.75653e-12</wgt>
  <wgt id="247">7.71571e-12</wgt>
  <wgt id="248">7.79427e-12</wgt>
  <wgt id="249">7.76735e-12</wgt>
  <wgt id="250">7.73904e-12</wgt>
  <wgt id="251">7.70083e-12</wgt>
  <wgt id="252">7.68151e-12</wgt>
  <wgt id="253">7.66816e-12</wgt>
  <wgt id="254">7.44625e-12</wgt>
  <wgt id="255">7.45254e-12</wgt>
  <wgt id="256">7.43931e-12</wgt>
  <wgt id="257">7.45257e-12</wgt>
  <wgt id="258">7.44174e-12</wgt>
  <wgt id="259">7.49578e-12</wgt>
  <wgt id="260">7.39856e-12</wgt>
  <wgt id="261">7.45512e-12</wgt>
  <wgt id="262">7.4362e-12</wgt>
  <wgt id="263">7.44157e-12</wgt>
  <wgt id="264">7.45149e-12</wgt>
  <wgt id="265">7.4383e-12</wgt>
  <wgt id="266">7.46194e-12</wgt>
  <wgt id="267">7.4489e-12</wgt>
  <wgt id="268">7.44301e-12</wgt>
  <wgt id="269">7.46704e-12</wgt>
  <wgt id="270">7.43235e-12</wgt>
  <wgt id="271">7.42631e-12</wgt>
  <wgt id="272">7.4687e-12</wgt>
  <wgt id="273">7.42801e-12</wgt>
  <wgt id="274">7.45995e-12</wgt>
  <wgt id="275">7.40417e-12</wgt>
  <wgt id="276">7.49004e-12</wgt>
  <wgt id="277">7.40412e-12</wgt>
  <wgt id="278">7.48534e-12</wgt>
  <wgt id="279">7.31879e-12</wgt>
  <wgt id="280">7.60661e-12</wgt>
  <wgt id="281">7.41461e-12</wgt>
  <wgt id="282">7.45475e-12</wgt>
  <wgt id="283">7.21807e-12</wgt>
  <wgt id="284">7.73031e-12</wgt>
  <wgt id="285">7.06558e-12</wgt>
  <wgt id="286">7.76713e-12</wgt>
  <wgt id="287">7.47196e-12</wgt>
  <wgt id="288">7.4135e-12</wgt>
  <wgt id="289">7.50341e-12</wgt>
  <wgt id="290">7.31994e-12</wgt>
  <wgt id="291">7.41967e-12</wgt>
  <wgt id="292">7.44741e-12</wgt>
  <wgt id="293">7.38424e-12</wgt>
  <wgt id="294">7.50818e-12</wgt>
  <wgt id="295">7.29444e-12</wgt>
  <wgt id="296">7.63191e-12</wgt>
  <wgt id="297">7.43289e-12</wgt>
  <wgt id="298">7.47928e-12</wgt>
  <wgt id="299">7.42217e-12</wgt>
  <wgt id="300">7.50974e-12</wgt>
  <wgt id="301">7.31426e-12</wgt>
  <wgt id="302">7.75501e-12</wgt>
  <wgt id="303">7.37283e-12</wgt>
  <wgt id="304">7.48774e-12</wgt>
  <wgt id="305">7.39323e-12</wgt>
  <wgt id="306">7.39998e-12</wgt>
  <wgt id="307">7.38643e-12</wgt>
  <wgt id="308">7.39995e-12</wgt>
  <wgt id="309">7.3892e-12</wgt>
  <wgt id="310">7.44388e-12</wgt>
  <wgt id="311">7.3471e-12</wgt>
  <wgt id="312">7.40056e-12</wgt>
  <wgt id="313">7.38554e-12</wgt>
  <wgt id="314">7.38868e-12</wgt>
  <wgt id="315">7.39816e-12</wgt>
  <wgt id="316">7.38542e-12</wgt>
  <wgt id="317">7.41029e-12</wgt>
  <wgt id="318">7.39869e-12</wgt>
  <wgt id="319">7.38442e-12</wgt>
  <wgt id="320">7.41558e-12</wgt>
  <wgt id="321">7.38119e-12</wgt>
  <wgt id="322">7.37147e-12</wgt>
  <wgt id="323">7.41942e-12</wgt>
  <wgt id="324">7.38032e-12</wgt>
  <wgt id="325">7.40464e-12</wgt>
  <wgt id="326">7.35852e-12</wgt>
  <wgt id="327">7.43823e-12</wgt>
  <wgt id="328">7.35416e-12</wgt>
  <wgt id="329">7.41546e-12</wgt>
  <wgt id="330">7.59121e-12</wgt>
  <wgt id="331">7.20519e-12</wgt>
  <wgt id="332">7.36711e-12</wgt>
  <wgt id="333">7.39884e-12</wgt>
  <wgt id="334">7.21908e-12</wgt>
  <wgt id="335">7.61169e-12</wgt>
  <wgt id="336">7.12287e-12</wgt>
  <wgt id="337">7.7274e-12</wgt>
  <wgt id="338">7.48145e-12</wgt>
  <wgt id="339">7.31229e-12</wgt>
  <wgt id="340">7.44519e-12</wgt>
  <wgt id="341">7.26598e-12</wgt>
  <wgt id="342">7.37469e-12</wgt>
  <wgt id="343">7.38059e-12</wgt>
  <wgt id="344">7.33888e-12</wgt>
  <wgt id="345">7.45718e-12</wgt>
  <wgt id="346">7.23884e-12</wgt>
  <wgt id="347">7.5708e-12</wgt>
  <wgt id="348">7.38252e-12</wgt>
  <wgt id="349">7.42235e-12</wgt>
  <wgt id="350">7.36359e-12</wgt>
  <wgt id="351">7.46856e-12</wgt>
  <wgt id="352">7.26022e-12</wgt>
  <wgt id="353">7.69505e-12</wgt>
  <wgt id="354">7.28934e-12</wgt>
  <wgt id="355">7.45517e-12</wgt>
  <wgt id="356">7.44625e-12</wgt>
  <wgt id="357">7.40268e-12</wgt>
  <wgt id="358">7.39323e-12</wgt>
  <wgt id="359">7.44935e-12</wgt>
  <wgt id="360">7.5608e-12</wgt>
  <wgt id="361">7.48213e-12</wgt>
  <wgt id="362">7.621e-12</wgt>
  <wgt id="363">7.60297e-12</wgt>
  <wgt id="364">7.56885e-12</wgt>
  <wgt id="365">7.54189e-12</wgt>
  <wgt id="366">7.51456e-12</wgt>
  <wgt id="367">7.46122e-12</wgt>
  <wgt id="368">7.42744e-12</wgt>
  <wgt id="369">7.39112e-12</wgt>
  <wgt id="370">7.48213e-12</wgt>
  <wgt id="371">7.51188e-12</wgt>
  <wgt id="372">7.49481e-12</wgt>
  <wgt id="373">7.47101e-12</wgt>
  <wgt id="374">7.4793e-12</wgt>
  <wgt id="375">8.45319e-12</wgt>
  <wgt id="376">8.45316e-12</wgt>
  <wgt id="377">8.45299e-12</wgt>
  <wgt id="378">8.48477e-12</wgt>
  <wgt id="379">8.42176e-12</wgt>
  <wgt id="380">8.4777e-12</wgt>
  <wgt id="381">8.44315e-12</wgt>
  <wgt id="382">8.48879e-12</wgt>
  <wgt id="383">8.41787e-12</wgt>
  <wgt id="384">8.45841e-12</wgt>
  <wgt id="385">8.44813e-12</wgt>
  <wgt id="386">8.4772e-12</wgt>
  <wgt id="387">8.44269e-12</wgt>
  <wgt id="388">8.44641e-12</wgt>
  <wgt id="389">8.46112e-12</wgt>
  <wgt id="390">8.47093e-12</wgt>
  <wgt id="391">8.43435e-12</wgt>
  <wgt id="392">8.38469e-12</wgt>
  <wgt id="393">8.49171e-12</wgt>
  <wgt id="394">8.45882e-12</wgt>
  <wgt id="395">8.44511e-12</wgt>
  <wgt id="396">8.46582e-12</wgt>
  <wgt id="397">8.44406e-12</wgt>
  <wgt id="398">8.44369e-12</wgt>
  <wgt id="399">8.46207e-12</wgt>
  <wgt id="400">8.44264e-12</wgt>
  <wgt id="401">8.47517e-12</wgt>
  <wgt id="402">8.38123e-12</wgt>
  <wgt id="403">8.497e-12</wgt>
  <wgt id="404">8.68127e-12</wgt>
  <wgt id="405">7.9089e-12</wgt>
  <wgt id="406">8.2867e-12</wgt>
  <wgt id="407">8.82159e-12</wgt>
  <wgt id="408">8.53874e-12</wgt>
  <wgt id="409">8.29361e-12</wgt>
  <wgt id="410">8.18404e-12</wgt>
  <wgt id="411">8.58208e-12</wgt>
  <wgt id="412">8.43414e-12</wgt>
  <wgt id="413">8.47974e-12</wgt>
  <wgt id="414">8.34529e-12</wgt>
  <wgt id="415">8.53643e-12</wgt>
  <wgt id="416">8.72117e-12</wgt>
  <wgt id="417">8.08308e-12</wgt>
  <wgt id="418">8.4699e-12</wgt>
  <wgt id="419">8.36315e-12</wgt>
  <wgt id="420">8.63297e-12</wgt>
  <wgt id="421">8.33291e-12</wgt>
  <wgt id="422">8.40994e-12</wgt>
  <wgt id="423">8.47305e-12</wgt>
  <wgt id="424">8.68068e-12</wgt>
  <wgt id="425">8.29747e-12</wgt>
  <wgt id="426">8.45319e-12</wgt>
  <wgt id="427">8.302e-12</wgt>
  <wgt id="428">8.80115e-12</wgt>
  <wgt id="429">8.55844e-12</wgt>
  <wgt id="430">8.82238e-12</wgt>
  <wgt id="431">8.76939e-12</wgt>
  <wgt id="432">8.72073e-12</wgt>
  <wgt id="433">8.67271e-12</wgt>
  <wgt id="434">8.61145e-12</wgt>
  <wgt id="435">8.49143e-12</wgt>
  <wgt id="436">8.4308e-12</wgt>
  <wgt id="437">8.37155e-12</wgt>
  <wgt id="438">8.55844e-12</wgt>
  <wgt id="439">8.58388e-12</wgt>
  <wgt id="440">8.56783e-12</wgt>
  <wgt id="441">8.55136e-12</wgt>
  <wgt id="442">8.54624e-12</wgt>
  <wgt id="443">7.81716e-12</wgt>
  <wgt id="444">7.89664e-12</wgt>
  <wgt id="445">7.90088e-12</wgt>
  <wgt id="446">7.75666e-12</wgt>
  <wgt id="447">7.82422e-12</wgt>
  <wgt id="448">7.63514e-12</wgt>
  <wgt id="449">7.97098e-12</wgt>
  <wgt id="450">7.92111e-12</wgt>
  <wgt id="451">7.7952e-12</wgt>
  <wgt id="452">7.98048e-12</wgt>
  <wgt id="453">7.90824e-12</wgt>
  <wgt id="454">7.43291e-12</wgt>
  <wgt id="455">7.88038e-12</wgt>
  <wgt id="456">7.95917e-12</wgt>
  <wgt id="457">7.83922e-12</wgt>
  <wgt id="458">7.96042e-12</wgt>
  <wgt id="459">7.88911e-12</wgt>
  <wgt id="460">7.97338e-12</wgt>
  <wgt id="461">7.63663e-12</wgt>
  <wgt id="462">7.76986e-12</wgt>
  <wgt id="463">7.69435e-12</wgt>
  <wgt id="464">7.78183e-12</wgt>
  <wgt id="465">7.89782e-12</wgt>
  <wgt id="466">7.64189e-12</wgt>
  <wgt id="467">7.75798e-12</wgt>
  <wgt id="468">7.81045e-12</wgt>
  <wgt id="469">7.80271e-12</wgt>
  <wgt id="470">7.70007e-12</wgt>
  <wgt id="471">7.72485e-12</wgt>
  <wgt id="472">7.86701e-12</wgt>
  <wgt id="473">7.58008e-12</wgt>
  <wgt id="474">5.79e-12</wgt>
  <wgt id="475">5.7813e-12</wgt>
  <wgt id="476">5.7301e-12</wgt>
  <wgt id="477">5.79078e-12</wgt>
  <wgt id="478">5.86075e-12</wgt>
  <wgt id="479">5.51649e-12</wgt>
  <wgt id="480">6.11651e-12</wgt>
  <wgt id="481">5.85083e-12</wgt>
  <wgt id="482">5.81147e-12</wgt>
  <wgt id="483">5.78467e-12</wgt>
  <wgt id="484">5.9994e-12</wgt>
  <wgt id="485">5.33952e-12</wgt>
  <wgt id="486">6.11665e-12</wgt>
  <wgt id="487">5.665e-12</wgt>
  <wgt id="488">5.86392e-12</wgt>
  <wgt id="489">5.25968e-12</wgt>
  <wgt id="490">5.67838e-12</wgt>
  <wgt id="491">5.73496e-12</wgt>
  <wgt id="492">5.71814e-12</wgt>
  <wgt id="493">5.37021e-12</wgt>
  <wgt id="494">5.41008e-12</wgt>
  <wgt id="495">5.80822e-12</wgt>
  <wgt id="496">5.50807e-12</wgt>
  <wgt id="497">5.42093e-12</wgt>
  <wgt id="498">5.95944e-12</wgt>
  <wgt id="499">5.82993e-12</wgt>
  <wgt id="500">5.69998e-12</wgt>
  <wgt id="501">5.96428e-12</wgt>
  <wgt id="502">6.00821e-12</wgt>
  <wgt id="503">5.71621e-12</wgt>
  <wgt id="504">5.99749e-12</wgt>
  <wgt id="505">5.97611e-12</wgt>
  <wgt id="506">5.49048e-12</wgt>
  <wgt id="507">5.72233e-12</wgt>
  <wgt id="508">6.09518e-12</wgt>
  <wgt id="509">5.5246e-12</wgt>
  <wgt id="510">5.86137e-12</wgt>
  <wgt id="511">5.50545e-12</wgt>
  <wgt id="512">6.15239e-12</wgt>
  <wgt id="513">6.0393e-12</wgt>
  <wgt id="514">6.08481e-12</wgt>
  <wgt id="515">5.92048e-12</wgt>
  <wgt id="516">6.36823e-12</wgt>
  <wgt id="517">5.91436e-12</wgt>
  <wgt id="518">5.98235e-12</wgt>
  <wgt id="519">5.56038e-12</wgt>
  <wgt id="520">5.90563e-12</wgt>
  <wgt id="521">5.67308e-12</wgt>
  <wgt id="522">6.01059e-12</wgt>
  <wgt id="523">5.5125e-12</wgt>
  <wgt id="524">5.86394e-12</wgt>
  <wgt id="525">5.71961e-12</wgt>
  <wgt id="526">6.0604e-12</wgt>
  <wgt id="527">5.69835e-12</wgt>
  <wgt id="528">5.79426e-12</wgt>
  <wgt id="529">5.55659e-12</wgt>
  <wgt id="530">6.07308e-12</wgt>
  <wgt id="531">5.57404e-12</wgt>
  <wgt id="532">6.23252e-12</wgt>
  <wgt id="533">5.76106e-12</wgt>
  <wgt id="534">5.6026e-12</wgt>
  <wgt id="535">5.84546e-12</wgt>
  <wgt id="536">5.95112e-12</wgt>
  <wgt id="537">5.52491e-12</wgt>
  <wgt id="538">5.74005e-12</wgt>
  <wgt id="539">5.67449e-12</wgt>
  <wgt id="540">6.10083e-12</wgt>
  <wgt id="541">5.74833e-12</wgt>
  <wgt id="542">5.70111e-12</wgt>
  <wgt id="543">5.62831e-12</wgt>
  <wgt id="544">5.84057e-12</wgt>
  <wgt id="545">5.49904e-12</wgt>
  <wgt id="546">5.32308e-12</wgt>
  <wgt id="547">5.61653e-12</wgt>
  <wgt id="548">5.58756e-12</wgt>
  <wgt id="549">5.69417e-12</wgt>
  <wgt id="550">5.63478e-12</wgt>
  <wgt id="551">5.81131e-12</wgt>
  <wgt id="552">5.34138e-12</wgt>
  <wgt id="553">5.46583e-12</wgt>
  <wgt id="554">6.07074e-12</wgt>
  <wgt id="555">5.91176e-12</wgt>
  <wgt id="556">5.67838e-12</wgt>
  <wgt id="557">5.92619e-12</wgt>
  <wgt id="558">5.73588e-12</wgt>
  <wgt id="559">5.78516e-12</wgt>
  <wgt id="560">6.37527e-12</wgt>
  <wgt id="561">5.92393e-12</wgt>
  <wgt id="562">6.03054e-12</wgt>
  <wgt id="563">6.37126e-12</wgt>
  <wgt id="564">6.1374e-12</wgt>
  <wgt id="565">5.94929e-12</wgt>
  <wgt id="566">5.66075e-12</wgt>
  <wgt id="567">5.78868e-12</wgt>
  <wgt id="568">5.6012e-12</wgt>
  <wgt id="569">5.89408e-12</wgt>
  <wgt id="570">5.71279e-12</wgt>
  <wgt id="571">6.35006e-12</wgt>
  <wgt id="572">5.63056e-12</wgt>
  <wgt id="573">5.63738e-12</wgt>
  <wgt id="574">5.66098e-12</wgt>
  <wgt id="575">6.36047e-12</wgt>
  <wgt id="576">6.9081e-12</wgt>
  <wgt id="577">6.63678e-12</wgt>
  <wgt id="578">6.49727e-12</wgt>
  <wgt id="579">6.63191e-12</wgt>
  <wgt id="580">6.78449e-12</wgt>
  <wgt id="581">7.01203e-12</wgt>
  <wgt id="582">6.81886e-12</wgt>
  <wgt id="583">6.49595e-12</wgt>
  <wgt id="584">6.28954e-12</wgt>
  <wgt id="585">5.9215e-12</wgt>
  <wgt id="586">6.00606e-12</wgt>
  <wgt id="587">6.50239e-12</wgt>
  <wgt id="588">6.8961e-12</wgt>
  <wgt id="589">6.91509e-12</wgt>
  <wgt id="590">6.30896e-12</wgt>
  <wgt id="591">6.53238e-12</wgt>
  <wgt id="592">5.86414e-12</wgt>
  <wgt id="593">6.16556e-12</wgt>
  <wgt id="594">6.2298e-12</wgt>
  <wgt id="595">6.66075e-12</wgt>
  <wgt id="596">7.44511e-12</wgt>
  <wgt id="597">6.46499e-12</wgt>
  <wgt id="598">6.38476e-12</wgt>
  <wgt id="599">6.7943e-12</wgt>
  <wgt id="600">6.7513e-12</wgt>
  <wgt id="601">6.11138e-12</wgt>
  <wgt id="602">6.15991e-12</wgt>
  <wgt id="603">5.95112e-12</wgt>
  <wgt id="604">6.51489e-12</wgt>
  <wgt id="605">6.41915e-12</wgt>
  <wgt id="606">6.51459e-12</wgt>
  <wgt id="607">6.62595e-12</wgt>
  <wgt id="608">6.61901e-12</wgt>
  <wgt id="609">6.3206e-12</wgt>
  <wgt id="610">6.07448e-12</wgt>
  <wgt id="611">6.03691e-12</wgt>
  <wgt id="612">6.4915e-12</wgt>
  <wgt id="613">6.09087e-12</wgt>
  <wgt id="614">6.32389e-12</wgt>
  <wgt id="615">6.46689e-12</wgt>
  <wgt id="616">6.10962e-12</wgt>
  <wgt id="617">6.62555e-12</wgt>
  <wgt id="618">7.03549e-12</wgt>
  <wgt id="619">6.22361e-12</wgt>
  <wgt id="620">6.59783e-12</wgt>
  <wgt id="621">6.28479e-12</wgt>
  <wgt id="622">6.50239e-12</wgt>
  <wgt id="623">6.40886e-12</wgt>
  <wgt id="624">6.42223e-12</wgt>
  <wgt id="625">6.08108e-12</wgt>
  <wgt id="626">5.6923e-12</wgt>
  <wgt id="627">5.77597e-12</wgt>
  <wgt id="628">6.34437e-12</wgt>
  <wgt id="629">6.46681e-12</wgt>
  <wgt id="630">6.08908e-12</wgt>
  <wgt id="631">6.52198e-12</wgt>
  <wgt id="632">5.81478e-12</wgt>
  <wgt id="633">6.3363e-12</wgt>
  <wgt id="634">6.05075e-12</wgt>
  <wgt id="635">5.83895e-12</wgt>
  <wgt id="636">6.44731e-12</wgt>
  <wgt id="637">6.25629e-12</wgt>
  <wgt id="638">6.07359e-12</wgt>
  <wgt id="639">6.0979e-12</wgt>
  <wgt id="640">6.21672e-12</wgt>
  <wgt id="641">6.67328e-12</wgt>
  <wgt id="642">5.7555e-12</wgt>
  <wgt id="643">6.18687e-12</wgt>
  <wgt id="644">5.68242e-12</wgt>
  <wgt id="645">6.34768e-12</wgt>
  <wgt id="646">5.82085e-12</wgt>
  <wgt id="647">6.44726e-12</wgt>
  <wgt id="648">6.65481e-12</wgt>
  <wgt id="649">6.37215e-12</wgt>
  <wgt id="650">6.0747e-12</wgt>
  <wgt id="651">6.81032e-12</wgt>
  <wgt id="652">6.06995e-12</wgt>
  <wgt id="653">6.07443e-12</wgt>
  <wgt id="654">6.38503e-12</wgt>
  <wgt id="655">6.16409e-12</wgt>
  <wgt id="656">6.41221e-12</wgt>
  <wgt id="657">7.01935e-12</wgt>
  <wgt id="658">6.27859e-12</wgt>
  <wgt id="659">6.10456e-12</wgt>
  <wgt id="660">6.18523e-12</wgt>
  <wgt id="661">6.20582e-12</wgt>
  <wgt id="662">6.28316e-12</wgt>
  <wgt id="663">6.49544e-12</wgt>
  <wgt id="664">6.45379e-12</wgt>
  <wgt id="665">6.30052e-12</wgt>
  <wgt id="666">6.20095e-12</wgt>
  <wgt id="667">6.69192e-12</wgt>
  <wgt id="668">6.28569e-12</wgt>
  <wgt id="669">6.34787e-12</wgt>
  <wgt id="670">6.6794e-12</wgt>
  <wgt id="671">6.45909e-12</wgt>
  <wgt id="672">6.19609e-12</wgt>
  <wgt id="673">6.75788e-12</wgt>
  <wgt id="674">6.16871e-12</wgt>
  <wgt id="675">6.18255e-12</wgt>
  <wgt id="676">8.176e-12</wgt>
  <wgt id="677">8.28561e-12</wgt>
  <wgt id="678">8.90877e-12</wgt>
  <wgt id="679">8.3353e-12</wgt>
  <wgt id="680">8.27102e-12</wgt>
  <wgt id="681">7.99662e-12</wgt>
  <wgt id="682">8.64719e-12</wgt>
  <wgt id="683">7.55303e-12</wgt>
  <wgt id="684">8.57584e-12</wgt>
  <wgt id="685">8.19306e-12</wgt>
  <wgt id="686">8.20711e-12</wgt>
  <wgt id="687">8.34385e-12</wgt>
  <wgt id="688">7.96454e-12</wgt>
  <wgt id="689">8.53938e-12</wgt>
  <wgt id="690">8.31083e-12</wgt>
  <wgt id="691">8.41938e-12</wgt>
  <wgt id="692">7.98342e-12</wgt>
  <wgt id="693">1.06583e-11</wgt>
  <wgt id="694">8.96419e-12</wgt>
  <wgt id="695">7.72884e-12</wgt>
  <wgt id="696">7.91481e-12</wgt>
  <wgt id="697">7.48241e-12</wgt>
  <wgt id="698">6.76912e-12</wgt>
  <wgt id="699">7.00157e-12</wgt>
  <wgt id="700">7.25834e-12</wgt>
  <wgt id="701">8.15504e-12</wgt>
  <wgt id="702">7.95277e-12</wgt>
  <wgt id="703">9.99707e-12</wgt>
  <wgt id="704">9.15409e-12</wgt>
  <wgt id="705">9.18427e-12</wgt>
  <wgt id="706">7.73056e-12</wgt>
  <wgt id="707">7.67716e-12</wgt>
  <wgt id="708">7.79393e-12</wgt>
  <wgt id="709">7.89509e-12</wgt>
  <wgt id="710">6.99526e-12</wgt>
  <wgt id="711">8.62155e-12</wgt>
  <wgt id="712">7.66405e-12</wgt>
  <wgt id="713">8.82548e-12</wgt>
  <wgt id="714">7.36442e-12</wgt>
  <wgt id="715">7.84715e-12</wgt>
  <wgt id="716">7.86133e-12</wgt>
  <wgt id="717">7.18644e-12</wgt>
  <wgt id="718">8.40508e-12</wgt>
  <wgt id="719">7.47111e-12</wgt>
  <wgt id="720">8.34586e-12</wgt>
  <wgt id="721">6.95524e-12</wgt>
  <wgt id="722">6.54315e-12</wgt>
  <wgt id="723">9.13727e-12</wgt>
  <wgt id="724">8.84833e-12</wgt>
  <wgt id="725">8.49001e-12</wgt>
  <wgt id="726">8.10402e-12</wgt>
  <wgt id="727">8.19543e-12</wgt>
  <wgt id="728">7.94473e-12</wgt>
  <wgt id="729">7.60829e-12</wgt>
  <wgt id="730">9.0447e-12</wgt>
  <wgt id="731">8.00541e-12</wgt>
  <wgt id="732">9.43969e-12</wgt>
  <wgt id="733">7.64095e-12</wgt>
  <wgt id="734">8.40895e-12</wgt>
  <wgt id="735">8.24594e-12</wgt>
  <wgt id="736">7.59226e-12</wgt>
  <wgt id="737">7.66892e-12</wgt>
  <wgt id="738">7.79038e-12</wgt>
  <wgt id="739">8.72251e-12</wgt>
  <wgt id="740">9.55007e-12</wgt>
  <wgt id="741">8.47453e-12</wgt>
  <wgt id="742">7.8717e-12</wgt>
  <wgt id="743">7.53304e-12</wgt>
  <wgt id="744">8.01185e-12</wgt>
  <wgt id="745">8.84916e-12</wgt>
  <wgt id="746">9.10376e-12</wgt>
  <wgt id="747">6.80786e-12</wgt>
  <wgt id="748">7.94469e-12</wgt>
  <wgt id="749">8.41927e-12</wgt>
  <wgt id="750">8.87893e-12</wgt>
  <wgt id="751">8.19819e-12</wgt>
  <wgt id="752">7.37179e-12</wgt>
  <wgt id="753">7.36683e-12</wgt>
  <wgt id="754">8.59883e-12</wgt>
  <wgt id="755">7.98622e-12</wgt>
  <wgt id="756">7.9411e-12</wgt>
  <wgt id="757">7.09808e-12</wgt>
  <wgt id="758">7.90897e-12</wgt>
  <wgt id="759">9.08885e-12</wgt>
  <wgt id="760">7.81864e-12</wgt>
  <wgt id="761">8.986e-12</wgt>
  <wgt id="762">9.03115e-12</wgt>
  <wgt id="763">8.3145e-12</wgt>
  <wgt id="764">8.69812e-12</wgt>
  <wgt id="765">8.38026e-12</wgt>
  <wgt id="766">8.26666e-12</wgt>
  <wgt id="767">8.3338e-12</wgt>
  <wgt id="768">7.44515e-12</wgt>
  <wgt id="769">8.59988e-12</wgt>
  <wgt id="770">7.73296e-12</wgt>
  <wgt id="771">9.89311e-12</wgt>
  <wgt id="772">7.99265e-12</wgt>
  <wgt id="773">8.18924e-12</wgt>
  <wgt id="774">6.52261e-12</wgt>
  <wgt id="775">8.57514e-12</wgt>
  <wgt id="776">9.34098e-12</wgt>
  <wgt id="777">7.26832e-12</wgt>
  <wgt id="778">5.42889e-12</wgt>
  <wgt id="779">3.40711e-12</wgt>
  <wgt id="780">2.06584e-12</wgt>
  <wgt id="781">6.26609e-12</wgt>
  <wgt id="782">6.55727e-12</wgt>
  <wgt id="783">3.06524e-12</wgt>
  <wgt id="784">3.8609e-12</wgt>
  <wgt id="785">7.98727e-12</wgt>
  <wgt id="786">3.10833e-12</wgt>
  <wgt id="787">6.97329e-12</wgt>
  <wgt id="788">1.16267e-12</wgt>
  <wgt id="789">3.9297e-12</wgt>
  <wgt id="790">3.12257e-12</wgt>
  <wgt id="791">6.30417e-12</wgt>
  <wgt id="792">7.3764e-12</wgt>
  <wgt id="793">5.14004e-12</wgt>
  <wgt id="794">2.80722e-12</wgt>
  <wgt id="795">7.41977e-12</wgt>
  <wgt id="796">7.76544e-12</wgt>
  <wgt id="797">7.063e-12</wgt>
  <wgt id="798">4.11499e-12</wgt>
  <wgt id="799">6.80048e-12</wgt>
  <wgt id="800">4.23365e-12</wgt>
  <wgt id="801">5.21211e-12</wgt>
  <wgt id="802">2.71833e-12</wgt>
  <wgt id="803">8.64052e-12</wgt>
  <wgt id="804">7.59487e-12</wgt>
  <wgt id="805">7.20068e-12</wgt>
  <wgt id="806">5.98146e-12</wgt>
  <wgt id="807">5.32434e-12</wgt>
  <wgt id="808">5.15611e-12</wgt>
  <wgt id="809">4.94831e-12</wgt>
  <wgt id="810">6.36538e-12</wgt>
  <wgt id="811">5.66389e-12</wgt>
  <wgt id="812">3.172e-12</wgt>
  <wgt id="813">3.42451e-12</wgt>
  <wgt id="814">3.83386e-12</wgt>
  <wgt id="815">3.15415e-12</wgt>
  <wgt id="816">3.52932e-12</wgt>
  <wgt id="817">5.45261e-12</wgt>
  <wgt id="818">7.24179e-12</wgt>
  <wgt id="819">3.34757e-12</wgt>
  <wgt id="820">5.10719e-12</wgt>
  <wgt id="821">6.54276e-12</wgt>
  <wgt id="822">4.35637e-12</wgt>
  <wgt id="823">6.95414e-12</wgt>
  <wgt id="824">8.15482e-12</wgt>
  <wgt id="825">2.57671e-12</wgt>
  <wgt id="826">6.84258e-12</wgt>
  <wgt id="827">2.37609e-12</wgt>
  <wgt id="828">6.99431e-12</wgt>
  <wgt id="829">5.58753e-12</wgt>
  <wgt id="830">2.46803e-12</wgt>
  <wgt id="831">6.4291e-12</wgt>
  <wgt id="832">9.78335e-12</wgt>
  <wgt id="833">4.31312e-12</wgt>
  <wgt id="834">9.59242e-12</wgt>
  <wgt id="835">3.82476e-12</wgt>
  <wgt id="836">4.49283e-12</wgt>
  <wgt id="837">6.40366e-12</wgt>
  <wgt id="838">4.3448e-12</wgt>
  <wgt id="839">6.41161e-12</wgt>
  <wgt id="840">4.61059e-12</wgt>
  <wgt id="841">7.69186e-12</wgt>
  <wgt id="842">5.44124e-12</wgt>
  <wgt id="843">5.92897e-12</wgt>
  <wgt id="844">6.06512e-12</wgt>
  <wgt id="845">9.92834e-12</wgt>
  <wgt id="846">5.53613e-12</wgt>
  <wgt id="847">5.9059e-12</wgt>
  <wgt id="848">3.28302e-12</wgt>
  <wgt id="849">5.94945e-12</wgt>
  <wgt id="850">8.34887e-12</wgt>
  <wgt id="851">6.46008e-12</wgt>
  <wgt id="852">2.78284e-12</wgt>
  <wgt id="853">6.76139e-12</wgt>
  <wgt id="854">7.6487e-12</wgt>
  <wgt id="855">6.64342e-12</wgt>
  <wgt id="856">2.42853e-12</wgt>
  <wgt id="857">4.69946e-12</wgt>
  <wgt id="858">5.09938e-12</wgt>
  <wgt id="859">5.25569e-12</wgt>
  <wgt id="860">7.04467e-12</wgt>
  <wgt id="861">4.4802e-12</wgt>
  <wgt id="862">5.54764e-12</wgt>
  <wgt id="863">6.32714e-12</wgt>
  <wgt id="864">5.6433e-12</wgt>
  <wgt id="865">8.71845e-12</wgt>
  <wgt id="866">9.78367e-12</wgt>
  <wgt id="867">5.51766e-12</wgt>
  <wgt id="868">5.59596e-12</wgt>
  <wgt id="869">3.0665e-12</wgt>
  <wgt id="870">3.67943e-12</wgt>
  <wgt id="871">3.72624e-12</wgt>
  <wgt id="872">7.85802e-12</wgt>
  <wgt id="873">4.30686e-12</wgt>
  <wgt id="874">6.05557e-12</wgt>
  <wgt id="875">4.1896e-12</wgt>
  <wgt id="876">7.48868e-12</wgt>
  <wgt id="877">6.18818e-12</wgt>
  <wgt id="878">4.35147e-12</wgt>
  <wgt id="879">8.176e-12</wgt>
  <wgt id="880">8.28561e-12</wgt>
  <wgt id="881">8.90877e-12</wgt>
  <wgt id="882">8.3353e-12</wgt>
  <wgt id="883">8.27102e-12</wgt>
  <wgt id="884">7.99662e-12</wgt>
  <wgt id="885">8.64719e-12</wgt>
  <wgt id="886">7.55303e-12</wgt>
  <wgt id="887">8.57584e-12</wgt>
  <wgt id="888">8.19306e-12</wgt>
  <wgt id="889">8.20711e-12</wgt>
  <wgt id="890">8.34385e-12</wgt>
  <wgt id="891">7.96454e-12</wgt>
  <wgt id="892">8.53938e-12</wgt>
  <wgt id="893">8.31083e-12</wgt>
  <wgt id="894">8.41938e-12</wgt>
  <wgt id="895">7.98342e-12</wgt>
  <wgt id="896">1.06583e-11</wgt>
  <wgt id="897">8.96419e-12</wgt>
  <wgt id="898">7.72884e-12</wgt>
  <wgt id="899">7.91481e-12</wgt>
  <wgt id="900">7.48241e-12</wgt>
  <wgt id="901">6.76912e-12</wgt>
  <wgt id="902">7.00157e-12</wgt>
  <wgt id="903">7.25834e-12</wgt>
  <wgt id="904">8.15504e-12</wgt>
  <wgt id="905">7.95277e-12</wgt>
  <wgt id="906">9.99707e-12</wgt>
  <wgt id="907">9.15409e-12</wgt>
  <wgt id="908">9.18427e-12</wgt>
  <wgt id="909">7.73056e-12</wgt>
  <wgt id="910">7.67716e-12</wgt>
  <wgt id="911">7.79393e-12</wgt>
  <wgt id="912">7.89509e-12</wgt>
  <wgt id="913">6.99526e-12</wgt>
  <wgt id="914">8.62155e-12</wgt>
  <wgt id="915">7.66405e-12</wgt>
  <wgt id="916">8.82548e-12</wgt>
  <wgt id="917">7.36442e-12</wgt>
  <wgt id="918">7.84715e-12</wgt>
  <wgt id="919">7.86133e-12</wgt>
  <wgt id="920">7.18644e-12</wgt>
  <wgt id="921">8.40508e-12</wgt>
  <wgt id="922">7.47111e-12</wgt>
  <wgt id="923">8.34586e-12</wgt>
  <wgt id="924">6.95524e-12</wgt>
  <wgt id="925">6.54315e-12</wgt>
  <wgt id="926">9.13727e-12</wgt>
  <wgt id="927">8.84833e-12</wgt>
  <wgt id="928">8.49001e-12</wgt>
  <wgt id="929">8.10402e-12</wgt>
  <wgt id="930">8.19543e-12</wgt>
  <wgt id="931">7.94473e-12</wgt>
  <wgt id="932">7.60829e-12</wgt>
  <wgt id="933">9.0447e-12</wgt>
  <wgt id="934">8.00541e-12</wgt>
  <wgt id="935">9.43969e-12</wgt>
  <wgt id="936">7.64095e-12</wgt>
  <wgt id="937">8.40895e-12</wgt>
  <wgt id="938">8.24594e-12</wgt>
  <wgt id="939">7.59226e-12</wgt>
  <wgt id="940">7.66892e-12</wgt>
  <wgt id="941">7.79038e-12</wgt>
  <wgt id="942">8.72251e-12</wgt>
  <wgt id="943">9.55007e-12</wgt>
  <wgt id="944">8.47453e-12</wgt>
  <wgt id="945">7.8717e-12</wgt>
  <wgt id="946">7.53304e-12</wgt>
  <wgt id="947">8.01185e-12</wgt>
  <wgt id="948">8.84916e-12</wgt>
  <wgt id="949">9.10376e-12</wgt>
  <wgt id="950">6.80786e-12</wgt>
  <wgt id="951">7.94469e-12</wgt>
  <wgt id="952">8.41927e-12</wgt>
  <wgt id="953">8.87893e-12</wgt>
  <wgt id="954">8.19819e-12</wgt>
  <wgt id="955">7.37179e-12</wgt>
  <wgt id="956">7.36683e-12</wgt>
  <wgt id="957">8.59883e-12</wgt>
  <wgt id="958">7.98622e-12</wgt>
  <wgt id="959">7.9411e-12</wgt>
  <wgt id="960">7.09808e-12</wgt>
  <wgt id="961">7.90897e-12</wgt>
  <wgt id="962">9.08885e-12</wgt>
  <wgt id="963">7.81864e-12</wgt>
  <wgt id="964">8.986e-12</wgt>
  <wgt id="965">9.03115e-12</wgt>
  <wgt id="966">8.3145e-12</wgt>
  <wgt id="967">8.69812e-12</wgt>
  <wgt id="968">8.38026e-12</wgt>
  <wgt id="969">8.26666e-12</wgt>
  <wgt id="970">8.3338e-12</wgt>
  <wgt id="971">7.44515e-12</wgt>
  <wgt id="972">8.59988e-12</wgt>
  <wgt id="973">7.73296e-12</wgt>
  <wgt id="974">9.89311e-12</wgt>
  <wgt id="975">7.99265e-12</wgt>
  <wgt id="976">8.18924e-12</wgt>
  <wgt id="977">6.52261e-12</wgt>
  <wgt id="978">8.57514e-12</wgt>
  <wgt id="979">9.34098e-12</wgt>
  <wgt id="980">8.11745e-12</wgt>
  <wgt id="981">8.3439e-12</wgt>
  <wgt id="982">7.91992e-12</wgt>
</rwgt>
</event>
<event>
 5   1  0.5790000E-11  0.1906044E+04  0.7818608E-02  0.7869566E-01
       21   -1    0    0  502  501  0.00000000000E+00  0.00000000000E+00  0.47555512552E+03  0.47555512552E+03  0.00000000000E+00 0.  1.
       21   -1    0    0  501  502 -0.00000000000E+00 -0.00000000000E+00 -0.19098759171E+04  0.19098759171E+04  0.00000000000E+00 0. -1.
       39    2    1    2    0    0  0.00000000000E+00  0.00000000000E+00 -0.14343207915E+04  0.23854310426E+04  0.19060443662E+04 0.  0.
       25    1    3    3    0    0  0.36850903698E+03 -0.86925965037E+03 -0.67353618267E+03  0.11664849932E+04  0.12500000000E+03 0.  0.
       25    1    3    3    0    0 -0.36850903698E+03  0.86925965037E+03 -0.76078460887E+03  0.12189460493E+04  0.12500000000E+03 0.  0.
<mgrwt>
<rscale>  0 0.19060444E+04</rscale>
<asrwt>0</asrwt>
<pdfrwt beam="1">  1       21 0.73162327E-01 0.19060444E+04</pdfrwt>
<pdfrwt beam="2">  1       21 0.29382706E+00 0.19060444E+04</pdfrwt>
<totfact> 0.25610562E+01</totfact>
</mgrwt>
<rwgt>
  <wgt id="1">5.79e-12</wgt>
  <wgt id="2">5.05085e-12</wgt>
  <wgt id="3">6.70475e-12</wgt>
  <wgt id="4">5.79e-12</wgt>
  <wgt id="5">5.05085e-12</wgt>
  <wgt id="6">6.70475e-12</wgt>
  <wgt id="7">5.79e-12</wgt>
  <wgt id="8">5.05085e-12</wgt>
  <wgt id="9">6.70475e-12</wgt>
  <wgt id="10">5.99421e-12</wgt>
  <wgt id="11">5.991e-12</wgt>
  <wgt id="12">5.98323e-12</wgt>
  <wgt id="13">5.98149e-12</wgt>
  <wgt id="14">6.01579e-12</wgt>
  <wgt id="15">6.00321e-12</wgt>
  <wgt id="16">5.98433e-12</wgt>
  <wgt id="17">6.017e-12</wgt>
  <wgt id="18">5.98335e-12</wgt>
  <wgt id="19">6.01324e-12</wgt>
  <wgt id="20">5.98927e-12</wgt>
  <wgt id="21">5.94738e-12</wgt>
  <wgt id="22">5.9539e-12</wgt>
  <wgt id="23">5.91228e-12</wgt>
  <wgt id="24">5.95554e-12</wgt>
  <wgt id="25">5.97376e-12</wgt>
  <wgt id="26">6.01261e-12</wgt>
  <wgt id="27">5.98522e-12</wgt>
  <wgt id="28">5.95943e-12</wgt>
  <wgt id="29">5.99696e-12</wgt>
  <wgt id="30">5.95498e-12</wgt>
  <wgt id="31">6.01904e-12</wgt>
  <wgt id="32">5.96427e-12</wgt>
  <wgt id="33">6.00437e-12</wgt>
  <wgt id="34">5.95807e-12</wgt>
  <wgt id="35">5.97178e-12</wgt>
  <wgt id="36">6.02663e-12</wgt>
  <wgt id="37">5.97619e-12</wgt>
  <wgt id="38">5.96777e-12</wgt>
  <wgt id="39">6.08433e-12</wgt>
  <wgt id="40">5.99479e-12</wgt>
  <wgt id="41">5.99335e-12</wgt>
  <wgt id="42">5.99499e-12</wgt>
  <wgt id="43">5.99178e-12</wgt>
  <wgt id="44">6.02651e-12</wgt>
  <wgt id="45">6.00447e-12</wgt>
  <wgt id="46">5.98244e-12</wgt>
  <wgt id="47">6.03611e-12</wgt>
  <wgt id="48">6.01048e-12</wgt>
  <wgt id="49">5.95087e-12</wgt>
  <wgt id="50">5.95707e-12</wgt>
  <wgt id="51">5.97175e-12</wgt>
  <wgt id="52">6.02161e-12</wgt>
  <wgt id="53">6.00787e-12</wgt>
  <wgt id="54">6.01331e-12</wgt>
  <wgt id="55">5.99305e-12</wgt>
  <wgt id="56">5.9927e-12</wgt>
  <wgt id="57">5.9792e-12</wgt>
  <wgt id="58">5.98528e-12</wgt>
  <wgt id="59">5.9936e-12</wgt>
  <wgt id="60">5.97043e-12</wgt>
  <wgt id="61">5.9571e-12</wgt>
  <wgt id="62">5.97529e-12</wgt>
  <wgt id="63">5.98772e-12</wgt>
  <wgt id="64">5.99214e-12</wgt>
  <wgt id="65">5.98413e-12</wgt>
  <wgt id="66">5.99255e-12</wgt>
  <wgt id="67">5.97404e-12</wgt>
  <wgt id="68">5.99361e-12</wgt>
  <wgt id="69">5.98809e-12</wgt>
  <wgt id="70">5.98685e-12</wgt>
  <wgt id="71">5.98832e-12</wgt>
  <wgt id="72">5.96539e-12</wgt>
  <wgt id="73">6.01488e-12</wgt>
  <wgt id="74">6.00758e-12</wgt>
  <wgt id="75">5.9971e-12</wgt>
  <wgt id="76">6.02445e-12</wgt>
  <wgt id="77">5.98675e-12</wgt>
  <wgt id="78">5.98877e-12</wgt>
  <wgt id="79">6.00929e-12</wgt>
  <wgt id="80">5.95446e-12</wgt>
  <wgt id="81">5.99402e-12</wgt>
  <wgt id="82">5.9979e-12</wgt>
  <wgt id="83">5.96526e-12</wgt>
  <wgt id="84">5.98126e-12</wgt>
  <wgt id="85">5.97688e-12</wgt>
  <wgt id="86">6.01102e-12</wgt>
  <wgt id="87">5.95161e-12</wgt>
  <wgt id="88">6.00538e-12</wgt>
  <wgt id="89">6.00041e-12</wgt>
  <wgt id="90">6.01233e-12</wgt>
  <wgt id="91">6.00041e-12</wgt>
  <wgt id="92">6.00684e-12</wgt>
  <wgt id="93">6.00245e-12</wgt>
  <wgt id="94">5.9836e-12</wgt>
  <wgt id="95">6.01301e-12</wgt>
  <wgt id="96">6.00479e-12</wgt>
  <wgt id="97">5.97639e-12</wgt>
  <wgt id="98">5.9946e-12</wgt>
  <wgt id="99">5.98187e-12</wgt>
  <wgt id="100">6.00889e-12</wgt>
  <wgt id="101">5.99262e-12</wgt>
  <wgt id="102">5.98926e-12</wgt>
  <wgt id="103">6.01075e-12</wgt>
  <wgt id="104">5.9848e-12</wgt>
  <wgt id="105">6.0032e-12</wgt>
  <wgt id="106">5.98179e-12</wgt>
  <wgt id="107">6.0223e-12</wgt>
  <wgt id="108">5.98377e-12</wgt>
  <wgt id="109">6.00238e-12</wgt>
  <wgt id="110">5.99096e-12</wgt>
  <wgt id="111">6.00596e-12</wgt>
  <wgt id="112">6.04902e-12</wgt>
  <wgt id="113">8.20362e-12</wgt>
  <wgt id="114">7.92363e-12</wgt>
  <wgt id="115">7.77213e-12</wgt>
  <wgt id="116">1.01462e-11</wgt>
  <wgt id="117">6.468e-12</wgt>
  <wgt id="118">6.48733e-12</wgt>
  <wgt id="119">6.45686e-12</wgt>
  <wgt id="120">6.46851e-12</wgt>
  <wgt id="121">6.46767e-12</wgt>
  <wgt id="122">6.45694e-12</wgt>
  <wgt id="123">6.48316e-12</wgt>
  <wgt id="124">6.45873e-12</wgt>
  <wgt id="125">6.47377e-12</wgt>
  <wgt id="126">6.4752e-12</wgt>
  <wgt id="127">6.46337e-12</wgt>
  <wgt id="128">6.48772e-12</wgt>
  <wgt id="129">6.44844e-12</wgt>
  <wgt id="130">6.49837e-12</wgt>
  <wgt id="131">6.43642e-12</wgt>
  <wgt id="132">6.30276e-12</wgt>
  <wgt id="133">6.66294e-12</wgt>
  <wgt id="134">6.40414e-12</wgt>
  <wgt id="135">6.51774e-12</wgt>
  <wgt id="136">6.55449e-12</wgt>
  <wgt id="137">6.36359e-12</wgt>
  <wgt id="138">6.7268e-12</wgt>
  <wgt id="139">6.21964e-12</wgt>
  <wgt id="140">6.43283e-12</wgt>
  <wgt id="141">6.49454e-12</wgt>
  <wgt id="142">6.46681e-12</wgt>
  <wgt id="143">6.48387e-12</wgt>
  <wgt id="144">6.25523e-12</wgt>
  <wgt id="145">6.66903e-12</wgt>
  <wgt id="146">6.53406e-12</wgt>
  <wgt id="147">6.41428e-12</wgt>
  <wgt id="148">6.48883e-12</wgt>
  <wgt id="149">6.46638e-12</wgt>
  <wgt id="150">6.5197e-12</wgt>
  <wgt id="151">6.44372e-12</wgt>
  <wgt id="152">6.46939e-12</wgt>
  <wgt id="153">6.46737e-12</wgt>
  <wgt id="154">6.49599e-12</wgt>
  <wgt id="155">6.42495e-12</wgt>
  <wgt id="156">6.63158e-12</wgt>
  <wgt id="157">6.30729e-12</wgt>
  <wgt id="158">7.77311e-12</wgt>
  <wgt id="159">7.80611e-12</wgt>
  <wgt id="160">7.74679e-12</wgt>
  <wgt id="161">7.75658e-12</wgt>
  <wgt id="162">7.79152e-12</wgt>
  <wgt id="163">7.76631e-12</wgt>
  <wgt id="164">7.78375e-12</wgt>
  <wgt id="165">7.77651e-12</wgt>
  <wgt id="166">7.77101e-12</wgt>
  <wgt id="167">7.76748e-12</wgt>
  <wgt id="168">7.78119e-12</wgt>
  <wgt id="169">7.73905e-12</wgt>
  <wgt id="170">7.79408e-12</wgt>
  <wgt id="171">7.76875e-12</wgt>
  <wgt id="172">7.77934e-12</wgt>
  <wgt id="173">7.76256e-12</wgt>
  <wgt id="174">7.77693e-12</wgt>
  <wgt id="175">7.5709e-12</wgt>
  <wgt id="176">8.03622e-12</wgt>
  <wgt id="177">7.80554e-12</wgt>
  <wgt id="178">7.74387e-12</wgt>
  <wgt id="179">8.11581e-12</wgt>
  <wgt id="180">7.23808e-12</wgt>
  <wgt id="181">7.54494e-12</wgt>
  <wgt id="182">7.9247e-12</wgt>
  <wgt id="183">7.63445e-12</wgt>
  <wgt id="184">7.84188e-12</wgt>
  <wgt id="185">7.69803e-12</wgt>
  <wgt id="186">7.86245e-12</wgt>
  <wgt id="187">7.6924e-12</wgt>
  <wgt id="188">7.91537e-12</wgt>
  <wgt id="189">7.72042e-12</wgt>
  <wgt id="190">7.79487e-12</wgt>
  <wgt id="191">7.79835e-12</wgt>
  <wgt id="192">7.75847e-12</wgt>
  <wgt id="193">7.88491e-12</wgt>
  <wgt id="194">7.71675e-12</wgt>
  <wgt id="195">7.5615e-12</wgt>
  <wgt id="196">8.13025e-12</wgt>
  <wgt id="197">7.80971e-12</wgt>
  <wgt id="198">7.76421e-12</wgt>
  <wgt id="199">7.77311e-12</wgt>
  <wgt id="200">7.84135e-12</wgt>
  <wgt id="201">7.81808e-12</wgt>
  <wgt id="202">7.795e-12</wgt>
  <wgt id="203">7.76245e-12</wgt>
  <wgt id="204">7.74625e-12</wgt>
  <wgt id="205">7.73203e-12</wgt>
  <wgt id="206">7.63069e-12</wgt>
  <wgt id="207">7.67468e-12</wgt>
  <wgt id="208">7.58689e-12</wgt>
  <wgt id="209">7.64746e-12</wgt>
  <wgt id="210">7.61844e-12</wgt>
  <wgt id="211">7.62924e-12</wgt>
  <wgt id="212">7.63169e-12</wgt>
  <wgt id="213">7.63004e-12</wgt>
  <wgt id="214">7.63169e-12</wgt>
  <wgt id="215">7.63486e-12</wgt>
  <wgt id="216">7.62775e-12</wgt>
  <wgt id="217">7.64644e-12</wgt>
  <wgt id="218">7.61858e-12</wgt>
  <wgt id="219">7.61598e-12</wgt>
  <wgt id="220">7.63939e-12</wgt>
  <wgt id="221">7.63296e-12</wgt>
  <wgt id="222">7.62336e-12</wgt>
  <wgt id="223">7.24179e-12</wgt>
  <wgt id="224">7.98554e-12</wgt>
  <wgt id="225">7.54594e-12</wgt>
  <wgt id="226">7.73797e-12</wgt>
  <wgt id="227">7.56396e-12</wgt>
  <wgt id="228">7.65975e-12</wgt>
  <wgt id="229">7.53174e-12</wgt>
  <wgt id="230">7.67966e-12</wgt>
  <wgt id="231">7.86038e-12</wgt>
  <wgt id="232">7.44193e-12</wgt>
  <wgt id="233">7.58776e-12</wgt>
  <wgt id="234">7.70143e-12</wgt>
  <wgt id="235">7.38997e-12</wgt>
  <wgt id="236">7.83245e-12</wgt>
  <wgt id="237">7.4864e-12</wgt>
  <wgt id="238">7.67865e-12</wgt>
  <wgt id="239">7.57104e-12</wgt>
  <wgt id="240">7.73789e-12</wgt>
  <wgt id="241">7.54965e-12</wgt>
  <wgt id="242">7.72581e-12</wgt>
  <wgt id="243">7.72764e-12</wgt>
  <wgt id="244">7.64114e-12</wgt>
  <wgt id="245">7.62713e-12</wgt>
  <wgt id="246">7.67155e-12</wgt>
  <wgt id="247">7.63069e-12</wgt>
  <wgt id="248">7.70342e-12</wgt>
  <wgt id="249">7.67816e-12</wgt>
  <wgt id="250">7.65214e-12</wgt>
  <wgt id="251">7.61637e-12</wgt>
  <wgt id="252">7.59865e-12</wgt>
  <wgt id="253">7.58619e-12</wgt>
  <wgt id="254">7.38419e-12</wgt>
  <wgt id="255">7.39048e-12</wgt>
  <wgt id="256">7.37757e-12</wgt>
  <wgt id="257">7.39058e-12</wgt>
  <wgt id="258">7.37967e-12</wgt>
  <wgt id="259">7.43271e-12</wgt>
  <wgt id="260">7.33723e-12</wgt>
  <wgt id="261">7.39062e-12</wgt>
  <wgt id="262">7.37672e-12</wgt>
  <wgt id="263">7.38035e-12</wgt>
  <wgt id="264">7.38846e-12</wgt>
  <wgt id="265">7.37706e-12</wgt>
  <wgt id="266">7.398e-12</wgt>
  <wgt id="267">7.38659e-12</wgt>
  <wgt id="268">7.3811e-12</wgt>
  <wgt id="269">7.40315e-12</wgt>
  <wgt id="270">7.3716e-12</wgt>
  <wgt id="271">7.36537e-12</wgt>
  <wgt id="272">7.40526e-12</wgt>
  <wgt id="273">7.36671e-12</wgt>
  <wgt id="274">7.39723e-12</wgt>
  <wgt id="275">7.34612e-12</wgt>
  <wgt id="276">7.42338e-12</wgt>
  <wgt id="277">7.34326e-12</wgt>
  <wgt id="278">7.42232e-12</wgt>
  <wgt id="279">7.26519e-12</wgt>
  <wgt id="280">7.53361e-12</wgt>
  <wgt id="281">7.3555e-12</wgt>
  <wgt id="282">7.39008e-12</wgt>
  <wgt id="283">7.17316e-12</wgt>
  <wgt id="284">7.6457e-12</wgt>
  <wgt id="285">7.02883e-12</wgt>
  <wgt id="286">7.68149e-12</wgt>
  <wgt id="287">7.40858e-12</wgt>
  <wgt id="288">7.35308e-12</wgt>
  <wgt id="289">7.43704e-12</wgt>
  <wgt id="290">7.26576e-12</wgt>
  <wgt id="291">7.36045e-12</wgt>
  <wgt id="292">7.3862e-12</wgt>
  <wgt id="293">7.32627e-12</wgt>
  <wgt id="294">7.4417e-12</wgt>
  <wgt id="295">7.24147e-12</wgt>
  <wgt id="296">7.55824e-12</wgt>
  <wgt id="297">7.37677e-12</wgt>
  <wgt id="298">7.41211e-12</wgt>
  <wgt id="299">7.36159e-12</wgt>
  <wgt id="300">7.44354e-12</wgt>
  <wgt id="301">7.27359e-12</wgt>
  <wgt id="302">7.64944e-12</wgt>
  <wgt id="303">7.32128e-12</wgt>
  <wgt id="304">7.41992e-12</wgt>
  <wgt id="305">7.35349e-12</wgt>
  <wgt id="306">7.35986e-12</wgt>
  <wgt id="307">7.3468e-12</wgt>
  <wgt id="308">7.36022e-12</wgt>
  <wgt id="309">7.34913e-12</wgt>
  <wgt id="310">7.40316e-12</wgt>
  <wgt id="311">7.30759e-12</wgt>
  <wgt id="312">7.35807e-12</wgt>
  <wgt id="313">7.34835e-12</wgt>
  <wgt id="314">7.34962e-12</wgt>
  <wgt id="315">7.3574e-12</wgt>
  <wgt id="316">7.34633e-12</wgt>
  <wgt id="317">7.36822e-12</wgt>
  <wgt id="318">7.35832e-12</wgt>
  <wgt id="319">7.34534e-12</wgt>
  <wgt id="320">7.37366e-12</wgt>
  <wgt id="321">7.34236e-12</wgt>
  <wgt id="322">7.33242e-12</wgt>
  <wgt id="323">7.37843e-12</wgt>
  <wgt id="324">7.34102e-12</wgt>
  <wgt id="325">7.36425e-12</wgt>
  <wgt id="326">7.32214e-12</wgt>
  <wgt id="327">7.39379e-12</wgt>
  <wgt id="328">7.31415e-12</wgt>
  <wgt id="329">7.37613e-12</wgt>
  <wgt id="330">7.54096e-12</wgt>
  <wgt id="331">7.17452e-12</wgt>
  <wgt id="332">7.32951e-12</wgt>
  <wgt id="333">7.35705e-12</wgt>
  <wgt id="334">7.19128e-12</wgt>
  <wgt id="335">7.55594e-12</wgt>
  <wgt id="336">7.09955e-12</wgt>
  <wgt id="337">7.66521e-12</wgt>
  <wgt id="338">7.43668e-12</wgt>
  <wgt id="339">7.2765e-12</wgt>
  <wgt id="340">7.40208e-12</wgt>
  <wgt id="341">7.23302e-12</wgt>
  <wgt id="342">7.33674e-12</wgt>
  <wgt id="343">7.34303e-12</wgt>
  <wgt id="344">7.30224e-12</wgt>
  <wgt id="345">7.41342e-12</wgt>
  <wgt id="346">7.2076e-12</wgt>
  <wgt id="347">7.52071e-12</wgt>
  <wgt id="348">7.34918e-12</wgt>
  <wgt id="349">7.377e-12</wgt>
  <wgt id="350">7.3254e-12</wgt>
  <wgt id="351">7.42421e-12</wgt>
  <wgt id="352">7.24164e-12</wgt>
  <wgt id="353">7.61547e-12</wgt>
  <wgt id="354">7.26392e-12</wgt>
  <wgt id="355">7.40728e-12</wgt>
  <wgt id="356">7.38419e-12</wgt>
  <wgt id="357">7.36854e-12</wgt>
  <wgt id="358">7.35349e-12</wgt>
  <wgt id="359">7.39383e-12</wgt>
  <wgt id="360">7.47629e-12</wgt>
  <wgt id="361">7.41518e-12</wgt>
  <wgt id="362">7.54243e-12</wgt>
  <wgt id="363">7.52585e-12</wgt>
  <wgt id="364">7.49611e-12</wgt>
  <wgt id="365">7.47129e-12</wgt>
  <wgt id="366">7.44549e-12</wgt>
  <wgt id="367">7.39485e-12</wgt>
  <wgt id="368">7.36326e-12</wgt>
  <wgt id="369">7.32936e-12</wgt>
  <wgt id="370">7.41518e-12</wgt>
  <wgt id="371">7.44463e-12</wgt>
  <wgt id="372">7.42797e-12</wgt>
  <wgt id="373">7.40428e-12</wgt>
  <wgt id="374">7.41006e-12</wgt>
  <wgt id="375">8.22947e-12</wgt>
  <wgt id="376">8.22922e-12</wgt>
  <wgt id="377">8.22953e-12</wgt>
  <wgt id="378">8.25951e-12</wgt>
  <wgt id="379">8.19953e-12</wgt>
  <wgt id="380">8.25332e-12</wgt>
  <wgt id="381">8.2195e-12</wgt>
  <wgt id="382">8.26231e-12</wgt>
  <wgt id="383">8.19678e-12</wgt>
  <wgt id="384">8.23436e-12</wgt>
  <wgt id="385">8.22461e-12</wgt>
  <wgt id="386">8.25171e-12</wgt>
  <wgt id="387">8.21964e-12</wgt>
  <wgt id="388">8.22316e-12</wgt>
  <wgt id="389">8.23688e-12</wgt>
  <wgt id="390">8.24616e-12</wgt>
  <wgt id="391">8.21139e-12</wgt>
  <wgt id="392">8.16916e-12</wgt>
  <wgt id="393">8.26339e-12</wgt>
  <wgt id="394">8.23536e-12</wgt>
  <wgt id="395">8.22089e-12</wgt>
  <wgt id="396">8.23899e-12</wgt>
  <wgt id="397">8.22222e-12</wgt>
  <wgt id="398">8.22174e-12</wgt>
  <wgt id="399">8.23666e-12</wgt>
  <wgt id="400">8.221e-12</wgt>
  <wgt id="401">8.24668e-12</wgt>
  <wgt id="402">8.16561e-12</wgt>
  <wgt id="403">8.26525e-12</wgt>
  <wgt id="404">8.43179e-12</wgt>
  <wgt id="405">7.74456e-12</wgt>
  <wgt id="406">8.08048e-12</wgt>
  <wgt id="407">8.55707e-12</wgt>
  <wgt id="408">8.30538e-12</wgt>
  <wgt id="409">8.08708e-12</wgt>
  <wgt id="410">7.98852e-12</wgt>
  <wgt id="411">8.34401e-12</wgt>
  <wgt id="412">8.21239e-12</wgt>
  <wgt id="413">8.25284e-12</wgt>
  <wgt id="414">8.13237e-12</wgt>
  <wgt id="415">8.3042e-12</wgt>
  <wgt id="416">8.46441e-12</wgt>
  <wgt id="417">7.90323e-12</wgt>
  <wgt id="418">8.24415e-12</wgt>
  <wgt id="419">8.14931e-12</wgt>
  <wgt id="420">8.37357e-12</wgt>
  <wgt id="421">8.13469e-12</wgt>
  <wgt id="422">8.19906e-12</wgt>
  <wgt id="423">8.24358e-12</wgt>
  <wgt id="424">8.42004e-12</wgt>
  <wgt id="425">8.09962e-12</wgt>
  <wgt id="426">8.22947e-12</wgt>
  <wgt id="427">8.10925e-12</wgt>
  <wgt id="428">8.51611e-12</wgt>
  <wgt id="429">8.31848e-12</wgt>
  <wgt id="430">8.55443e-12</wgt>
  <wgt id="431">8.50747e-12</wgt>
  <wgt id="432">8.46399e-12</wgt>
  <wgt id="433">8.42087e-12</wgt>
  <wgt id="434">8.36644e-12</wgt>
  <wgt id="435">8.25784e-12</wgt>
  <wgt id="436">8.20244e-12</wgt>
  <wgt id="437">8.14888e-12</wgt>
  <wgt id="438">8.31848e-12</wgt>
  <wgt id="439">8.34322e-12</wgt>
  <wgt id="440">8.32808e-12</wgt>
  <wgt id="441">8.31131e-12</wgt>
  <wgt id="442">8.30589e-12</wgt>
  <wgt id="443">7.75596e-12</wgt>
  <wgt id="444">7.82574e-12</wgt>
  <wgt id="445">7.82321e-12</wgt>
  <wgt id="446">7.69535e-12</wgt>
  <wgt id="447">7.76317e-12</wgt>
  <wgt id="448">7.57959e-12</wgt>
  <wgt id="449">7.89222e-12</wgt>
  <wgt id="450">7.84116e-12</wgt>
  <wgt id="451">7.73599e-12</wgt>
  <wgt id="452">7.91066e-12</wgt>
  <wgt id="453">7.83317e-12</wgt>
  <wgt id="454">7.40832e-12</wgt>
  <wgt id="455">7.8081e-12</wgt>
  <wgt id="456">7.86522e-12</wgt>
  <wgt id="457">7.77577e-12</wgt>
  <wgt id="458">7.89048e-12</wgt>
  <wgt id="459">7.82444e-12</wgt>
  <wgt id="460">7.88945e-12</wgt>
  <wgt id="461">7.5921e-12</wgt>
  <wgt id="462">7.71498e-12</wgt>
  <wgt id="463">7.64375e-12</wgt>
  <wgt id="464">7.7233e-12</wgt>
  <wgt id="465">7.8319e-12</wgt>
  <wgt id="466">7.61061e-12</wgt>
  <wgt id="467">7.69731e-12</wgt>
  <wgt id="468">7.74635e-12</wgt>
  <wgt id="469">7.74632e-12</wgt>
  <wgt id="470">7.6536e-12</wgt>
  <wgt id="471">7.67557e-12</wgt>
  <wgt id="472">7.79744e-12</wgt>
  <wgt id="473">7.54104e-12</wgt>
  <wgt id="474">5.79e-12</wgt>
  <wgt id="475">5.81059e-12</wgt>
  <wgt id="476">5.70221e-12</wgt>
  <wgt id="477">5.69979e-12</wgt>
  <wgt id="478">5.84523e-12</wgt>
  <wgt id="479">5.56437e-12</wgt>
  <wgt id="480">6.10394e-12</wgt>
  <wgt id="481">5.84522e-12</wgt>
  <wgt id="482">5.78855e-12</wgt>
  <wgt id="483">5.72155e-12</wgt>
  <wgt id="484">5.96942e-12</wgt>
  <wgt id="485">5.44324e-12</wgt>
  <wgt id="486">6.11777e-12</wgt>
  <wgt id="487">5.72588e-12</wgt>
  <wgt id="488">5.88649e-12</wgt>
  <wgt id="489">5.36033e-12</wgt>
  <wgt id="490">5.63072e-12</wgt>
  <wgt id="491">5.75859e-12</wgt>
  <wgt id="492">5.72636e-12</wgt>
  <wgt id="493">5.43334e-12</wgt>
  <wgt id="494">5.48863e-12</wgt>
  <wgt id="495">5.80414e-12</wgt>
  <wgt id="496">5.54883e-12</wgt>
  <wgt id="497">5.4629e-12</wgt>
  <wgt id="498">5.95462e-12</wgt>
  <wgt id="499">5.7946e-12</wgt>
  <wgt id="500">5.67707e-12</wgt>
  <wgt id="501">5.93533e-12</wgt>
  <wgt id="502">5.92881e-12</wgt>
  <wgt id="503">5.75825e-12</wgt>
  <wgt id="504">5.98405e-12</wgt>
  <wgt id="505">5.89256e-12</wgt>
  <wgt id="506">5.6263e-12</wgt>
  <wgt id="507">5.77313e-12</wgt>
  <wgt id="508">6.05767e-12</wgt>
  <wgt id="509">5.47176e-12</wgt>
  <wgt id="510">5.89381e-12</wgt>
  <wgt id="511">5.54992e-12</wgt>
  <wgt id="512">6.07411e-12</wgt>
  <wgt id="513">6.02057e-12</wgt>
  <wgt id="514">6.00123e-12</wgt>
  <wgt id="515">5.85582e-12</wgt>
  <wgt id="516">6.26886e-12</wgt>
  <wgt id="517">5.90218e-12</wgt>
  <wgt id="518">5.94881e-12</wgt>
  <wgt id="519">5.57914e-12</wgt>
  <wgt id="520">5.92982e-12</wgt>
  <wgt id="521">5.74534e-12</wgt>
  <wgt id="522">6.00702e-12</wgt>
  <wgt id="523">5.5742e-12</wgt>
  <wgt id="524">5.79411e-12</wgt>
  <wgt id="525">5.81553e-12</wgt>
  <wgt id="526">5.99106e-12</wgt>
  <wgt id="527">5.71532e-12</wgt>
  <wgt id="528">5.82259e-12</wgt>
  <wgt id="529">5.62093e-12</wgt>
  <wgt id="530">6.02643e-12</wgt>
  <wgt id="531">5.62386e-12</wgt>
  <wgt id="532">6.17514e-12</wgt>
  <wgt id="533">5.70489e-12</wgt>
  <wgt id="534">5.67614e-12</wgt>
  <wgt id="535">5.79239e-12</wgt>
  <wgt id="536">5.88018e-12</wgt>
  <wgt id="537">5.60384e-12</wgt>
  <wgt id="538">5.75812e-12</wgt>
  <wgt id="539">5.69521e-12</wgt>
  <wgt id="540">6.0056e-12</wgt>
  <wgt id="541">5.71901e-12</wgt>
  <wgt id="542">5.73993e-12</wgt>
  <wgt id="543">5.69247e-12</wgt>
  <wgt id="544">5.88061e-12</wgt>
  <wgt id="545">5.56208e-12</wgt>
  <wgt id="546">5.3901e-12</wgt>
  <wgt id="547">5.65253e-12</wgt>
  <wgt id="548">5.57648e-12</wgt>
  <wgt id="549">5.70628e-12</wgt>
  <wgt id="550">5.66303e-12</wgt>
  <wgt id="551">5.82618e-12</wgt>
  <wgt id="552">5.41145e-12</wgt>
  <wgt id="553">5.55749e-12</wgt>
  <wgt id="554">6.08499e-12</wgt>
  <wgt id="555">5.90505e-12</wgt>
  <wgt id="556">5.63072e-12</wgt>
  <wgt id="557">5.9399e-12</wgt>
  <wgt id="558">5.72081e-12</wgt>
  <wgt id="559">5.72526e-12</wgt>
  <wgt id="560">6.34235e-12</wgt>
  <wgt id="561">5.86298e-12</wgt>
  <wgt id="562">6.02555e-12</wgt>
  <wgt id="563">6.2351e-12</wgt>
  <wgt id="564">6.08715e-12</wgt>
  <wgt id="565">5.8356e-12</wgt>
  <wgt id="566">5.75611e-12</wgt>
  <wgt id="567">5.77669e-12</wgt>
  <wgt id="568">5.65798e-12</wgt>
  <wgt id="569">5.91888e-12</wgt>
  <wgt id="570">5.59012e-12</wgt>
  <wgt id="571">6.31134e-12</wgt>
  <wgt id="572">5.67648e-12</wgt>
  <wgt id="573">5.63794e-12</wgt>
  <wgt id="574">5.6525e-12</wgt>
  <wgt id="575">6.33729e-12</wgt>
  <wgt id="576">6.74926e-12</wgt>
  <wgt id="577">6.59327e-12</wgt>
  <wgt id="578">6.53079e-12</wgt>
  <wgt id="579">6.59934e-12</wgt>
  <wgt id="580">6.71345e-12</wgt>
  <wgt id="581">6.93609e-12</wgt>
  <wgt id="582">6.71131e-12</wgt>
  <wgt id="583">6.44998e-12</wgt>
  <wgt id="584">6.27932e-12</wgt>
  <wgt id="585">5.99939e-12</wgt>
  <wgt id="586">6.04456e-12</wgt>
  <wgt id="587">6.47814e-12</wgt>
  <wgt id="588">6.68288e-12</wgt>
  <wgt id="589">6.76739e-12</wgt>
  <wgt id="590">6.29781e-12</wgt>
  <wgt id="591">6.51243e-12</wgt>
  <wgt id="592">5.80159e-12</wgt>
  <wgt id="593">6.18067e-12</wgt>
  <wgt id="594">6.28223e-12</wgt>
  <wgt id="595">6.54458e-12</wgt>
  <wgt id="596">7.17742e-12</wgt>
  <wgt id="597">6.39965e-12</wgt>
  <wgt id="598">6.2105e-12</wgt>
  <wgt id="599">6.72013e-12</wgt>
  <wgt id="600">6.57734e-12</wgt>
  <wgt id="601">6.1183e-12</wgt>
  <wgt id="602">6.15485e-12</wgt>
  <wgt id="603">5.99127e-12</wgt>
  <wgt id="604">6.4637e-12</wgt>
  <wgt id="605">6.4397e-12</wgt>
  <wgt id="606">6.47982e-12</wgt>
  <wgt id="607">6.50732e-12</wgt>
  <wgt id="608">6.57261e-12</wgt>
  <wgt id="609">6.27413e-12</wgt>
  <wgt id="610">6.07968e-12</wgt>
  <wgt id="611">6.08176e-12</wgt>
  <wgt id="612">6.49484e-12</wgt>
  <wgt id="613">6.13874e-12</wgt>
  <wgt id="614">6.32848e-12</wgt>
  <wgt id="615">6.38733e-12</wgt>
  <wgt id="616">6.21996e-12</wgt>
  <wgt id="617">6.5808e-12</wgt>
  <wgt id="618">6.97561e-12</wgt>
  <wgt id="619">6.20468e-12</wgt>
  <wgt id="620">6.59598e-12</wgt>
  <wgt id="621">6.28809e-12</wgt>
  <wgt id="622">6.47814e-12</wgt>
  <wgt id="623">6.43587e-12</wgt>
  <wgt id="624">6.40671e-12</wgt>
  <wgt id="625">6.11506e-12</wgt>
  <wgt id="626">5.82385e-12</wgt>
  <wgt id="627">5.85358e-12</wgt>
  <wgt id="628">6.36643e-12</wgt>
  <wgt id="629">6.35816e-12</wgt>
  <wgt id="630">6.04994e-12</wgt>
  <wgt id="631">6.46062e-12</wgt>
  <wgt id="632">5.86198e-12</wgt>
  <wgt id="633">6.32184e-12</wgt>
  <wgt id="634">6.06189e-12</wgt>
  <wgt id="635">5.85471e-12</wgt>
  <wgt id="636">6.43567e-12</wgt>
  <wgt id="637">6.22864e-12</wgt>
  <wgt id="638">6.08384e-12</wgt>
  <wgt id="639">6.13439e-12</wgt>
  <wgt id="640">6.2436e-12</wgt>
  <wgt id="641">6.6008e-12</wgt>
  <wgt id="642">5.85458e-12</wgt>
  <wgt id="643">6.19574e-12</wgt>
  <wgt id="644">5.69148e-12</wgt>
  <wgt id="645">6.33586e-12</wgt>
  <wgt id="646">5.93074e-12</wgt>
  <wgt id="647">6.38192e-12</wgt>
  <wgt id="648">6.56573e-12</wgt>
  <wgt id="649">6.34765e-12</wgt>
  <wgt id="650">6.07707e-12</wgt>
  <wgt id="651">6.71559e-12</wgt>
  <wgt id="652">6.09228e-12</wgt>
  <wgt id="653">6.06195e-12</wgt>
  <wgt id="654">6.27621e-12</wgt>
  <wgt id="655">6.2283e-12</wgt>
  <wgt id="656">6.39404e-12</wgt>
  <wgt id="657">6.94963e-12</wgt>
  <wgt id="658">6.23718e-12</wgt>
  <wgt id="659">6.09726e-12</wgt>
  <wgt id="660">6.25704e-12</wgt>
  <wgt id="661">6.21265e-12</wgt>
  <wgt id="662">6.28829e-12</wgt>
  <wgt id="663">6.45555e-12</wgt>
  <wgt id="664">6.39334e-12</wgt>
  <wgt id="665">6.30817e-12</wgt>
  <wgt id="666">6.19774e-12</wgt>
  <wgt id="667">6.62392e-12</wgt>
  <wgt id="668">6.3024e-12</wgt>
  <wgt id="669">6.36771e-12</wgt>
  <wgt id="670">6.61894e-12</wgt>
  <wgt id="671">6.41881e-12</wgt>
  <wgt id="672">6.13582e-12</wgt>
  <wgt id="673">6.64078e-12</wgt>
  <wgt id="674">6.17086e-12</wgt>
  <wgt id="675">6.23698e-12</wgt>
  <wgt id="676">8.06532e-12</wgt>
  <wgt id="677">8.19009e-12</wgt>
  <wgt id="678">8.65818e-12</wgt>
  <wgt id="679">8.00963e-12</wgt>
  <wgt id="680">8.13628e-12</wgt>
  <wgt id="681">7.96741e-12</wgt>
  <wgt id="682">8.51983e-12</wgt>
  <wgt id="683">7.60835e-12</wgt>
  <wgt id="684">8.3998e-12</wgt>
  <wgt id="685">8.03722e-12</wgt>
  <wgt id="686">7.88493e-12</wgt>
  <wgt id="687">8.20657e-12</wgt>
  <wgt id="688">7.90828e-12</wgt>
  <wgt id="689">8.42657e-12</wgt>
  <wgt id="690">8.17403e-12</wgt>
  <wgt id="691">8.36291e-12</wgt>
  <wgt id="692">7.91244e-12</wgt>
  <wgt id="693">1.01122e-11</wgt>
  <wgt id="694">8.73574e-12</wgt>
  <wgt id="695">7.74545e-12</wgt>
  <wgt id="696">7.88167e-12</wgt>
  <wgt id="697">7.56452e-12</wgt>
  <wgt id="698">6.86261e-12</wgt>
  <wgt id="699">7.06363e-12</wgt>
  <wgt id="700">7.17637e-12</wgt>
  <wgt id="701">8.04372e-12</wgt>
  <wgt id="702">7.96199e-12</wgt>
  <wgt id="703">9.56977e-12</wgt>
  <wgt id="704">8.94123e-12</wgt>
  <wgt id="705">8.94622e-12</wgt>
  <wgt id="706">7.72666e-12</wgt>
  <wgt id="707">7.64169e-12</wgt>
  <wgt id="708">7.75584e-12</wgt>
  <wgt id="709">7.81334e-12</wgt>
  <wgt id="710">7.17768e-12</wgt>
  <wgt id="711">8.27772e-12</wgt>
  <wgt id="712">7.6332e-12</wgt>
  <wgt id="713">8.70306e-12</wgt>
  <wgt id="714">7.41858e-12</wgt>
  <wgt id="715">7.83459e-12</wgt>
  <wgt id="716">7.77493e-12</wgt>
  <wgt id="717">7.28475e-12</wgt>
  <wgt id="718">8.28225e-12</wgt>
  <wgt id="719">7.37645e-12</wgt>
  <wgt id="720">8.08352e-12</wgt>
  <wgt id="721">6.94169e-12</wgt>
  <wgt id="722">6.7162e-12</wgt>
  <wgt id="723">8.85001e-12</wgt>
  <wgt id="724">8.63714e-12</wgt>
  <wgt id="725">8.33788e-12</wgt>
  <wgt id="726">8.00043e-12</wgt>
  <wgt id="727">8.03232e-12</wgt>
  <wgt id="728">7.76971e-12</wgt>
  <wgt id="729">7.71802e-12</wgt>
  <wgt id="730">8.82729e-12</wgt>
  <wgt id="731">7.87294e-12</wgt>
  <wgt id="732">9.13466e-12</wgt>
  <wgt id="733">7.66763e-12</wgt>
  <wgt id="734">8.24019e-12</wgt>
  <wgt id="735">8.19628e-12</wgt>
  <wgt id="736">7.59634e-12</wgt>
  <wgt id="737">7.7912e-12</wgt>
  <wgt id="738">7.71038e-12</wgt>
  <wgt id="739">8.58418e-12</wgt>
  <wgt id="740">9.18295e-12</wgt>
  <wgt id="741">8.04063e-12</wgt>
  <wgt id="742">7.87971e-12</wgt>
  <wgt id="743">7.54835e-12</wgt>
  <wgt id="744">7.9051e-12</wgt>
  <wgt id="745">8.56906e-12</wgt>
  <wgt id="746">8.80291e-12</wgt>
  <wgt id="747">6.86008e-12</wgt>
  <wgt id="748">7.9259e-12</wgt>
  <wgt id="749">8.25438e-12</wgt>
  <wgt id="750">8.71263e-12</wgt>
  <wgt id="751">8.08295e-12</wgt>
  <wgt id="752">7.33143e-12</wgt>
  <wgt id="753">7.39314e-12</wgt>
  <wgt id="754">8.49042e-12</wgt>
  <wgt id="755">7.92591e-12</wgt>
  <wgt id="756">7.89717e-12</wgt>
  <wgt id="757">7.14851e-12</wgt>
  <wgt id="758">7.82783e-12</wgt>
  <wgt id="759">8.96474e-12</wgt>
  <wgt id="760">7.7972e-12</wgt>
  <wgt id="761">8.69537e-12</wgt>
  <wgt id="762">8.74183e-12</wgt>
  <wgt id="763">8.09356e-12</wgt>
  <wgt id="764">8.48342e-12</wgt>
  <wgt id="765">8.30402e-12</wgt>
  <wgt id="766">8.11219e-12</wgt>
  <wgt id="767">8.21026e-12</wgt>
  <wgt id="768">7.42516e-12</wgt>
  <wgt id="769">8.49088e-12</wgt>
  <wgt id="770">7.77e-12</wgt>
  <wgt id="771">9.54508e-12</wgt>
  <wgt id="772">7.87397e-12</wgt>
  <wgt id="773">8.03363e-12</wgt>
  <wgt id="774">6.61121e-12</wgt>
  <wgt id="775">8.44862e-12</wgt>
  <wgt id="776">8.98682e-12</wgt>
  <wgt id="777">7.32239e-12</wgt>
  <wgt id="778">5.5721e-12</wgt>
  <wgt id="779">3.82748e-12</wgt>
  <wgt id="780">2.58149e-12</wgt>
  <wgt id="781">6.4929e-12</wgt>
  <wgt id="782">6.50144e-12</wgt>
  <wgt id="783">3.60165e-12</wgt>
  <wgt id="784">4.25581e-12</wgt>
  <wgt id="785">7.78865e-12</wgt>
  <wgt id="786">3.66725e-12</wgt>
  <wgt id="787">6.85462e-12</wgt>
  <wgt id="788">1.94765e-12</wgt>
  <wgt id="789">4.38316e-12</wgt>
  <wgt id="790">3.59948e-12</wgt>
  <wgt id="791">6.19958e-12</wgt>
  <wgt id="792">7.49023e-12</wgt>
  <wgt id="793">5.4021e-12</wgt>
  <wgt id="794">3.30524e-12</wgt>
  <wgt id="795">7.2151e-12</wgt>
  <wgt id="796">7.76262e-12</wgt>
  <wgt id="797">7.10256e-12</wgt>
  <wgt id="798">4.42946e-12</wgt>
  <wgt id="799">6.66694e-12</wgt>
  <wgt id="800">4.53312e-12</wgt>
  <wgt id="801">5.17651e-12</wgt>
  <wgt id="802">3.24513e-12</wgt>
  <wgt id="803">8.51565e-12</wgt>
  <wgt id="804">7.44719e-12</wgt>
  <wgt id="805">7.03134e-12</wgt>
  <wgt id="806">6.06933e-12</wgt>
  <wgt id="807">5.39357e-12</wgt>
  <wgt id="808">5.24315e-12</wgt>
  <wgt id="809">5.18044e-12</wgt>
  <wgt id="810">6.13581e-12</wgt>
  <wgt id="811">5.81175e-12</wgt>
  <wgt id="812">3.6001e-12</wgt>
  <wgt id="813">3.86155e-12</wgt>
  <wgt id="814">4.23132e-12</wgt>
  <wgt id="815">3.66901e-12</wgt>
  <wgt id="816">3.83813e-12</wgt>
  <wgt id="817">5.56055e-12</wgt>
  <wgt id="818">6.88297e-12</wgt>
  <wgt id="819">3.78721e-12</wgt>
  <wgt id="820">5.32676e-12</wgt>
  <wgt id="821">6.51273e-12</wgt>
  <wgt id="822">4.47143e-12</wgt>
  <wgt id="823">6.86412e-12</wgt>
  <wgt id="824">8.1282e-12</wgt>
  <wgt id="825">3.1555e-12</wgt>
  <wgt id="826">6.64664e-12</wgt>
  <wgt id="827">2.816e-12</wgt>
  <wgt id="828">7.06314e-12</wgt>
  <wgt id="829">5.70984e-12</wgt>
  <wgt id="830">3.02365e-12</wgt>
  <wgt id="831">6.371e-12</wgt>
  <wgt id="832">9.62549e-12</wgt>
  <wgt id="833">4.61318e-12</wgt>
  <wgt id="834">9.36885e-12</wgt>
  <wgt id="835">4.21469e-12</wgt>
  <wgt id="836">4.9052e-12</wgt>
  <wgt id="837">6.41436e-12</wgt>
  <wgt id="838">4.70836e-12</wgt>
  <wgt id="839">6.3267e-12</wgt>
  <wgt id="840">4.8389e-12</wgt>
  <wgt id="841">7.55246e-12</wgt>
  <wgt id="842">5.40882e-12</wgt>
  <wgt id="843">5.99121e-12</wgt>
  <wgt id="844">6.05415e-12</wgt>
  <wgt id="845">9.61943e-12</wgt>
  <wgt id="846">5.85854e-12</wgt>
  <wgt id="847">5.97618e-12</wgt>
  <wgt id="848">3.80401e-12</wgt>
  <wgt id="849">5.93557e-12</wgt>
  <wgt id="850">8.03602e-12</wgt>
  <wgt id="851">6.42021e-12</wgt>
  <wgt id="852">3.44478e-12</wgt>
  <wgt id="853">6.6556e-12</wgt>
  <wgt id="854">7.44412e-12</wgt>
  <wgt id="855">6.56292e-12</wgt>
  <wgt id="856">3.00045e-12</wgt>
  <wgt id="857">5.00755e-12</wgt>
  <wgt id="858">5.18481e-12</wgt>
  <wgt id="859">5.36676e-12</wgt>
  <wgt id="860">6.89084e-12</wgt>
  <wgt id="861">4.73199e-12</wgt>
  <wgt id="862">5.6174e-12</wgt>
  <wgt id="863">6.29137e-12</wgt>
  <wgt id="864">5.83771e-12</wgt>
  <wgt id="865">8.42324e-12</wgt>
  <wgt id="866">9.51729e-12</wgt>
  <wgt id="867">5.66056e-12</wgt>
  <wgt id="868">5.56056e-12</wgt>
  <wgt id="869">3.55225e-12</wgt>
  <wgt id="870">4.00026e-12</wgt>
  <wgt id="871">3.96131e-12</wgt>
  <wgt id="872">7.54172e-12</wgt>
  <wgt id="873">4.55396e-12</wgt>
  <wgt id="874">6.06972e-12</wgt>
  <wgt id="875">4.51423e-12</wgt>
  <wgt id="876">7.2649e-12</wgt>
  <wgt id="877">6.24858e-12</wgt>
  <wgt id="878">4.48421e-12</wgt>
  <wgt id="879">8.06532e-12</wgt>
  <wgt id="880">8.19009e-12</wgt>
  <wgt id="881">8.65818e-12</wgt>
  <wgt id="882">8.00963e-12</wgt>
  <wgt id="883">8.13628e-12</wgt>
  <wgt id="884">7.96741e-12</wgt>
  <wgt id="885">8.51983e-12</wgt>
  <wgt id="886">7.60835e-12</wgt>
  <wgt id="887">8.3998e-12</wgt>
  <wgt id="888">8.03722e-12</wgt>
  <wgt id="889">7.88493e-12</wgt>
  <wgt id="890">8.20657e-12</wgt>
  <wgt id="891">7.90828e-12</wgt>
  <wgt id="892">8.42657e-12</wgt>
  <wgt id="893">8.17403e-12</wgt>
  <wgt id="894">8.36291e-12</wgt>
  <wgt id="895">7.91244e-12</wgt>
  <wgt id="896">1.01122e-11</wgt>
  <wgt id="897">8.73574e-12</wgt>
  <wgt id="898">7.74545e-12</wgt>
  <wgt id="899">7.88167e-12</wgt>
  <wgt id="900">7.56452e-12</wgt>
  <wgt id="901">6.86261e-12</wgt>
  <wgt id="902">7.06363e-12</wgt>
  <wgt id="903">7.17637e-12</wgt>
  <wgt id="904">8.04372e-12</wgt>
  <wgt id="905">7.96199e-12</wgt>
  <wgt id="906">9.56977e-12</wgt>
  <wgt id="907">8.94123e-12</wgt>
  <wgt id="908">8.94622e-12</wgt>
  <wgt id="909">7.72666e-12</wgt>
  <wgt id="910">7.64169e-12</wgt>
  <wgt id="911">7.75584e-12</wgt>
  <wgt id="912">7.81334e-12</wgt>
  <wgt id="913">7.17768e-12</wgt>
  <wgt id="914">8.27772e-12</wgt>
  <wgt id="915">7.6332e-12</wgt>
  <wgt id="916">8.70306e-12</wgt>
  <wgt id="917">7.41858e-12</wgt>
  <wgt id="918">7.83459e-12</wgt>
  <wgt id="919">7.77493e-12</wgt>
  <wgt id="920">7.28475e-12</wgt>
  <wgt id="921">8.28225e-12</wgt>
  <wgt id="922">7.37645e-12</wgt>
  <wgt id="923">8.08352e-12</wgt>
  <wgt id="924">6.94169e-12</wgt>
  <wgt id="925">6.7162e-12</wgt>
  <wgt id="926">8.85001e-12</wgt>
  <wgt id="927">8.63714e-12</wgt>
  <wgt id="928">8.33788e-12</wgt>
  <wgt id="929">8.00043e-12</wgt>
  <wgt id="930">8.03232e-12</wgt>
  <wgt id="931">7.76971e-12</wgt>
  <wgt id="932">7.71802e-12</wgt>
  <wgt id="933">8.82729e-12</wgt>
  <wgt id="934">7.87294e-12</wgt>
  <wgt id="935">9.13466e-12</wgt>
  <wgt id="936">7.66763e-12</wgt>
  <wgt id="937">8.24019e-12</wgt>
  <wgt id="938">8.19628e-12</wgt>
  <wgt id="939">7.59634e-12</wgt>
  <wgt id="940">7.7912e-12</wgt>
  <wgt id="941">7.71038e-12</wgt>
  <wgt id="942">8.58418e-12</wgt>
  <wgt id="943">9.18295e-12</wgt>
  <wgt id="944">8.04063e-12</wgt>
  <wgt id="945">7.87971e-12</wgt>
  <wgt id="946">7.54835e-12</wgt>
  <wgt id="947">7.9051e-12</wgt>
  <wgt id="948">8.56906e-12</wgt>
  <wgt id="949">8.80291e-12</wgt>
  <wgt id="950">6.86008e-12</wgt>
  <wgt id="951">7.9259e-12</wgt>
  <wgt id="952">8.25438e-12</wgt>
  <wgt id="953">8.71263e-12</wgt>
  <wgt id="954">8.08295e-12</wgt>
  <wgt id="955">7.33143e-12</wgt>
  <wgt id="956">7.39314e-12</wgt>
  <wgt id="957">8.49042e-12</wgt>
  <wgt id="958">7.92591e-12</wgt>
  <wgt id="959">7.89717e-12</wgt>
  <wgt id="960">7.14851e-12</wgt>
  <wgt id="961">7.82783e-12</wgt>
  <wgt id="962">8.96474e-12</wgt>
  <wgt id="963">7.7972e-12</wgt>
  <wgt id="964">8.69537e-12</wgt>
  <wgt id="965">8.74183e-12</wgt>
  <wgt id="966">8.09356e-12</wgt>
  <wgt id="967">8.48342e-12</wgt>
  <wgt id="968">8.30402e-12</wgt>
  <wgt id="969">8.11219e-12</wgt>
  <wgt id="970">8.21026e-12</wgt>
  <wgt id="971">7.42516e-12</wgt>
  <wgt id="972">8.49088e-12</wgt>
  <wgt id="973">7.77e-12</wgt>
  <wgt id="974">9.54508e-12</wgt>
  <wgt id="975">7.87397e-12</wgt>
  <wgt id="976">8.03363e-12</wgt>
  <wgt id="977">6.61121e-12</wgt>
  <wgt id="978">8.44862e-12</wgt>
  <wgt id="979">8.98682e-12</wgt>
  <wgt id="980">8.01673e-12</wgt>
  <wgt id="981">8.1856e-12</wgt>
  <wgt id="982">7.80953e-12</wgt>
</rwgt>
</event>
<event>
 5   1  0.5790000E-11  0.1813522E+04  0.7818608E-02  0.7912317E-01
       21   -1    0    0  502  501  0.00000000000E+00  0.00000000000E+00  0.11194145492E+04  0.11194145492E+04  0.00000000000E+00 0.  1.
       21   -1    0    0  501  502 -0.00000000000E+00 -0.00000000000E+00 -0.73450529850E+03  0.73450529850E+03  0.00000000000E+00 0. -1.
       39    2    1    2    0    0  0.00000000000E+00  0.00000000000E+00  0.38490925066E+03  0.18539198477E+04  0.18135224483E+04 0.  0.
       25    1    3    3    0    0  0.44233804361E+03  0.76139258195E+03  0.11857807285E+02  0.88946456718E+03  0.12500000000E+03 0.  0.
       25    1    3    3    0    0 -0.44233804361E+03 -0.76139258195E+03  0.37305144338E+03  0.96445528049E+03  0.12500000000E+03 0.  0.
<mgrwt>
<rscale>  0 0.18135224E+04</rscale>
<asrwt>0</asrwt>
<pdfrwt beam="1">  1       21 0.17221762E+00 0.18135224E+04</pdfrwt>
<pdfrwt beam="2">  1       21 0.11300081E+00 0.18135224E+04</pdfrwt>
<totfact> 0.63251226E+01</totfact>
</mgrwt>
<rwgt>
  <wgt id="1">5.79e-12</wgt>
  <wgt id="2">5.10353e-12</wgt>
  <wgt id="3">6.6308e-12</wgt>
  <wgt id="4">5.79e-12</wgt>
  <wgt id="5">5.10353e-12</wgt>
  <wgt id="6">6.6308e-12</wgt>
  <wgt id="7">5.79e-12</wgt>
  <wgt id="8">5.10353e-12</wgt>
  <wgt id="9">6.6308e-12</wgt>
  <wgt id="10">5.87442e-12</wgt>
  <wgt id="11">5.87001e-12</wgt>
  <wgt id="12">5.86554e-12</wgt>
  <wgt id="13">5.85627e-12</wgt>
  <wgt id="14">5.89395e-12</wgt>
  <wgt id="15">5.88259e-12</wgt>
  <wgt id="16">5.86194e-12</wgt>
  <wgt id="17">5.88737e-12</wgt>
  <wgt id="18">5.87198e-12</wgt>
  <wgt id="19">5.88341e-12</wgt>
  <wgt id="20">5.85996e-12</wgt>
  <wgt id="21">5.84498e-12</wgt>
  <wgt id="22">5.85614e-12</wgt>
  <wgt id="23">5.82638e-12</wgt>
  <wgt id="24">5.84709e-12</wgt>
  <wgt id="25">5.85851e-12</wgt>
  <wgt id="26">5.89434e-12</wgt>
  <wgt id="27">5.87165e-12</wgt>
  <wgt id="28">5.84421e-12</wgt>
  <wgt id="29">5.88068e-12</wgt>
  <wgt id="30">5.85138e-12</wgt>
  <wgt id="31">5.89212e-12</wgt>
  <wgt id="32">5.85165e-12</wgt>
  <wgt id="33">5.88163e-12</wgt>
  <wgt id="34">5.85657e-12</wgt>
  <wgt id="35">5.85618e-12</wgt>
  <wgt id="36">5.88007e-12</wgt>
  <wgt id="37">5.85964e-12</wgt>
  <wgt id="38">5.86534e-12</wgt>
  <wgt id="39">5.93793e-12</wgt>
  <wgt id="40">5.88875e-12</wgt>
  <wgt id="41">5.87254e-12</wgt>
  <wgt id="42">5.89871e-12</wgt>
  <wgt id="43">5.88411e-12</wgt>
  <wgt id="44">5.85176e-12</wgt>
  <wgt id="45">5.8752e-12</wgt>
  <wgt id="46">5.8724e-12</wgt>
  <wgt id="47">5.8563e-12</wgt>
  <wgt id="48">5.87565e-12</wgt>
  <wgt id="49">5.89983e-12</wgt>
  <wgt id="50">5.90241e-12</wgt>
  <wgt id="51">5.88578e-12</wgt>
  <wgt id="52">5.84173e-12</wgt>
  <wgt id="53">5.85932e-12</wgt>
  <wgt id="54">5.87031e-12</wgt>
  <wgt id="55">5.87106e-12</wgt>
  <wgt id="56">5.89091e-12</wgt>
  <wgt id="57">5.89364e-12</wgt>
  <wgt id="58">5.84398e-12</wgt>
  <wgt id="59">5.86144e-12</wgt>
  <wgt id="60">5.87882e-12</wgt>
  <wgt id="61">5.87646e-12</wgt>
  <wgt id="62">5.87293e-12</wgt>
  <wgt id="63">5.88049e-12</wgt>
  <wgt id="64">5.88054e-12</wgt>
  <wgt id="65">5.87938e-12</wgt>
  <wgt id="66">5.8702e-12</wgt>
  <wgt id="67">5.86943e-12</wgt>
  <wgt id="68">5.87076e-12</wgt>
  <wgt id="69">5.87241e-12</wgt>
  <wgt id="70">5.87342e-12</wgt>
  <wgt id="71">5.87028e-12</wgt>
  <wgt id="72">5.86912e-12</wgt>
  <wgt id="73">5.87754e-12</wgt>
  <wgt id="74">5.87418e-12</wgt>
  <wgt id="75">5.87562e-12</wgt>
  <wgt id="76">5.88269e-12</wgt>
  <wgt id="77">5.87399e-12</wgt>
  <wgt id="78">5.87691e-12</wgt>
  <wgt id="79">5.88139e-12</wgt>
  <wgt id="80">5.85909e-12</wgt>
  <wgt id="81">5.868e-12</wgt>
  <wgt id="82">5.87453e-12</wgt>
  <wgt id="83">5.86171e-12</wgt>
  <wgt id="84">5.86719e-12</wgt>
  <wgt id="85">5.86857e-12</wgt>
  <wgt id="86">5.88161e-12</wgt>
  <wgt id="87">5.85767e-12</wgt>
  <wgt id="88">5.8779e-12</wgt>
  <wgt id="89">5.87803e-12</wgt>
  <wgt id="90">5.87873e-12</wgt>
  <wgt id="91">5.87774e-12</wgt>
  <wgt id="92">5.88161e-12</wgt>
  <wgt id="93">5.87379e-12</wgt>
  <wgt id="94">5.87196e-12</wgt>
  <wgt id="95">5.87608e-12</wgt>
  <wgt id="96">5.87627e-12</wgt>
  <wgt id="97">5.86976e-12</wgt>
  <wgt id="98">5.87659e-12</wgt>
  <wgt id="99">5.87249e-12</wgt>
  <wgt id="100">5.87757e-12</wgt>
  <wgt id="101">5.87381e-12</wgt>
  <wgt id="102">5.87112e-12</wgt>
  <wgt id="103">5.87881e-12</wgt>
  <wgt id="104">5.87192e-12</wgt>
  <wgt id="105">5.87794e-12</wgt>
  <wgt id="106">5.86999e-12</wgt>
  <wgt id="107">5.88396e-12</wgt>
  <wgt id="108">5.87107e-12</wgt>
  <wgt id="109">5.87585e-12</wgt>
  <wgt id="110">5.87352e-12</wgt>
  <wgt id="111">5.95438e-12</wgt>
  <wgt id="112">5.85297e-12</wgt>
  <wgt id="113">7.39909e-12</wgt>
  <wgt id="114">7.76863e-12</wgt>
  <wgt id="115">7.65886e-12</wgt>
  <wgt id="116">9.77758e-12</wgt>
  <wgt id="117">6.27403e-12</wgt>
  <wgt id="118">6.28982e-12</wgt>
  <wgt id="119">6.26516e-12</wgt>
  <wgt id="120">6.27517e-12</wgt>
  <wgt id="121">6.27345e-12</wgt>
  <wgt id="122">6.26219e-12</wgt>
  <wgt id="123">6.2904e-12</wgt>
  <wgt id="124">6.26444e-12</wgt>
  <wgt id="125">6.28028e-12</wgt>
  <wgt id="126">6.28191e-12</wgt>
  <wgt id="127">6.26895e-12</wgt>
  <wgt id="128">6.2937e-12</wgt>
  <wgt id="129">6.25465e-12</wgt>
  <wgt id="130">6.30794e-12</wgt>
  <wgt id="131">6.23925e-12</wgt>
  <wgt id="132">6.12941e-12</wgt>
  <wgt id="133">6.44231e-12</wgt>
  <wgt id="134">6.2171e-12</wgt>
  <wgt id="135">6.3182e-12</wgt>
  <wgt id="136">6.33852e-12</wgt>
  <wgt id="137">6.19579e-12</wgt>
  <wgt id="138">6.4711e-12</wgt>
  <wgt id="139">6.08046e-12</wgt>
  <wgt id="140">6.22926e-12</wgt>
  <wgt id="141">6.3094e-12</wgt>
  <wgt id="142">6.27514e-12</wgt>
  <wgt id="143">6.27931e-12</wgt>
  <wgt id="144">6.1728e-12</wgt>
  <wgt id="145">6.36261e-12</wgt>
  <wgt id="146">6.30483e-12</wgt>
  <wgt id="147">6.25126e-12</wgt>
  <wgt id="148">6.28884e-12</wgt>
  <wgt id="149">6.27312e-12</wgt>
  <wgt id="150">6.32257e-12</wgt>
  <wgt id="151">6.25149e-12</wgt>
  <wgt id="152">6.27549e-12</wgt>
  <wgt id="153">6.27369e-12</wgt>
  <wgt id="154">6.33839e-12</wgt>
  <wgt id="155">6.20035e-12</wgt>
  <wgt id="156">6.33104e-12</wgt>
  <wgt id="157">6.19379e-12</wgt>
  <wgt id="158">7.56111e-12</wgt>
  <wgt id="159">7.59192e-12</wgt>
  <wgt id="160">7.53593e-12</wgt>
  <wgt id="161">7.5467e-12</wgt>
  <wgt id="162">7.57694e-12</wgt>
  <wgt id="163">7.55495e-12</wgt>
  <wgt id="164">7.57035e-12</wgt>
  <wgt id="165">7.5645e-12</wgt>
  <wgt id="166">7.55875e-12</wgt>
  <wgt id="167">7.55542e-12</wgt>
  <wgt id="168">7.56903e-12</wgt>
  <wgt id="169">7.52776e-12</wgt>
  <wgt id="170">7.58174e-12</wgt>
  <wgt id="171">7.55497e-12</wgt>
  <wgt id="172">7.56959e-12</wgt>
  <wgt id="173">7.56495e-12</wgt>
  <wgt id="174">7.55946e-12</wgt>
  <wgt id="175">7.38041e-12</wgt>
  <wgt id="176">7.7939e-12</wgt>
  <wgt id="177">7.5923e-12</wgt>
  <wgt id="178">7.53166e-12</wgt>
  <wgt id="179">7.80983e-12</wgt>
  <wgt id="180">7.16147e-12</wgt>
  <wgt id="181">7.38367e-12</wgt>
  <wgt id="182">7.67744e-12</wgt>
  <wgt id="183">7.45157e-12</wgt>
  <wgt id="184">7.61512e-12</wgt>
  <wgt id="185">7.50974e-12</wgt>
  <wgt id="186">7.61742e-12</wgt>
  <wgt id="187">7.50135e-12</wgt>
  <wgt id="188">7.6676e-12</wgt>
  <wgt id="189">7.52344e-12</wgt>
  <wgt id="190">7.57635e-12</wgt>
  <wgt id="191">7.57721e-12</wgt>
  <wgt id="192">7.55154e-12</wgt>
  <wgt id="193">7.64348e-12</wgt>
  <wgt id="194">7.52012e-12</wgt>
  <wgt id="195">7.4799e-12</wgt>
  <wgt id="196">7.7579e-12</wgt>
  <wgt id="197">7.59176e-12</wgt>
  <wgt id="198">7.5536e-12</wgt>
  <wgt id="199">7.56111e-12</wgt>
  <wgt id="200">7.61604e-12</wgt>
  <wgt id="201">7.59507e-12</wgt>
  <wgt id="202">7.57523e-12</wgt>
  <wgt id="203">7.54433e-12</wgt>
  <wgt id="204">7.53026e-12</wgt>
  <wgt id="205">7.51802e-12</wgt>
  <wgt id="206">7.44064e-12</wgt>
  <wgt id="207">7.48224e-12</wgt>
  <wgt id="208">7.39937e-12</wgt>
  <wgt id="209">7.45437e-12</wgt>
  <wgt id="210">7.43062e-12</wgt>
  <wgt id="211">7.43958e-12</wgt>
  <wgt id="212">7.44115e-12</wgt>
  <wgt id="213">7.43974e-12</wgt>
  <wgt id="214">7.44134e-12</wgt>
  <wgt id="215">7.4438e-12</wgt>
  <wgt id="216">7.43831e-12</wgt>
  <wgt id="217">7.45813e-12</wgt>
  <wgt id="218">7.42695e-12</wgt>
  <wgt id="219">7.42664e-12</wgt>
  <wgt id="220">7.44887e-12</wgt>
  <wgt id="221">7.43695e-12</wgt>
  <wgt id="222">7.44916e-12</wgt>
  <wgt id="223">7.10634e-12</wgt>
  <wgt id="224">7.74208e-12</wgt>
  <wgt id="225">7.36931e-12</wgt>
  <wgt id="226">7.52913e-12</wgt>
  <wgt id="227">7.38108e-12</wgt>
  <wgt id="228">7.46669e-12</wgt>
  <wgt id="229">7.35151e-12</wgt>
  <wgt id="230">7.48441e-12</wgt>
  <wgt id="231">7.61787e-12</wgt>
  <wgt id="232">7.29343e-12</wgt>
  <wgt id="233">7.40944e-12</wgt>
  <wgt id="234">7.48486e-12</wgt>
  <wgt id="235">7.38025e-12</wgt>
  <wgt id="236">7.52014e-12</wgt>
  <wgt id="237">7.38456e-12</wgt>
  <wgt id="238">7.46046e-12</wgt>
  <wgt id="239">7.41349e-12</wgt>
  <wgt id="240">7.49108e-12</wgt>
  <wgt id="241">7.38107e-12</wgt>
  <wgt id="242">7.51126e-12</wgt>
  <wgt id="243">7.46798e-12</wgt>
  <wgt id="244">7.50747e-12</wgt>
  <wgt id="245">7.43219e-12</wgt>
  <wgt id="246">7.50297e-12</wgt>
  <wgt id="247">7.44064e-12</wgt>
  <wgt id="248">7.49584e-12</wgt>
  <wgt id="249">7.47432e-12</wgt>
  <wgt id="250">7.45438e-12</wgt>
  <wgt id="251">7.4236e-12</wgt>
  <wgt id="252">7.40978e-12</wgt>
  <wgt id="253">7.39886e-12</wgt>
  <wgt id="254">7.27843e-12</wgt>
  <wgt id="255">7.28522e-12</wgt>
  <wgt id="256">7.27131e-12</wgt>
  <wgt id="257">7.28478e-12</wgt>
  <wgt id="258">7.27379e-12</wgt>
  <wgt id="259">7.32588e-12</wgt>
  <wgt id="260">7.23263e-12</wgt>
  <wgt id="261">7.28103e-12</wgt>
  <wgt id="262">7.27582e-12</wgt>
  <wgt id="263">7.27724e-12</wgt>
  <wgt id="264">7.27977e-12</wgt>
  <wgt id="265">7.27299e-12</wgt>
  <wgt id="266">7.28933e-12</wgt>
  <wgt id="267">7.28022e-12</wgt>
  <wgt id="268">7.27603e-12</wgt>
  <wgt id="269">7.29496e-12</wgt>
  <wgt id="270">7.26736e-12</wgt>
  <wgt id="271">7.2668e-12</wgt>
  <wgt id="272">7.29145e-12</wgt>
  <wgt id="273">7.25962e-12</wgt>
  <wgt id="274">7.29299e-12</wgt>
  <wgt id="275">7.25676e-12</wgt>
  <wgt id="276">7.30087e-12</wgt>
  <wgt id="277">7.2427e-12</wgt>
  <wgt id="278">7.31179e-12</wgt>
  <wgt id="279">7.16465e-12</wgt>
  <wgt id="280">7.42039e-12</wgt>
  <wgt id="281">7.25443e-12</wgt>
  <wgt id="282">7.27697e-12</wgt>
  <wgt id="283">7.11243e-12</wgt>
  <wgt id="284">7.48082e-12</wgt>
  <wgt id="285">6.9963e-12</wgt>
  <wgt id="286">7.50737e-12</wgt>
  <wgt id="287">7.29721e-12</wgt>
  <wgt id="288">7.25423e-12</wgt>
  <wgt id="289">7.31908e-12</wgt>
  <wgt id="290">7.17969e-12</wgt>
  <wgt id="291">7.26628e-12</wgt>
  <wgt id="292">7.28179e-12</wgt>
  <wgt id="293">7.23378e-12</wgt>
  <wgt id="294">7.32259e-12</wgt>
  <wgt id="295">7.16491e-12</wgt>
  <wgt id="296">7.41611e-12</wgt>
  <wgt id="297">7.28985e-12</wgt>
  <wgt id="298">7.29143e-12</wgt>
  <wgt id="299">7.26029e-12</wgt>
  <wgt id="300">7.32583e-12</wgt>
  <wgt id="301">7.2451e-12</wgt>
  <wgt id="302">7.41275e-12</wgt>
  <wgt id="303">7.25247e-12</wgt>
  <wgt id="304">7.29469e-12</wgt>
  <wgt id="305">7.34131e-12</wgt>
  <wgt id="306">7.34847e-12</wgt>
  <wgt id="307">7.33348e-12</wgt>
  <wgt id="308">7.34837e-12</wgt>
  <wgt id="309">7.33665e-12</wgt>
  <wgt id="310">7.39097e-12</wgt>
  <wgt id="311">7.29524e-12</wgt>
  <wgt id="312">7.3409e-12</wgt>
  <wgt id="313">7.34225e-12</wgt>
  <wgt id="314">7.33979e-12</wgt>
  <wgt id="315">7.34244e-12</wgt>
  <wgt id="316">7.33637e-12</wgt>
  <wgt id="317">7.35227e-12</wgt>
  <wgt id="318">7.34484e-12</wgt>
  <wgt id="319">7.33503e-12</wgt>
  <wgt id="320">7.35799e-12</wgt>
  <wgt id="321">7.33191e-12</wgt>
  <wgt id="322">7.32534e-12</wgt>
  <wgt id="323">7.3598e-12</wgt>
  <wgt id="324">7.32581e-12</wgt>
  <wgt id="325">7.35467e-12</wgt>
  <wgt id="326">7.32345e-12</wgt>
  <wgt id="327">7.36383e-12</wgt>
  <wgt id="328">7.30677e-12</wgt>
  <wgt id="329">7.36156e-12</wgt>
  <wgt id="330">7.52414e-12</wgt>
  <wgt id="331">7.16556e-12</wgt>
  <wgt id="332">7.32178e-12</wgt>
  <wgt id="333">7.33916e-12</wgt>
  <wgt id="334">7.20909e-12</wgt>
  <wgt id="335">7.50376e-12</wgt>
  <wgt id="336">7.1342e-12</wgt>
  <wgt id="337">7.58864e-12</wgt>
  <wgt id="338">7.40783e-12</wgt>
  <wgt id="339">7.27886e-12</wgt>
  <wgt id="340">7.38066e-12</wgt>
  <wgt id="341">7.23642e-12</wgt>
  <wgt id="342">7.33404e-12</wgt>
  <wgt id="343">7.33603e-12</wgt>
  <wgt id="344">7.29982e-12</wgt>
  <wgt id="345">7.38919e-12</wgt>
  <wgt id="346">7.22276e-12</wgt>
  <wgt id="347">7.4773e-12</wgt>
  <wgt id="348">7.35797e-12</wgt>
  <wgt id="349">7.34828e-12</wgt>
  <wgt id="350">7.31788e-12</wgt>
  <wgt id="351">7.40058e-12</wgt>
  <wgt id="352">7.30251e-12</wgt>
  <wgt id="353">7.48899e-12</wgt>
  <wgt id="354">7.30045e-12</wgt>
  <wgt id="355">7.369e-12</wgt>
  <wgt id="356">7.27843e-12</wgt>
  <wgt id="357">7.38271e-12</wgt>
  <wgt id="358">7.34131e-12</wgt>
  <wgt id="359">7.31535e-12</wgt>
  <wgt id="360">7.2857e-12</wgt>
  <wgt id="361">7.29152e-12</wgt>
  <wgt id="362">7.39072e-12</wgt>
  <wgt id="363">7.37668e-12</wgt>
  <wgt id="364">7.35983e-12</wgt>
  <wgt id="365">7.34022e-12</wgt>
  <wgt id="366">7.31718e-12</wgt>
  <wgt id="367">7.26755e-12</wgt>
  <wgt id="368">7.24097e-12</wgt>
  <wgt id="369">7.21266e-12</wgt>
  <wgt id="370">7.29152e-12</wgt>
  <wgt id="371">7.32247e-12</wgt>
  <wgt id="372">7.30552e-12</wgt>
  <wgt id="373">7.27981e-12</wgt>
  <wgt id="374">7.27342e-12</wgt>
  <wgt id="375">7.57629e-12</wgt>
  <wgt id="376">7.57673e-12</wgt>
  <wgt id="377">7.57545e-12</wgt>
  <wgt id="378">7.60266e-12</wgt>
  <wgt id="379">7.55012e-12</wgt>
  <wgt id="380">7.59763e-12</wgt>
  <wgt id="381">7.56779e-12</wgt>
  <wgt id="382">7.60663e-12</wgt>
  <wgt id="383">7.54615e-12</wgt>
  <wgt id="384">7.5809e-12</wgt>
  <wgt id="385">7.57185e-12</wgt>
  <wgt id="386">7.59907e-12</wgt>
  <wgt id="387">7.56654e-12</wgt>
  <wgt id="388">7.57056e-12</wgt>
  <wgt id="389">7.58315e-12</wgt>
  <wgt id="390">7.59284e-12</wgt>
  <wgt id="391">7.55859e-12</wgt>
  <wgt id="392">7.53819e-12</wgt>
  <wgt id="393">7.59763e-12</wgt>
  <wgt id="394">7.58655e-12</wgt>
  <wgt id="395">7.56192e-12</wgt>
  <wgt id="396">7.57323e-12</wgt>
  <wgt id="397">7.57816e-12</wgt>
  <wgt id="398">7.5548e-12</wgt>
  <wgt id="399">7.59684e-12</wgt>
  <wgt id="400">7.56783e-12</wgt>
  <wgt id="401">7.59442e-12</wgt>
  <wgt id="402">7.52999e-12</wgt>
  <wgt id="403">7.59124e-12</wgt>
  <wgt id="404">7.70885e-12</wgt>
  <wgt id="405">7.25269e-12</wgt>
  <wgt id="406">7.47894e-12</wgt>
  <wgt id="407">7.78332e-12</wgt>
  <wgt id="408">7.62568e-12</wgt>
  <wgt id="409">7.4794e-12</wgt>
  <wgt id="410">7.41433e-12</wgt>
  <wgt id="411">7.6482e-12</wgt>
  <wgt id="412">7.56621e-12</wgt>
  <wgt id="413">7.58775e-12</wgt>
  <wgt id="414">7.51177e-12</wgt>
  <wgt id="415">7.62642e-12</wgt>
  <wgt id="416">7.71337e-12</wgt>
  <wgt id="417">7.38562e-12</wgt>
  <wgt id="418">7.58413e-12</wgt>
  <wgt id="419">7.53369e-12</wgt>
  <wgt id="420">7.61158e-12</wgt>
  <wgt id="421">7.56909e-12</wgt>
  <wgt id="422">7.59158e-12</wgt>
  <wgt id="423">7.57151e-12</wgt>
  <wgt id="424">7.65414e-12</wgt>
  <wgt id="425">7.53383e-12</wgt>
  <wgt id="426">7.57629e-12</wgt>
  <wgt id="427">7.54937e-12</wgt>
  <wgt id="428">7.67694e-12</wgt>
  <wgt id="429">7.61419e-12</wgt>
  <wgt id="430">7.78348e-12</wgt>
  <wgt id="431">7.75039e-12</wgt>
  <wgt id="432">7.71817e-12</wgt>
  <wgt id="433">7.68641e-12</wgt>
  <wgt id="434">7.65008e-12</wgt>
  <wgt id="435">7.56911e-12</wgt>
  <wgt id="436">7.52637e-12</wgt>
  <wgt id="437">7.48676e-12</wgt>
  <wgt id="438">7.61419e-12</wgt>
  <wgt id="439">7.63872e-12</wgt>
  <wgt id="440">7.62464e-12</wgt>
  <wgt id="441">7.60586e-12</wgt>
  <wgt id="442">7.59876e-12</wgt>
  <wgt id="443">7.54606e-12</wgt>
  <wgt id="444">7.56878e-12</wgt>
  <wgt id="445">7.53795e-12</wgt>
  <wgt id="446">7.50418e-12</wgt>
  <wgt id="447">7.53096e-12</wgt>
  <wgt id="448">7.39269e-12</wgt>
  <wgt id="449">7.63485e-12</wgt>
  <wgt id="450">7.52505e-12</wgt>
  <wgt id="451">7.53855e-12</wgt>
  <wgt id="452">7.66445e-12</wgt>
  <wgt id="453">7.5805e-12</wgt>
  <wgt id="454">7.29028e-12</wgt>
  <wgt id="455">7.5591e-12</wgt>
  <wgt id="456">7.41329e-12</wgt>
  <wgt id="457">7.56161e-12</wgt>
  <wgt id="458">7.61875e-12</wgt>
  <wgt id="459">7.58718e-12</wgt>
  <wgt id="460">7.5931e-12</wgt>
  <wgt id="461">7.4596e-12</wgt>
  <wgt id="462">7.51661e-12</wgt>
  <wgt id="463">7.48767e-12</wgt>
  <wgt id="464">7.52635e-12</wgt>
  <wgt id="465">7.59135e-12</wgt>
  <wgt id="466">7.48964e-12</wgt>
  <wgt id="467">7.50328e-12</wgt>
  <wgt id="468">7.53417e-12</wgt>
  <wgt id="469">7.5405e-12</wgt>
  <wgt id="470">7.49278e-12</wgt>
  <wgt id="471">7.50721e-12</wgt>
  <wgt id="472">7.56525e-12</wgt>
  <wgt id="473">7.41353e-12</wgt>
  <wgt id="474">5.79e-12</wgt>
  <wgt id="475">6.08567e-12</wgt>
  <wgt id="476">5.70796e-12</wgt>
  <wgt id="477">5.76619e-12</wgt>
  <wgt id="478">5.83892e-12</wgt>
  <wgt id="479">5.78198e-12</wgt>
  <wgt id="480">5.92411e-12</wgt>
  <wgt id="481">5.63779e-12</wgt>
  <wgt id="482">5.58455e-12</wgt>
  <wgt id="483">5.65763e-12</wgt>
  <wgt id="484">6.15807e-12</wgt>
  <wgt id="485">5.7978e-12</wgt>
  <wgt id="486">5.84487e-12</wgt>
  <wgt id="487">5.7863e-12</wgt>
  <wgt id="488">5.85397e-12</wgt>
  <wgt id="489">5.5452e-12</wgt>
  <wgt id="490">5.65977e-12</wgt>
  <wgt id="491">5.75834e-12</wgt>
  <wgt id="492">5.64655e-12</wgt>
  <wgt id="493">5.6242e-12</wgt>
  <wgt id="494">5.6289e-12</wgt>
  <wgt id="495">5.79912e-12</wgt>
  <wgt id="496">5.59535e-12</wgt>
  <wgt id="497">5.62634e-12</wgt>
  <wgt id="498">5.85771e-12</wgt>
  <wgt id="499">5.66809e-12</wgt>
  <wgt id="500">5.66623e-12</wgt>
  <wgt id="501">5.96739e-12</wgt>
  <wgt id="502">5.65306e-12</wgt>
  <wgt id="503">5.76897e-12</wgt>
  <wgt id="504">5.75552e-12</wgt>
  <wgt id="505">5.87584e-12</wgt>
  <wgt id="506">5.77004e-12</wgt>
  <wgt id="507">5.73264e-12</wgt>
  <wgt id="508">5.92987e-12</wgt>
  <wgt id="509">5.7515e-12</wgt>
  <wgt id="510">5.85028e-12</wgt>
  <wgt id="511">5.62931e-12</wgt>
  <wgt id="512">5.84129e-12</wgt>
  <wgt id="513">5.85943e-12</wgt>
  <wgt id="514">5.76857e-12</wgt>
  <wgt id="515">5.74892e-12</wgt>
  <wgt id="516">5.95863e-12</wgt>
  <wgt id="517">5.93252e-12</wgt>
  <wgt id="518">5.97122e-12</wgt>
  <wgt id="519">5.71885e-12</wgt>
  <wgt id="520">5.79725e-12</wgt>
  <wgt id="521">5.99406e-12</wgt>
  <wgt id="522">5.99989e-12</wgt>
  <wgt id="523">5.80806e-12</wgt>
  <wgt id="524">5.86346e-12</wgt>
  <wgt id="525">5.86295e-12</wgt>
  <wgt id="526">5.75142e-12</wgt>
  <wgt id="527">5.90305e-12</wgt>
  <wgt id="528">5.73855e-12</wgt>
  <wgt id="529">5.78516e-12</wgt>
  <wgt id="530">5.81237e-12</wgt>
  <wgt id="531">5.69151e-12</wgt>
  <wgt id="532">6.04673e-12</wgt>
  <wgt id="533">5.48918e-12</wgt>
  <wgt id="534">5.75753e-12</wgt>
  <wgt id="535">5.82323e-12</wgt>
  <wgt id="536">5.82337e-12</wgt>
  <wgt id="537">5.80684e-12</wgt>
  <wgt id="538">5.93104e-12</wgt>
  <wgt id="539">5.64627e-12</wgt>
  <wgt id="540">5.823e-12</wgt>
  <wgt id="541">5.76839e-12</wgt>
  <wgt id="542">5.64413e-12</wgt>
  <wgt id="543">5.79016e-12</wgt>
  <wgt id="544">6.04647e-12</wgt>
  <wgt id="545">5.69781e-12</wgt>
  <wgt id="546">5.70544e-12</wgt>
  <wgt id="547">5.65577e-12</wgt>
  <wgt id="548">5.56331e-12</wgt>
  <wgt id="549">5.73388e-12</wgt>
  <wgt id="550">5.86066e-12</wgt>
  <wgt id="551">5.88725e-12</wgt>
  <wgt id="552">5.68845e-12</wgt>
  <wgt id="553">5.77016e-12</wgt>
  <wgt id="554">6.20508e-12</wgt>
  <wgt id="555">5.97291e-12</wgt>
  <wgt id="556">5.65977e-12</wgt>
  <wgt id="557">5.87984e-12</wgt>
  <wgt id="558">5.62998e-12</wgt>
  <wgt id="559">5.70392e-12</wgt>
  <wgt id="560">6.21127e-12</wgt>
  <wgt id="561">5.64705e-12</wgt>
  <wgt id="562">5.87045e-12</wgt>
  <wgt id="563">5.73651e-12</wgt>
  <wgt id="564">5.8374e-12</wgt>
  <wgt id="565">5.69315e-12</wgt>
  <wgt id="566">5.80508e-12</wgt>
  <wgt id="567">5.70923e-12</wgt>
  <wgt id="568">5.83589e-12</wgt>
  <wgt id="569">5.78398e-12</wgt>
  <wgt id="570">5.7086e-12</wgt>
  <wgt id="571">6.34693e-12</wgt>
  <wgt id="572">5.70822e-12</wgt>
  <wgt id="573">5.56569e-12</wgt>
  <wgt id="574">5.61888e-12</wgt>
  <wgt id="575">6.26566e-12</wgt>
  <wgt id="576">6.15604e-12</wgt>
  <wgt id="577">6.56932e-12</wgt>
  <wgt id="578">6.33769e-12</wgt>
  <wgt id="579">6.28855e-12</wgt>
  <wgt id="580">6.35655e-12</wgt>
  <wgt id="581">6.60804e-12</wgt>
  <wgt id="582">6.14887e-12</wgt>
  <wgt id="583">6.29866e-12</wgt>
  <wgt id="584">6.24974e-12</wgt>
  <wgt id="585">6.25641e-12</wgt>
  <wgt id="586">6.10634e-12</wgt>
  <wgt id="587">6.31463e-12</wgt>
  <wgt id="588">6.23198e-12</wgt>
  <wgt id="589">6.29042e-12</wgt>
  <wgt id="590">6.3032e-12</wgt>
  <wgt id="591">6.53012e-12</wgt>
  <wgt id="592">6.12101e-12</wgt>
  <wgt id="593">6.22179e-12</wgt>
  <wgt id="594">6.60481e-12</wgt>
  <wgt id="595">6.22112e-12</wgt>
  <wgt id="596">6.44868e-12</wgt>
  <wgt id="597">6.02669e-12</wgt>
  <wgt id="598">6.32255e-12</wgt>
  <wgt id="599">6.5088e-12</wgt>
  <wgt id="600">6.24446e-12</wgt>
  <wgt id="601">6.09136e-12</wgt>
  <wgt id="602">6.15997e-12</wgt>
  <wgt id="603">6.22101e-12</wgt>
  <wgt id="604">6.33277e-12</wgt>
  <wgt id="605">6.50912e-12</wgt>
  <wgt id="606">6.14955e-12</wgt>
  <wgt id="607">6.20046e-12</wgt>
  <wgt id="608">6.18628e-12</wgt>
  <wgt id="609">5.91529e-12</wgt>
  <wgt id="610">6.02609e-12</wgt>
  <wgt id="611">6.38271e-12</wgt>
  <wgt id="612">6.75073e-12</wgt>
  <wgt id="613">6.30887e-12</wgt>
  <wgt id="614">6.29647e-12</wgt>
  <wgt id="615">6.1756e-12</wgt>
  <wgt id="616">6.71806e-12</wgt>
  <wgt id="617">6.37552e-12</wgt>
  <wgt id="618">6.24357e-12</wgt>
  <wgt id="619">6.29683e-12</wgt>
  <wgt id="620">6.3594e-12</wgt>
  <wgt id="621">6.32758e-12</wgt>
  <wgt id="622">6.31463e-12</wgt>
  <wgt id="623">6.39023e-12</wgt>
  <wgt id="624">6.20194e-12</wgt>
  <wgt id="625">6.18828e-12</wgt>
  <wgt id="626">6.13006e-12</wgt>
  <wgt id="627">6.08663e-12</wgt>
  <wgt id="628">6.38097e-12</wgt>
  <wgt id="629">6.19115e-12</wgt>
  <wgt id="630">6.1573e-12</wgt>
  <wgt id="631">6.23121e-12</wgt>
  <wgt id="632">6.13677e-12</wgt>
  <wgt id="633">6.19683e-12</wgt>
  <wgt id="634">6.32716e-12</wgt>
  <wgt id="635">6.27533e-12</wgt>
  <wgt id="636">6.3281e-12</wgt>
  <wgt id="637">6.33718e-12</wgt>
  <wgt id="638">6.11518e-12</wgt>
  <wgt id="639">6.23372e-12</wgt>
  <wgt id="640">6.30265e-12</wgt>
  <wgt id="641">6.27646e-12</wgt>
  <wgt id="642">6.1751e-12</wgt>
  <wgt id="643">6.26977e-12</wgt>
  <wgt id="644">6.05412e-12</wgt>
  <wgt id="645">6.26425e-12</wgt>
  <wgt id="646">6.37377e-12</wgt>
  <wgt id="647">6.14638e-12</wgt>
  <wgt id="648">6.30518e-12</wgt>
  <wgt id="649">6.33411e-12</wgt>
  <wgt id="650">6.15316e-12</wgt>
  <wgt id="651">6.4336e-12</wgt>
  <wgt id="652">6.29185e-12</wgt>
  <wgt id="653">6.12065e-12</wgt>
  <wgt id="654">6.21137e-12</wgt>
  <wgt id="655">6.11816e-12</wgt>
  <wgt id="656">6.17446e-12</wgt>
  <wgt id="657">6.36892e-12</wgt>
  <wgt id="658">6.42568e-12</wgt>
  <wgt id="659">6.05929e-12</wgt>
  <wgt id="660">6.36108e-12</wgt>
  <wgt id="661">6.21263e-12</wgt>
  <wgt id="662">6.21133e-12</wgt>
  <wgt id="663">6.24015e-12</wgt>
  <wgt id="664">6.18053e-12</wgt>
  <wgt id="665">6.25512e-12</wgt>
  <wgt id="666">6.29668e-12</wgt>
  <wgt id="667">6.47316e-12</wgt>
  <wgt id="668">6.21135e-12</wgt>
  <wgt id="669">6.42133e-12</wgt>
  <wgt id="670">6.29315e-12</wgt>
  <wgt id="671">6.13289e-12</wgt>
  <wgt id="672">6.02367e-12</wgt>
  <wgt id="673">6.22391e-12</wgt>
  <wgt id="674">6.12085e-12</wgt>
  <wgt id="675">6.10448e-12</wgt>
  <wgt id="676">7.61238e-12</wgt>
  <wgt id="677">7.75243e-12</wgt>
  <wgt id="678">7.92304e-12</wgt>
  <wgt id="679">7.46428e-12</wgt>
  <wgt id="680">7.28804e-12</wgt>
  <wgt id="681">7.86605e-12</wgt>
  <wgt id="682">7.60249e-12</wgt>
  <wgt id="683">7.58606e-12</wgt>
  <wgt id="684">7.87668e-12</wgt>
  <wgt id="685">7.31314e-12</wgt>
  <wgt id="686">7.80428e-12</wgt>
  <wgt id="687">7.80746e-12</wgt>
  <wgt id="688">7.54418e-12</wgt>
  <wgt id="689">7.8814e-12</wgt>
  <wgt id="690">8.02068e-12</wgt>
  <wgt id="691">7.91284e-12</wgt>
  <wgt id="692">7.66664e-12</wgt>
  <wgt id="693">8.48578e-12</wgt>
  <wgt id="694">7.99665e-12</wgt>
  <wgt id="695">7.37558e-12</wgt>
  <wgt id="696">7.43076e-12</wgt>
  <wgt id="697">7.35104e-12</wgt>
  <wgt id="698">7.33735e-12</wgt>
  <wgt id="699">7.19646e-12</wgt>
  <wgt id="700">7.03033e-12</wgt>
  <wgt id="701">7.59295e-12</wgt>
  <wgt id="702">7.30063e-12</wgt>
  <wgt id="703">8.38446e-12</wgt>
  <wgt id="704">8.00713e-12</wgt>
  <wgt id="705">7.8852e-12</wgt>
  <wgt id="706">7.24563e-12</wgt>
  <wgt id="707">7.36328e-12</wgt>
  <wgt id="708">7.51427e-12</wgt>
  <wgt id="709">7.48408e-12</wgt>
  <wgt id="710">6.97432e-12</wgt>
  <wgt id="711">7.64498e-12</wgt>
  <wgt id="712">7.52391e-12</wgt>
  <wgt id="713">7.95945e-12</wgt>
  <wgt id="714">7.63973e-12</wgt>
  <wgt id="715">7.53982e-12</wgt>
  <wgt id="716">7.37436e-12</wgt>
  <wgt id="717">7.38637e-12</wgt>
  <wgt id="718">7.42342e-12</wgt>
  <wgt id="719">7.09744e-12</wgt>
  <wgt id="720">7.3727e-12</wgt>
  <wgt id="721">7.47131e-12</wgt>
  <wgt id="722">7.11687e-12</wgt>
  <wgt id="723">7.91137e-12</wgt>
  <wgt id="724">7.8222e-12</wgt>
  <wgt id="725">7.99656e-12</wgt>
  <wgt id="726">7.67612e-12</wgt>
  <wgt id="727">7.4675e-12</wgt>
  <wgt id="728">7.63449e-12</wgt>
  <wgt id="729">7.11506e-12</wgt>
  <wgt id="730">7.81202e-12</wgt>
  <wgt id="731">7.54215e-12</wgt>
  <wgt id="732">8.16388e-12</wgt>
  <wgt id="733">7.54704e-12</wgt>
  <wgt id="734">7.7438e-12</wgt>
  <wgt id="735">7.64457e-12</wgt>
  <wgt id="736">7.55709e-12</wgt>
  <wgt id="737">7.70215e-12</wgt>
  <wgt id="738">7.50714e-12</wgt>
  <wgt id="739">7.45964e-12</wgt>
  <wgt id="740">8.28152e-12</wgt>
  <wgt id="741">6.87227e-12</wgt>
  <wgt id="742">7.53017e-12</wgt>
  <wgt id="743">7.55124e-12</wgt>
  <wgt id="744">7.4654e-12</wgt>
  <wgt id="745">7.75579e-12</wgt>
  <wgt id="746">7.80257e-12</wgt>
  <wgt id="747">7.20333e-12</wgt>
  <wgt id="748">7.48417e-12</wgt>
  <wgt id="749">7.99812e-12</wgt>
  <wgt id="750">7.51505e-12</wgt>
  <wgt id="751">7.85857e-12</wgt>
  <wgt id="752">7.16648e-12</wgt>
  <wgt id="753">7.27998e-12</wgt>
  <wgt id="754">7.63836e-12</wgt>
  <wgt id="755">7.66425e-12</wgt>
  <wgt id="756">7.59444e-12</wgt>
  <wgt id="757">7.21599e-12</wgt>
  <wgt id="758">7.69165e-12</wgt>
  <wgt id="759">7.54402e-12</wgt>
  <wgt id="760">7.76617e-12</wgt>
  <wgt id="761">7.98323e-12</wgt>
  <wgt id="762">7.90985e-12</wgt>
  <wgt id="763">7.68919e-12</wgt>
  <wgt id="764">7.79857e-12</wgt>
  <wgt id="765">7.59503e-12</wgt>
  <wgt id="766">7.56215e-12</wgt>
  <wgt id="767">7.70832e-12</wgt>
  <wgt id="768">7.33259e-12</wgt>
  <wgt id="769">7.9589e-12</wgt>
  <wgt id="770">7.5226e-12</wgt>
  <wgt id="771">8.61687e-12</wgt>
  <wgt id="772">7.20252e-12</wgt>
  <wgt id="773">7.61952e-12</wgt>
  <wgt id="774">7.05456e-12</wgt>
  <wgt id="775">7.81684e-12</wgt>
  <wgt id="776">8.15118e-12</wgt>
  <wgt id="777">7.57528e-12</wgt>
  <wgt id="778">5.91568e-12</wgt>
  <wgt id="779">5.24679e-12</wgt>
  <wgt id="780">4.75695e-12</wgt>
  <wgt id="781">5.91909e-12</wgt>
  <wgt id="782">6.24218e-12</wgt>
  <wgt id="783">5.39431e-12</wgt>
  <wgt id="784">5.43912e-12</wgt>
  <wgt id="785">6.87249e-12</wgt>
  <wgt id="786">4.84361e-12</wgt>
  <wgt id="787">6.36633e-12</wgt>
  <wgt id="788">4.42327e-12</wgt>
  <wgt id="789">5.12694e-12</wgt>
  <wgt id="790">4.86751e-12</wgt>
  <wgt id="791">5.55415e-12</wgt>
  <wgt id="792">7.44435e-12</wgt>
  <wgt id="793">5.70422e-12</wgt>
  <wgt id="794">5.04307e-12</wgt>
  <wgt id="795">6.38069e-12</wgt>
  <wgt id="796">7.35837e-12</wgt>
  <wgt id="797">6.4817e-12</wgt>
  <wgt id="798">5.61252e-12</wgt>
  <wgt id="799">6.41419e-12</wgt>
  <wgt id="800">5.09753e-12</wgt>
  <wgt id="801">5.70425e-12</wgt>
  <wgt id="802">5.11748e-12</wgt>
  <wgt id="803">7.62804e-12</wgt>
  <wgt id="804">6.38036e-12</wgt>
  <wgt id="805">6.44231e-12</wgt>
  <wgt id="806">6.68346e-12</wgt>
  <wgt id="807">5.79091e-12</wgt>
  <wgt id="808">5.7963e-12</wgt>
  <wgt id="809">5.57489e-12</wgt>
  <wgt id="810">6.67135e-12</wgt>
  <wgt id="811">6.26333e-12</wgt>
  <wgt id="812">5.04107e-12</wgt>
  <wgt id="813">4.96791e-12</wgt>
  <wgt id="814">4.91505e-12</wgt>
  <wgt id="815">5.27562e-12</wgt>
  <wgt id="816">4.91107e-12</wgt>
  <wgt id="817">6.20005e-12</wgt>
  <wgt id="818">5.67192e-12</wgt>
  <wgt id="819">5.32049e-12</wgt>
  <wgt id="820">5.9366e-12</wgt>
  <wgt id="821">6.38469e-12</wgt>
  <wgt id="822">5.47474e-12</wgt>
  <wgt id="823">6.39507e-12</wgt>
  <wgt id="824">7.51138e-12</wgt>
  <wgt id="825">4.86726e-12</wgt>
  <wgt id="826">5.94687e-12</wgt>
  <wgt id="827">4.32321e-12</wgt>
  <wgt id="828">7.47604e-12</wgt>
  <wgt id="829">5.95353e-12</wgt>
  <wgt id="830">4.67915e-12</wgt>
  <wgt id="831">6.14873e-12</wgt>
  <wgt id="832">8.84788e-12</wgt>
  <wgt id="833">5.7701e-12</wgt>
  <wgt id="834">8.40659e-12</wgt>
  <wgt id="835">5.07257e-12</wgt>
  <wgt id="836">5.95879e-12</wgt>
  <wgt id="837">6.32728e-12</wgt>
  <wgt id="838">5.65292e-12</wgt>
  <wgt id="839">6.15011e-12</wgt>
  <wgt id="840">5.77641e-12</wgt>
  <wgt id="841">6.65921e-12</wgt>
  <wgt id="842">5.65711e-12</wgt>
  <wgt id="843">5.68962e-12</wgt>
  <wgt id="844">5.97594e-12</wgt>
  <wgt id="845">7.59796e-12</wgt>
  <wgt id="846">5.62826e-12</wgt>
  <wgt id="847">5.71633e-12</wgt>
  <wgt id="848">5.51377e-12</wgt>
  <wgt id="849">5.98933e-12</wgt>
  <wgt id="850">7.0152e-12</wgt>
  <wgt id="851">6.30643e-12</wgt>
  <wgt id="852">5.32554e-12</wgt>
  <wgt id="853">6.22976e-12</wgt>
  <wgt id="854">6.8036e-12</wgt>
  <wgt id="855">6.30388e-12</wgt>
  <wgt id="856">4.76253e-12</wgt>
  <wgt id="857">6.01531e-12</wgt>
  <wgt id="858">5.7834e-12</wgt>
  <wgt id="859">5.62916e-12</wgt>
  <wgt id="860">5.99449e-12</wgt>
  <wgt id="861">5.6046e-12</wgt>
  <wgt id="862">5.91752e-12</wgt>
  <wgt id="863">6.01964e-12</wgt>
  <wgt id="864">6.04234e-12</wgt>
  <wgt id="865">7.56536e-12</wgt>
  <wgt id="866">8.32089e-12</wgt>
  <wgt id="867">5.79017e-12</wgt>
  <wgt id="868">5.67522e-12</wgt>
  <wgt id="869">4.99582e-12</wgt>
  <wgt id="870">5.24567e-12</wgt>
  <wgt id="871">5.13953e-12</wgt>
  <wgt id="872">6.50963e-12</wgt>
  <wgt id="873">5.21754e-12</wgt>
  <wgt id="874">6.01988e-12</wgt>
  <wgt id="875">5.28579e-12</wgt>
  <wgt id="876">6.4743e-12</wgt>
  <wgt id="877">6.31701e-12</wgt>
  <wgt id="878">5.46982e-12</wgt>
  <wgt id="879">7.61238e-12</wgt>
  <wgt id="880">7.75243e-12</wgt>
  <wgt id="881">7.92304e-12</wgt>
  <wgt id="882">7.46428e-12</wgt>
  <wgt id="883">7.28804e-12</wgt>
  <wgt id="884">7.86605e-12</wgt>
  <wgt id="885">7.60249e-12</wgt>
  <wgt id="886">7.58606e-12</wgt>
  <wgt id="887">7.87668e-12</wgt>
  <wgt id="888">7.31314e-12</wgt>
  <wgt id="889">7.80428e-12</wgt>
  <wgt id="890">7.80746e-12</wgt>
  <wgt id="891">7.54418e-12</wgt>
  <wgt id="892">7.8814e-12</wgt>
  <wgt id="893">8.02068e-12</wgt>
  <wgt id="894">7.91284e-12</wgt>
  <wgt id="895">7.66664e-12</wgt>
  <wgt id="896">8.48578e-12</wgt>
  <wgt id="897">7.99665e-12</wgt>
  <wgt id="898">7.37558e-12</wgt>
  <wgt id="899">7.43076e-12</wgt>
  <wgt id="900">7.35104e-12</wgt>
  <wgt id="901">7.33735e-12</wgt>
  <wgt id="902">7.19646e-12</wgt>
  <wgt id="903">7.03033e-12</wgt>
  <wgt id="904">7.59295e-12</wgt>
  <wgt id="905">7.30063e-12</wgt>
  <wgt id="906">8.38446e-12</wgt>
  <wgt id="907">8.00713e-12</wgt>
  <wgt id="908">7.8852e-12</wgt>
  <wgt id="909">7.24563e-12</wgt>
  <wgt id="910">7.36328e-12</wgt>
  <wgt id="911">7.51427e-12</wgt>
  <wgt id="912">7.48408e-12</wgt>
  <wgt id="913">6.97432e-12</wgt>
  <wgt id="914">7.64498e-12</wgt>
  <wgt id="915">7.52391e-12</wgt>
  <wgt id="916">7.95945e-12</wgt>
  <wgt id="917">7.63973e-12</wgt>
  <wgt id="918">7.53982e-12</wgt>
  <wgt id="919">7.37436e-12</wgt>
  <wgt id="920">7.38637e-12</wgt>
  <wgt id="921">7.42342e-12</wgt>
  <wgt id="922">7.09744e-12</wgt>
  <wgt id="923">7.3727e-12</wgt>
  <wgt id="924">7.47131e-12</wgt>
  <wgt id="925">7.11687e-12</wgt>
  <wgt id="926">7.91137e-12</wgt>
  <wgt id="927">7.8222e-12</wgt>
  <wgt id="928">7.99656e-12</wgt>
  <wgt id="929">7.67612e-12</wgt>
  <wgt id="930">7.4675e-12</wgt>
  <wgt id="931">7.63449e-12</wgt>
  <wgt id="932">7.11506e-12</wgt>
  <wgt id="933">7.81202e-12</wgt>
  <wgt id="934">7.54215e-12</wgt>
  <wgt id="935">8.16388e-12</wgt>
  <wgt id="936">7.54704e-12</wgt>
  <wgt id="937">7.7438e-12</wgt>
  <wgt id="938">7.64457e-12</wgt>
  <wgt id="939">7.55709e-12</wgt>
  <wgt id="940">7.70215e-12</wgt>
  <wgt id="941">7.50714e-12</wgt>
  <wgt id="942">7.45964e-12</wgt>
  <wgt id="943">8.28152e-12</wgt>
  <wgt id="944">6.87227e-12</wgt>
  <wgt id="945">7.53017e-12</wgt>
  <wgt id="946">7.55124e-12</wgt>
  <wgt id="947">7.4654e-12</wgt>
  <wgt id="948">7.75579e-12</wgt>
  <wgt id="949">7.80257e-12</wgt>
  <wgt id="950">7.20333e-12</wgt>
  <wgt id="951">7.48417e-12</wgt>
  <wgt id="952">7.99812e-12</wgt>
  <wgt id="953">7.51505e-12</wgt>
  <wgt id="954">7.85857e-12</wgt>
  <wgt id="955">7.16648e-12</wgt>
  <wgt id="956">7.27998e-12</wgt>
  <wgt id="957">7.63836e-12</wgt>
  <wgt id="958">7.66425e-12</wgt>
  <wgt id="959">7.59444e-12</wgt>
  <wgt id="960">7.21599e-12</wgt>
  <wgt id="961">7.69165e-12</wgt>
  <wgt id="962">7.54402e-12</wgt>
  <wgt id="963">7.76617e-12</wgt>
  <wgt id="964">7.98323e-12</wgt>
  <wgt id="965">7.90985e-12</wgt>
  <wgt id="966">7.68919e-12</wgt>
  <wgt id="967">7.79857e-12</wgt>
  <wgt id="968">7.59503e-12</wgt>
  <wgt id="969">7.56215e-12</wgt>
  <wgt id="970">7.70832e-12</wgt>
  <wgt id="971">7.33259e-12</wgt>
  <wgt id="972">7.9589e-12</wgt>
  <wgt id="973">7.5226e-12</wgt>
  <wgt id="974">8.61687e-12</wgt>
  <wgt id="975">7.20252e-12</wgt>
  <wgt id="976">7.61952e-12</wgt>
  <wgt id="977">7.05456e-12</wgt>
  <wgt id="978">7.81684e-12</wgt>
  <wgt id="979">8.15118e-12</wgt>
  <wgt id="980">7.64307e-12</wgt>
  <wgt id="981">7.60438e-12</wgt>
  <wgt id="982">7.40857e-12</wgt>
</rwgt>
</event>
<event>
 5   1  0.5790000E-11  0.2148716E+04  0.7818608E-02  0.7768467E-01
       21   -1    0    0  502  501  0.00000000000E+00  0.00000000000E+00  0.14285655365E+04  0.14285655365E+04  0.00000000000E+00 0.  1.
       21   -1    0    0  501  502 -0.00000000000E+00 -0.00000000000E+00 -0.80797498468E+03  0.80797498468E+03  0.00000000000E+00 0. -1.
       39    2    1    2    0    0  0.00000000000E+00  0.00000000000E+00  0.62059055186E+03  0.22365405212E+04  0.21487160980E+04 0.  0.
       25    1    3    3    0    0  0.45737129324E+03 -0.27671805591E+03  0.12715451810E+04  0.13849958591E+04  0.12500000000E+03 0.  0.
       25    1    3    3    0    0 -0.45737129324E+03  0.27671805591E+03 -0.65095462917E+03  0.85154466212E+03  0.12500000000E+03 0.  0.
<mgrwt>
<rscale>  0 0.21487161E+04</rscale>
<asrwt>0</asrwt>
<pdfrwt beam="1">  1       21 0.21977931E+00 0.21487161E+04</pdfrwt>
<pdfrwt beam="2">  1       21 0.12430384E+00 0.21487161E+04</pdfrwt>
<totfact> 0.19819725E+01</totfact>
</mgrwt>
<rwgt>
  <wgt id="1">5.79e-12</wgt>
  <wgt id="2">5.05643e-12</wgt>
  <wgt id="3">6.69737e-12</wgt>
  <wgt id="4">5.79e-12</wgt>
  <wgt id="5">5.05643e-12</wgt>
  <wgt id="6">6.69737e-12</wgt>
  <wgt id="7">5.79e-12</wgt>
  <wgt id="8">5.05643e-12</wgt>
  <wgt id="9">6.69737e-12</wgt>
  <wgt id="10">5.96747e-12</wgt>
  <wgt id="11">5.96292e-12</wgt>
  <wgt id="12">5.9575e-12</wgt>
  <wgt id="13">5.94817e-12</wgt>
  <wgt id="14">5.98885e-12</wgt>
  <wgt id="15">5.97704e-12</wgt>
  <wgt id="16">5.9571e-12</wgt>
  <wgt id="17">5.98183e-12</wgt>
  <wgt id="18">5.95911e-12</wgt>
  <wgt id="19">5.97946e-12</wgt>
  <wgt id="20">5.95185e-12</wgt>
  <wgt id="21">5.93059e-12</wgt>
  <wgt id="22">5.94325e-12</wgt>
  <wgt id="23">5.91194e-12</wgt>
  <wgt id="24">5.93792e-12</wgt>
  <wgt id="25">5.95222e-12</wgt>
  <wgt id="26">5.98863e-12</wgt>
  <wgt id="27">5.96544e-12</wgt>
  <wgt id="28">5.93834e-12</wgt>
  <wgt id="29">5.97225e-12</wgt>
  <wgt id="30">5.94552e-12</wgt>
  <wgt id="31">5.98678e-12</wgt>
  <wgt id="32">5.95126e-12</wgt>
  <wgt id="33">5.97939e-12</wgt>
  <wgt id="34">5.94645e-12</wgt>
  <wgt id="35">5.95627e-12</wgt>
  <wgt id="36">5.98352e-12</wgt>
  <wgt id="37">5.95191e-12</wgt>
  <wgt id="38">5.95206e-12</wgt>
  <wgt id="39">6.03398e-12</wgt>
  <wgt id="40">5.97797e-12</wgt>
  <wgt id="41">5.96544e-12</wgt>
  <wgt id="42">5.9814e-12</wgt>
  <wgt id="43">5.96927e-12</wgt>
  <wgt id="44">5.9539e-12</wgt>
  <wgt id="45">5.97676e-12</wgt>
  <wgt id="46">5.97067e-12</wgt>
  <wgt id="47">5.95416e-12</wgt>
  <wgt id="48">5.9673e-12</wgt>
  <wgt id="49">5.97228e-12</wgt>
  <wgt id="50">5.98785e-12</wgt>
  <wgt id="51">5.98179e-12</wgt>
  <wgt id="52">5.9609e-12</wgt>
  <wgt id="53">5.93695e-12</wgt>
  <wgt id="54">5.96003e-12</wgt>
  <wgt id="55">5.96621e-12</wgt>
  <wgt id="56">5.99025e-12</wgt>
  <wgt id="57">5.98517e-12</wgt>
  <wgt id="58">5.93516e-12</wgt>
  <wgt id="59">5.95072e-12</wgt>
  <wgt id="60">5.9728e-12</wgt>
  <wgt id="61">5.94882e-12</wgt>
  <wgt id="62">5.95747e-12</wgt>
  <wgt id="63">5.96674e-12</wgt>
  <wgt id="64">5.97255e-12</wgt>
  <wgt id="65">5.97602e-12</wgt>
  <wgt id="66">5.96041e-12</wgt>
  <wgt id="67">5.94863e-12</wgt>
  <wgt id="68">5.96331e-12</wgt>
  <wgt id="69">5.96841e-12</wgt>
  <wgt id="70">5.96718e-12</wgt>
  <wgt id="71">5.9663e-12</wgt>
  <wgt id="72">5.95778e-12</wgt>
  <wgt id="73">5.97102e-12</wgt>
  <wgt id="74">5.96921e-12</wgt>
  <wgt id="75">5.96103e-12</wgt>
  <wgt id="76">5.97972e-12</wgt>
  <wgt id="77">5.96629e-12</wgt>
  <wgt id="78">5.96839e-12</wgt>
  <wgt id="79">5.97959e-12</wgt>
  <wgt id="80">5.94675e-12</wgt>
  <wgt id="81">5.9618e-12</wgt>
  <wgt id="82">5.96752e-12</wgt>
  <wgt id="83">5.94726e-12</wgt>
  <wgt id="84">5.95947e-12</wgt>
  <wgt id="85">5.95535e-12</wgt>
  <wgt id="86">5.98335e-12</wgt>
  <wgt id="87">5.93888e-12</wgt>
  <wgt id="88">5.97316e-12</wgt>
  <wgt id="89">5.97254e-12</wgt>
  <wgt id="90">5.97793e-12</wgt>
  <wgt id="91">5.97293e-12</wgt>
  <wgt id="92">5.97819e-12</wgt>
  <wgt id="93">5.96887e-12</wgt>
  <wgt id="94">5.96252e-12</wgt>
  <wgt id="95">5.97367e-12</wgt>
  <wgt id="96">5.97083e-12</wgt>
  <wgt id="97">5.95833e-12</wgt>
  <wgt id="98">5.96977e-12</wgt>
  <wgt id="99">5.96084e-12</wgt>
  <wgt id="100">5.97197e-12</wgt>
  <wgt id="101">5.9675e-12</wgt>
  <wgt id="102">5.96268e-12</wgt>
  <wgt id="103">5.97459e-12</wgt>
  <wgt id="104">5.96555e-12</wgt>
  <wgt id="105">5.97469e-12</wgt>
  <wgt id="106">5.95944e-12</wgt>
  <wgt id="107">5.98256e-12</wgt>
  <wgt id="108">5.96215e-12</wgt>
  <wgt id="109">5.96705e-12</wgt>
  <wgt id="110">5.96812e-12</wgt>
  <wgt id="111">6.02695e-12</wgt>
  <wgt id="112">5.97001e-12</wgt>
  <wgt id="113">7.92083e-12</wgt>
  <wgt id="114">8.12999e-12</wgt>
  <wgt id="115">8.01093e-12</wgt>
  <wgt id="116">1.0885e-11</wgt>
  <wgt id="117">6.56156e-12</wgt>
  <wgt id="118">6.58263e-12</wgt>
  <wgt id="119">6.5494e-12</wgt>
  <wgt id="120">6.56234e-12</wgt>
  <wgt id="121">6.56128e-12</wgt>
  <wgt id="122">6.54973e-12</wgt>
  <wgt id="123">6.5776e-12</wgt>
  <wgt id="124">6.55194e-12</wgt>
  <wgt id="125">6.56754e-12</wgt>
  <wgt id="126">6.572e-12</wgt>
  <wgt id="127">6.55452e-12</wgt>
  <wgt id="128">6.58203e-12</wgt>
  <wgt id="129">6.54132e-12</wgt>
  <wgt id="130">6.59842e-12</wgt>
  <wgt id="131">6.52385e-12</wgt>
  <wgt id="132">6.3958e-12</wgt>
  <wgt id="133">6.7568e-12</wgt>
  <wgt id="134">6.49436e-12</wgt>
  <wgt id="135">6.61406e-12</wgt>
  <wgt id="136">6.64175e-12</wgt>
  <wgt id="137">6.46424e-12</wgt>
  <wgt id="138">6.80468e-12</wgt>
  <wgt id="139">6.32593e-12</wgt>
  <wgt id="140">6.518e-12</wgt>
  <wgt id="141">6.59543e-12</wgt>
  <wgt id="142">6.56224e-12</wgt>
  <wgt id="143">6.57071e-12</wgt>
  <wgt id="144">6.39373e-12</wgt>
  <wgt id="145">6.71593e-12</wgt>
  <wgt id="146">6.61417e-12</wgt>
  <wgt id="147">6.51996e-12</wgt>
  <wgt id="148">6.58073e-12</wgt>
  <wgt id="149">6.56011e-12</wgt>
  <wgt id="150">6.61643e-12</wgt>
  <wgt id="151">6.536e-12</wgt>
  <wgt id="152">6.56414e-12</wgt>
  <wgt id="153">6.56061e-12</wgt>
  <wgt id="154">6.61531e-12</wgt>
  <wgt id="155">6.49716e-12</wgt>
  <wgt id="156">6.67732e-12</wgt>
  <wgt id="157">6.43532e-12</wgt>
  <wgt id="158">7.89639e-12</wgt>
  <wgt id="159">7.92939e-12</wgt>
  <wgt id="160">7.86988e-12</wgt>
  <wgt id="161">7.87821e-12</wgt>
  <wgt id="162">7.91697e-12</wgt>
  <wgt id="163">7.88843e-12</wgt>
  <wgt id="164">7.90821e-12</wgt>
  <wgt id="165">7.8997e-12</wgt>
  <wgt id="166">7.89393e-12</wgt>
  <wgt id="167">7.89051e-12</wgt>
  <wgt id="168">7.90468e-12</wgt>
  <wgt id="169">7.86232e-12</wgt>
  <wgt id="170">7.91748e-12</wgt>
  <wgt id="171">7.88858e-12</wgt>
  <wgt id="172">7.90724e-12</wgt>
  <wgt id="173">7.89609e-12</wgt>
  <wgt id="174">7.89644e-12</wgt>
  <wgt id="175">7.68447e-12</wgt>
  <wgt id="176">8.17205e-12</wgt>
  <wgt id="177">7.93523e-12</wgt>
  <wgt id="178">7.86058e-12</wgt>
  <wgt id="179">8.2111e-12</wgt>
  <wgt id="180">7.39823e-12</wgt>
  <wgt id="181">7.67731e-12</wgt>
  <wgt id="182">8.04071e-12</wgt>
  <wgt id="183">7.76237e-12</wgt>
  <wgt id="184">7.96269e-12</wgt>
  <wgt id="185">7.83357e-12</wgt>
  <wgt id="186">7.97054e-12</wgt>
  <wgt id="187">7.82637e-12</wgt>
  <wgt id="188">8.02158e-12</wgt>
  <wgt id="189">7.84808e-12</wgt>
  <wgt id="190">7.91604e-12</wgt>
  <wgt id="191">7.91692e-12</wgt>
  <wgt id="192">7.88409e-12</wgt>
  <wgt id="193">8.00222e-12</wgt>
  <wgt id="194">7.84391e-12</wgt>
  <wgt id="195">7.72794e-12</wgt>
  <wgt id="196">8.20893e-12</wgt>
  <wgt id="197">7.93372e-12</wgt>
  <wgt id="198">7.88749e-12</wgt>
  <wgt id="199">7.89639e-12</wgt>
  <wgt id="200">7.96143e-12</wgt>
  <wgt id="201">7.93772e-12</wgt>
  <wgt id="202">7.91446e-12</wgt>
  <wgt id="203">7.87965e-12</wgt>
  <wgt id="204">7.86321e-12</wgt>
  <wgt id="205">7.84949e-12</wgt>
  <wgt id="206">7.69912e-12</wgt>
  <wgt id="207">7.74358e-12</wgt>
  <wgt id="208">7.65538e-12</wgt>
  <wgt id="209">7.72004e-12</wgt>
  <wgt id="210">7.6844e-12</wgt>
  <wgt id="211">7.69724e-12</wgt>
  <wgt id="212">7.70084e-12</wgt>
  <wgt id="213">7.69862e-12</wgt>
  <wgt id="214">7.70013e-12</wgt>
  <wgt id="215">7.70419e-12</wgt>
  <wgt id="216">7.69585e-12</wgt>
  <wgt id="217">7.71946e-12</wgt>
  <wgt id="218">7.68349e-12</wgt>
  <wgt id="219">7.68911e-12</wgt>
  <wgt id="220">7.70558e-12</wgt>
  <wgt id="221">7.6964e-12</wgt>
  <wgt id="222">7.70583e-12</wgt>
  <wgt id="223">7.30955e-12</wgt>
  <wgt id="224">8.05321e-12</wgt>
  <wgt id="225">7.61266e-12</wgt>
  <wgt id="226">7.808e-12</wgt>
  <wgt id="227">7.63007e-12</wgt>
  <wgt id="228">7.72968e-12</wgt>
  <wgt id="229">7.59713e-12</wgt>
  <wgt id="230">7.7501e-12</wgt>
  <wgt id="231">7.91067e-12</wgt>
  <wgt id="232">7.52488e-12</wgt>
  <wgt id="233">7.66122e-12</wgt>
  <wgt id="234">7.75835e-12</wgt>
  <wgt id="235">7.5582e-12</wgt>
  <wgt id="236">7.8346e-12</wgt>
  <wgt id="237">7.60156e-12</wgt>
  <wgt id="238">7.73283e-12</wgt>
  <wgt id="239">7.65659e-12</wgt>
  <wgt id="240">7.77724e-12</wgt>
  <wgt id="241">7.62504e-12</wgt>
  <wgt id="242">7.78813e-12</wgt>
  <wgt id="243">7.7762e-12</wgt>
  <wgt id="244">7.74459e-12</wgt>
  <wgt id="245">7.69315e-12</wgt>
  <wgt id="246">7.75681e-12</wgt>
  <wgt id="247">7.69912e-12</wgt>
  <wgt id="248">7.76423e-12</wgt>
  <wgt id="249">7.7394e-12</wgt>
  <wgt id="250">7.71624e-12</wgt>
  <wgt id="251">7.68172e-12</wgt>
  <wgt id="252">7.66543e-12</wgt>
  <wgt id="253">7.65359e-12</wgt>
  <wgt id="254">7.52755e-12</wgt>
  <wgt id="255">7.53428e-12</wgt>
  <wgt id="256">7.51986e-12</wgt>
  <wgt id="257">7.53326e-12</wgt>
  <wgt id="258">7.5231e-12</wgt>
  <wgt id="259">7.57716e-12</wgt>
  <wgt id="260">7.47923e-12</wgt>
  <wgt id="261">7.53541e-12</wgt>
  <wgt id="262">7.51784e-12</wgt>
  <wgt id="263">7.52438e-12</wgt>
  <wgt id="264">7.53072e-12</wgt>
  <wgt id="265">7.51966e-12</wgt>
  <wgt id="266">7.54319e-12</wgt>
  <wgt id="267">7.52954e-12</wgt>
  <wgt id="268">7.52427e-12</wgt>
  <wgt id="269">7.54908e-12</wgt>
  <wgt id="270">7.51262e-12</wgt>
  <wgt id="271">7.51437e-12</wgt>
  <wgt id="272">7.54222e-12</wgt>
  <wgt id="273">7.50554e-12</wgt>
  <wgt id="274">7.54397e-12</wgt>
  <wgt id="275">7.49803e-12</wgt>
  <wgt id="276">7.55786e-12</wgt>
  <wgt id="277">7.48626e-12</wgt>
  <wgt id="278">7.56547e-12</wgt>
  <wgt id="279">7.39233e-12</wgt>
  <wgt id="280">7.69666e-12</wgt>
  <wgt id="281">7.4971e-12</wgt>
  <wgt id="282">7.52844e-12</wgt>
  <wgt id="283">7.32439e-12</wgt>
  <wgt id="284">7.77682e-12</wgt>
  <wgt id="285">7.18839e-12</wgt>
  <wgt id="286">7.8066e-12</wgt>
  <wgt id="287">7.54992e-12</wgt>
  <wgt id="288">7.4986e-12</wgt>
  <wgt id="289">7.57716e-12</wgt>
  <wgt id="290">7.41087e-12</wgt>
  <wgt id="291">7.50859e-12</wgt>
  <wgt id="292">7.53173e-12</wgt>
  <wgt id="293">7.47296e-12</wgt>
  <wgt id="294">7.58161e-12</wgt>
  <wgt id="295">7.39236e-12</wgt>
  <wgt id="296">7.69184e-12</wgt>
  <wgt id="297">7.52952e-12</wgt>
  <wgt id="298">7.5513e-12</wgt>
  <wgt id="299">7.50499e-12</wgt>
  <wgt id="300">7.58669e-12</wgt>
  <wgt id="301">7.4423e-12</wgt>
  <wgt id="302">7.75564e-12</wgt>
  <wgt id="303">7.47818e-12</wgt>
  <wgt id="304">7.55585e-12</wgt>
  <wgt id="305">7.55711e-12</wgt>
  <wgt id="306">7.56468e-12</wgt>
  <wgt id="307">7.54864e-12</wgt>
  <wgt id="308">7.56382e-12</wgt>
  <wgt id="309">7.55276e-12</wgt>
  <wgt id="310">7.6091e-12</wgt>
  <wgt id="311">7.5088e-12</wgt>
  <wgt id="312">7.56287e-12</wgt>
  <wgt id="313">7.55131e-12</wgt>
  <wgt id="314">7.55399e-12</wgt>
  <wgt id="315">7.55971e-12</wgt>
  <wgt id="316">7.54942e-12</wgt>
  <wgt id="317">7.57314e-12</wgt>
  <wgt id="318">7.56194e-12</wgt>
  <wgt id="319">7.5484e-12</wgt>
  <wgt id="320">7.57972e-12</wgt>
  <wgt id="321">7.54424e-12</wgt>
  <wgt id="322">7.53986e-12</wgt>
  <wgt id="323">7.57668e-12</wgt>
  <wgt id="324">7.53907e-12</wgt>
  <wgt id="325">7.57255e-12</wgt>
  <wgt id="326">7.53316e-12</wgt>
  <wgt id="327">7.58759e-12</wgt>
  <wgt id="328">7.51877e-12</wgt>
  <wgt id="329">7.57875e-12</wgt>
  <wgt id="330">7.76738e-12</wgt>
  <wgt id="331">7.35589e-12</wgt>
  <wgt id="332">7.53172e-12</wgt>
  <wgt id="333">7.55701e-12</wgt>
  <wgt id="334">7.39738e-12</wgt>
  <wgt id="335">7.75485e-12</wgt>
  <wgt id="336">7.31025e-12</wgt>
  <wgt id="337">7.85582e-12</wgt>
  <wgt id="338">7.63648e-12</wgt>
  <wgt id="339">7.48318e-12</wgt>
  <wgt id="340">7.60393e-12</wgt>
  <wgt id="341">7.43481e-12</wgt>
  <wgt id="342">7.54438e-12</wgt>
  <wgt id="343">7.54989e-12</wgt>
  <wgt id="344">7.50741e-12</wgt>
  <wgt id="345">7.61451e-12</wgt>
  <wgt id="346">7.41654e-12</wgt>
  <wgt id="347">7.71835e-12</wgt>
  <wgt id="348">7.56289e-12</wgt>
  <wgt id="349">7.57607e-12</wgt>
  <wgt id="350">7.52854e-12</wgt>
  <wgt id="351">7.62902e-12</wgt>
  <wgt id="352">7.46327e-12</wgt>
  <wgt id="353">7.79665e-12</wgt>
  <wgt id="354">7.48221e-12</wgt>
  <wgt id="355">7.60357e-12</wgt>
  <wgt id="356">7.52755e-12</wgt>
  <wgt id="357">7.58965e-12</wgt>
  <wgt id="358">7.55711e-12</wgt>
  <wgt id="359">7.55546e-12</wgt>
  <wgt id="360">7.56995e-12</wgt>
  <wgt id="361">7.54896e-12</wgt>
  <wgt id="362">7.67179e-12</wgt>
  <wgt id="363">7.65468e-12</wgt>
  <wgt id="364">7.63045e-12</wgt>
  <wgt id="365">7.60653e-12</wgt>
  <wgt id="366">7.57912e-12</wgt>
  <wgt id="367">7.52332e-12</wgt>
  <wgt id="368">7.49213e-12</wgt>
  <wgt id="369">7.45848e-12</wgt>
  <wgt id="370">7.54896e-12</wgt>
  <wgt id="371">7.58223e-12</wgt>
  <wgt id="372">7.56403e-12</wgt>
  <wgt id="373">7.53678e-12</wgt>
  <wgt id="374">7.53403e-12</wgt>
  <wgt id="375">8.02621e-12</wgt>
  <wgt id="376">8.02716e-12</wgt>
  <wgt id="377">8.02504e-12</wgt>
  <wgt id="378">8.05515e-12</wgt>
  <wgt id="379">7.99752e-12</wgt>
  <wgt id="380">8.04811e-12</wgt>
  <wgt id="381">8.01763e-12</wgt>
  <wgt id="382">8.0644e-12</wgt>
  <wgt id="383">7.98837e-12</wgt>
  <wgt id="384">8.03136e-12</wgt>
  <wgt id="385">8.02135e-12</wgt>
  <wgt id="386">8.05524e-12</wgt>
  <wgt id="387">8.01365e-12</wgt>
  <wgt id="388">8.01899e-12</wgt>
  <wgt id="389">8.03469e-12</wgt>
  <wgt id="390">8.04629e-12</wgt>
  <wgt id="391">8.00508e-12</wgt>
  <wgt id="392">7.971e-12</wgt>
  <wgt id="393">8.05769e-12</wgt>
  <wgt id="394">8.03703e-12</wgt>
  <wgt id="395">8.01152e-12</wgt>
  <wgt id="396">8.02964e-12</wgt>
  <wgt id="397">8.0238e-12</wgt>
  <wgt id="398">7.99746e-12</wgt>
  <wgt id="399">8.05413e-12</wgt>
  <wgt id="400">8.01455e-12</wgt>
  <wgt id="401">8.05232e-12</wgt>
  <wgt id="402">7.96577e-12</wgt>
  <wgt id="403">8.05189e-12</wgt>
  <wgt id="404">8.1996e-12</wgt>
  <wgt id="405">7.60678e-12</wgt>
  <wgt id="406">7.90067e-12</wgt>
  <wgt id="407">8.29765e-12</wgt>
  <wgt id="408">8.09035e-12</wgt>
  <wgt id="409">7.90301e-12</wgt>
  <wgt id="410">7.8201e-12</wgt>
  <wgt id="411">8.12128e-12</wgt>
  <wgt id="412">8.0126e-12</wgt>
  <wgt id="413">8.04495e-12</wgt>
  <wgt id="414">7.94379e-12</wgt>
  <wgt id="415">8.09044e-12</wgt>
  <wgt id="416">8.22038e-12</wgt>
  <wgt id="417">7.7574e-12</wgt>
  <wgt id="418">8.03648e-12</wgt>
  <wgt id="419">7.97041e-12</wgt>
  <wgt id="420">8.12419e-12</wgt>
  <wgt id="421">7.97352e-12</wgt>
  <wgt id="422">8.02049e-12</wgt>
  <wgt id="423">8.03071e-12</wgt>
  <wgt id="424">8.16747e-12</wgt>
  <wgt id="425">7.93863e-12</wgt>
  <wgt id="426">8.02621e-12</wgt>
  <wgt id="427">7.96272e-12</wgt>
  <wgt id="428">8.21253e-12</wgt>
  <wgt id="429">8.09044e-12</wgt>
  <wgt id="430">8.3032e-12</wgt>
  <wgt id="431">8.26096e-12</wgt>
  <wgt id="432">8.22082e-12</wgt>
  <wgt id="433">8.18183e-12</wgt>
  <wgt id="434">8.13471e-12</wgt>
  <wgt id="435">8.03529e-12</wgt>
  <wgt id="436">7.98395e-12</wgt>
  <wgt id="437">7.93531e-12</wgt>
  <wgt id="438">8.09044e-12</wgt>
  <wgt id="439">8.11684e-12</wgt>
  <wgt id="440">8.10149e-12</wgt>
  <wgt id="441">8.08225e-12</wgt>
  <wgt id="442">8.07531e-12</wgt>
  <wgt id="443">7.85041e-12</wgt>
  <wgt id="444">7.89113e-12</wgt>
  <wgt id="445">7.83658e-12</wgt>
  <wgt id="446">7.80107e-12</wgt>
  <wgt id="447">7.83101e-12</wgt>
  <wgt id="448">7.66003e-12</wgt>
  <wgt id="449">7.96491e-12</wgt>
  <wgt id="450">7.83707e-12</wgt>
  <wgt id="451">7.83833e-12</wgt>
  <wgt id="452">8.0094e-12</wgt>
  <wgt id="453">7.91243e-12</wgt>
  <wgt id="454">7.54607e-12</wgt>
  <wgt id="455">7.86629e-12</wgt>
  <wgt id="456">7.78086e-12</wgt>
  <wgt id="457">7.87635e-12</wgt>
  <wgt id="458">7.94071e-12</wgt>
  <wgt id="459">7.90267e-12</wgt>
  <wgt id="460">7.90598e-12</wgt>
  <wgt id="461">7.71911e-12</wgt>
  <wgt id="462">7.79889e-12</wgt>
  <wgt id="463">7.76852e-12</wgt>
  <wgt id="464">7.81464e-12</wgt>
  <wgt id="465">7.92209e-12</wgt>
  <wgt id="466">7.76438e-12</wgt>
  <wgt id="467">7.78522e-12</wgt>
  <wgt id="468">7.83253e-12</wgt>
  <wgt id="469">7.83506e-12</wgt>
  <wgt id="470">7.78089e-12</wgt>
  <wgt id="471">7.78864e-12</wgt>
  <wgt id="472">7.88183e-12</wgt>
  <wgt id="473">7.63729e-12</wgt>
  <wgt id="474">5.79e-12</wgt>
  <wgt id="475">6.06655e-12</wgt>
  <wgt id="476">5.68703e-12</wgt>
  <wgt id="477">5.6355e-12</wgt>
  <wgt id="478">5.83334e-12</wgt>
  <wgt id="479">5.70694e-12</wgt>
  <wgt id="480">5.98849e-12</wgt>
  <wgt id="481">5.69376e-12</wgt>
  <wgt id="482">5.62131e-12</wgt>
  <wgt id="483">5.64857e-12</wgt>
  <wgt id="484">6.0877e-12</wgt>
  <wgt id="485">5.74824e-12</wgt>
  <wgt id="486">5.95385e-12</wgt>
  <wgt id="487">5.83602e-12</wgt>
  <wgt id="488">5.88265e-12</wgt>
  <wgt id="489">5.53961e-12</wgt>
  <wgt id="490">5.61046e-12</wgt>
  <wgt id="491">5.75234e-12</wgt>
  <wgt id="492">5.64974e-12</wgt>
  <wgt id="493">5.58288e-12</wgt>
  <wgt id="494">5.61793e-12</wgt>
  <wgt id="495">5.83737e-12</wgt>
  <wgt id="496">5.6037e-12</wgt>
  <wgt id="497">5.57866e-12</wgt>
  <wgt id="498">5.89727e-12</wgt>
  <wgt id="499">5.68114e-12</wgt>
  <wgt id="500">5.67811e-12</wgt>
  <wgt id="501">6.02015e-12</wgt>
  <wgt id="502">5.68566e-12</wgt>
  <wgt id="503">5.78992e-12</wgt>
  <wgt id="504">5.8399e-12</wgt>
  <wgt id="505">5.70844e-12</wgt>
  <wgt id="506">5.82415e-12</wgt>
  <wgt id="507">5.76044e-12</wgt>
  <wgt id="508">5.92981e-12</wgt>
  <wgt id="509">5.57256e-12</wgt>
  <wgt id="510">5.91504e-12</wgt>
  <wgt id="511">5.63964e-12</wgt>
  <wgt id="512">5.89838e-12</wgt>
  <wgt id="513">5.97153e-12</wgt>
  <wgt id="514">5.79417e-12</wgt>
  <wgt id="515">5.74449e-12</wgt>
  <wgt id="516">6.00634e-12</wgt>
  <wgt id="517">5.9247e-12</wgt>
  <wgt id="518">5.94872e-12</wgt>
  <wgt id="519">5.65422e-12</wgt>
  <wgt id="520">5.85883e-12</wgt>
  <wgt id="521">5.97225e-12</wgt>
  <wgt id="522">6.02413e-12</wgt>
  <wgt id="523">5.82531e-12</wgt>
  <wgt id="524">5.82248e-12</wgt>
  <wgt id="525">5.93628e-12</wgt>
  <wgt id="526">5.81753e-12</wgt>
  <wgt id="527">5.87075e-12</wgt>
  <wgt id="528">5.8016e-12</wgt>
  <wgt id="529">5.72944e-12</wgt>
  <wgt id="530">5.87195e-12</wgt>
  <wgt id="531">5.70565e-12</wgt>
  <wgt id="532">6.11286e-12</wgt>
  <wgt id="533">5.49632e-12</wgt>
  <wgt id="534">5.78252e-12</wgt>
  <wgt id="535">5.83961e-12</wgt>
  <wgt id="536">5.76097e-12</wgt>
  <wgt id="537">5.7982e-12</wgt>
  <wgt id="538">5.87722e-12</wgt>
  <wgt id="539">5.67758e-12</wgt>
  <wgt id="540">5.74219e-12</wgt>
  <wgt id="541">5.65094e-12</wgt>
  <wgt id="542">5.69609e-12</wgt>
  <wgt id="543">5.78141e-12</wgt>
  <wgt id="544">6.05553e-12</wgt>
  <wgt id="545">5.69586e-12</wgt>
  <wgt id="546">5.67484e-12</wgt>
  <wgt id="547">5.64449e-12</wgt>
  <wgt id="548">5.55884e-12</wgt>
  <wgt id="549">5.70603e-12</wgt>
  <wgt id="550">5.72833e-12</wgt>
  <wgt id="551">5.87135e-12</wgt>
  <wgt id="552">5.67195e-12</wgt>
  <wgt id="553">5.75673e-12</wgt>
  <wgt id="554">6.20431e-12</wgt>
  <wgt id="555">5.95463e-12</wgt>
  <wgt id="556">5.61046e-12</wgt>
  <wgt id="557">5.90793e-12</wgt>
  <wgt id="558">5.63368e-12</wgt>
  <wgt id="559">5.69043e-12</wgt>
  <wgt id="560">6.29024e-12</wgt>
  <wgt id="561">5.69024e-12</wgt>
  <wgt id="562">5.91155e-12</wgt>
  <wgt id="563">5.71513e-12</wgt>
  <wgt id="564">5.86466e-12</wgt>
  <wgt id="565">5.63888e-12</wgt>
  <wgt id="566">5.85979e-12</wgt>
  <wgt id="567">5.72546e-12</wgt>
  <wgt id="568">5.78733e-12</wgt>
  <wgt id="569">5.86371e-12</wgt>
  <wgt id="570">5.61303e-12</wgt>
  <wgt id="571">6.39332e-12</wgt>
  <wgt id="572">5.68901e-12</wgt>
  <wgt id="573">5.56792e-12</wgt>
  <wgt id="574">5.60996e-12</wgt>
  <wgt id="575">6.34486e-12</wgt>
  <wgt id="576">6.33255e-12</wgt>
  <wgt id="577">6.55918e-12</wgt>
  <wgt id="578">6.50226e-12</wgt>
  <wgt id="579">6.45508e-12</wgt>
  <wgt id="580">6.49801e-12</wgt>
  <wgt id="581">6.77085e-12</wgt>
  <wgt id="582">6.32554e-12</wgt>
  <wgt id="583">6.39691e-12</wgt>
  <wgt id="584">6.33493e-12</wgt>
  <wgt id="585">6.30567e-12</wgt>
  <wgt id="586">6.17469e-12</wgt>
  <wgt id="587">6.42736e-12</wgt>
  <wgt id="588">6.3351e-12</wgt>
  <wgt id="589">6.47743e-12</wgt>
  <wgt id="590">6.39761e-12</wgt>
  <wgt id="591">6.59078e-12</wgt>
  <wgt id="592">6.13523e-12</wgt>
  <wgt id="593">6.30158e-12</wgt>
  <wgt id="594">6.56163e-12</wgt>
  <wgt id="595">6.34117e-12</wgt>
  <wgt id="596">6.49109e-12</wgt>
  <wgt id="597">6.17538e-12</wgt>
  <wgt id="598">6.19317e-12</wgt>
  <wgt id="599">6.59186e-12</wgt>
  <wgt id="600">6.32576e-12</wgt>
  <wgt id="601">6.16563e-12</wgt>
  <wgt id="602">6.19186e-12</wgt>
  <wgt id="603">6.22714e-12</wgt>
  <wgt id="604">6.43549e-12</wgt>
  <wgt id="605">6.58929e-12</wgt>
  <wgt id="606">6.26129e-12</wgt>
  <wgt id="607">6.30341e-12</wgt>
  <wgt id="608">6.38578e-12</wgt>
  <wgt id="609">6.03347e-12</wgt>
  <wgt id="610">6.11668e-12</wgt>
  <wgt id="611">6.39247e-12</wgt>
  <wgt id="612">6.81311e-12</wgt>
  <wgt id="613">6.33037e-12</wgt>
  <wgt id="614">6.39006e-12</wgt>
  <wgt id="615">6.25134e-12</wgt>
  <wgt id="616">6.68699e-12</wgt>
  <wgt id="617">6.50194e-12</wgt>
  <wgt id="618">6.57146e-12</wgt>
  <wgt id="619">6.30124e-12</wgt>
  <wgt id="620">6.54274e-12</wgt>
  <wgt id="621">6.39132e-12</wgt>
  <wgt id="622">6.42736e-12</wgt>
  <wgt id="623">6.50235e-12</wgt>
  <wgt id="624">6.31903e-12</wgt>
  <wgt id="625">6.25035e-12</wgt>
  <wgt id="626">6.15807e-12</wgt>
  <wgt id="627">6.09759e-12</wgt>
  <wgt id="628">6.53052e-12</wgt>
  <wgt id="629">6.24773e-12</wgt>
  <wgt id="630">6.15502e-12</wgt>
  <wgt id="631">6.36432e-12</wgt>
  <wgt id="632">6.11361e-12</wgt>
  <wgt id="633">6.29061e-12</wgt>
  <wgt id="634">6.3205e-12</wgt>
  <wgt id="635">6.19766e-12</wgt>
  <wgt id="636">6.40773e-12</wgt>
  <wgt id="637">6.3663e-12</wgt>
  <wgt id="638">6.14213e-12</wgt>
  <wgt id="639">6.27007e-12</wgt>
  <wgt id="640">6.35594e-12</wgt>
  <wgt id="641">6.41201e-12</wgt>
  <wgt id="642">6.11222e-12</wgt>
  <wgt id="643">6.31694e-12</wgt>
  <wgt id="644">6.03029e-12</wgt>
  <wgt id="645">6.37844e-12</wgt>
  <wgt id="646">6.38386e-12</wgt>
  <wgt id="647">6.26075e-12</wgt>
  <wgt id="648">6.41e-12</wgt>
  <wgt id="649">6.41572e-12</wgt>
  <wgt id="650">6.20775e-12</wgt>
  <wgt id="651">6.46589e-12</wgt>
  <wgt id="652">6.30561e-12</wgt>
  <wgt id="653">6.17207e-12</wgt>
  <wgt id="654">6.27312e-12</wgt>
  <wgt id="655">6.23689e-12</wgt>
  <wgt id="656">6.32316e-12</wgt>
  <wgt id="657">6.60462e-12</wgt>
  <wgt id="658">6.38886e-12</wgt>
  <wgt id="659">6.09874e-12</wgt>
  <wgt id="660">6.43868e-12</wgt>
  <wgt id="661">6.26211e-12</wgt>
  <wgt id="662">6.31636e-12</wgt>
  <wgt id="663">6.3512e-12</wgt>
  <wgt id="664">6.27311e-12</wgt>
  <wgt id="665">6.33703e-12</wgt>
  <wgt id="666">6.31103e-12</wgt>
  <wgt id="667">6.56411e-12</wgt>
  <wgt id="668">6.32864e-12</wgt>
  <wgt id="669">6.49372e-12</wgt>
  <wgt id="670">6.46613e-12</wgt>
  <wgt id="671">6.27939e-12</wgt>
  <wgt id="672">6.09003e-12</wgt>
  <wgt id="673">6.37751e-12</wgt>
  <wgt id="674">6.20803e-12</wgt>
  <wgt id="675">6.24216e-12</wgt>
  <wgt id="676">7.92967e-12</wgt>
  <wgt id="677">8.03615e-12</wgt>
  <wgt id="678">8.31499e-12</wgt>
  <wgt id="679">7.56418e-12</wgt>
  <wgt id="680">7.72944e-12</wgt>
  <wgt id="681">8.09383e-12</wgt>
  <wgt id="682">8.09851e-12</wgt>
  <wgt id="683">7.81831e-12</wgt>
  <wgt id="684">8.25125e-12</wgt>
  <wgt id="685">7.60564e-12</wgt>
  <wgt id="686">7.83691e-12</wgt>
  <wgt id="687">8.2382e-12</wgt>
  <wgt id="688">7.84441e-12</wgt>
  <wgt id="689">8.38336e-12</wgt>
  <wgt id="690">8.30557e-12</wgt>
  <wgt id="691">8.31444e-12</wgt>
  <wgt id="692">7.88413e-12</wgt>
  <wgt id="693">9.22282e-12</wgt>
  <wgt id="694">8.40183e-12</wgt>
  <wgt id="695">7.68122e-12</wgt>
  <wgt id="696">7.63146e-12</wgt>
  <wgt id="697">7.64682e-12</wgt>
  <wgt id="698">7.33086e-12</wgt>
  <wgt id="699">7.24489e-12</wgt>
  <wgt id="700">7.0567e-12</wgt>
  <wgt id="701">7.9335e-12</wgt>
  <wgt id="702">7.7111e-12</wgt>
  <wgt id="703">9.01031e-12</wgt>
  <wgt id="704">8.61342e-12</wgt>
  <wgt id="705">8.34492e-12</wgt>
  <wgt id="706">7.48755e-12</wgt>
  <wgt id="707">7.62201e-12</wgt>
  <wgt id="708">7.80946e-12</wgt>
  <wgt id="709">7.78097e-12</wgt>
  <wgt id="710">7.23411e-12</wgt>
  <wgt id="711">7.90798e-12</wgt>
  <wgt id="712">7.76697e-12</wgt>
  <wgt id="713">8.47322e-12</wgt>
  <wgt id="714">7.78964e-12</wgt>
  <wgt id="715">7.83436e-12</wgt>
  <wgt id="716">7.65083e-12</wgt>
  <wgt id="717">7.54431e-12</wgt>
  <wgt id="718">7.90714e-12</wgt>
  <wgt id="719">7.25794e-12</wgt>
  <wgt id="720">7.584e-12</wgt>
  <wgt id="721">7.37613e-12</wgt>
  <wgt id="722">7.10287e-12</wgt>
  <wgt id="723">8.41014e-12</wgt>
  <wgt id="724">8.27437e-12</wgt>
  <wgt id="725">8.33469e-12</wgt>
  <wgt id="726">7.98322e-12</wgt>
  <wgt id="727">7.77235e-12</wgt>
  <wgt id="728">7.79191e-12</wgt>
  <wgt id="729">7.45855e-12</wgt>
  <wgt id="730">8.41125e-12</wgt>
  <wgt id="731">7.82288e-12</wgt>
  <wgt id="732">8.67883e-12</wgt>
  <wgt id="733">7.83607e-12</wgt>
  <wgt id="734">8.10044e-12</wgt>
  <wgt id="735">7.96359e-12</wgt>
  <wgt id="736">7.77032e-12</wgt>
  <wgt id="737">8.02522e-12</wgt>
  <wgt id="738">7.63476e-12</wgt>
  <wgt id="739">8.02464e-12</wgt>
  <wgt id="740">8.77359e-12</wgt>
  <wgt id="741">7.1566e-12</wgt>
  <wgt id="742">7.83193e-12</wgt>
  <wgt id="743">7.62313e-12</wgt>
  <wgt id="744">7.76638e-12</wgt>
  <wgt id="745">8.23353e-12</wgt>
  <wgt id="746">8.35639e-12</wgt>
  <wgt id="747">7.22462e-12</wgt>
  <wgt id="748">7.82078e-12</wgt>
  <wgt id="749">8.311e-12</wgt>
  <wgt id="750">8.13864e-12</wgt>
  <wgt id="751">8.14233e-12</wgt>
  <wgt id="752">7.32519e-12</wgt>
  <wgt id="753">7.51326e-12</wgt>
  <wgt id="754">8.16622e-12</wgt>
  <wgt id="755">7.94626e-12</wgt>
  <wgt id="756">7.92437e-12</wgt>
  <wgt id="757">7.33725e-12</wgt>
  <wgt id="758">7.96284e-12</wgt>
  <wgt id="759">8.16601e-12</wgt>
  <wgt id="760">8.00418e-12</wgt>
  <wgt id="761">8.35736e-12</wgt>
  <wgt id="762">8.36686e-12</wgt>
  <wgt id="763">7.93013e-12</wgt>
  <wgt id="764">8.21376e-12</wgt>
  <wgt id="765">7.99849e-12</wgt>
  <wgt id="766">7.91068e-12</wgt>
  <wgt id="767">8.08551e-12</wgt>
  <wgt id="768">7.5058e-12</wgt>
  <wgt id="769">8.37237e-12</wgt>
  <wgt id="770">7.79747e-12</wgt>
  <wgt id="771">9.25353e-12</wgt>
  <wgt id="772">7.51955e-12</wgt>
  <wgt id="773">7.88392e-12</wgt>
  <wgt id="774">7.05873e-12</wgt>
  <wgt id="775">8.26963e-12</wgt>
  <wgt id="776">8.57371e-12</wgt>
  <wgt id="777">7.5967e-12</wgt>
  <wgt id="778">5.89452e-12</wgt>
  <wgt id="779">4.88505e-12</wgt>
  <wgt id="780">4.02998e-12</wgt>
  <wgt id="781">6.21923e-12</wgt>
  <wgt id="782">6.2775e-12</wgt>
  <wgt id="783">4.95037e-12</wgt>
  <wgt id="784">5.15877e-12</wgt>
  <wgt id="785">7.18611e-12</wgt>
  <wgt id="786">4.57801e-12</wgt>
  <wgt id="787">6.66084e-12</wgt>
  <wgt id="788">3.72256e-12</wgt>
  <wgt id="789">4.91302e-12</wgt>
  <wgt id="790">4.52226e-12</wgt>
  <wgt id="791">5.6496e-12</wgt>
  <wgt id="792">7.75891e-12</wgt>
  <wgt id="793">5.79014e-12</wgt>
  <wgt id="794">4.5366e-12</wgt>
  <wgt id="795">6.82729e-12</wgt>
  <wgt id="796">7.63775e-12</wgt>
  <wgt id="797">6.82531e-12</wgt>
  <wgt id="798">5.38785e-12</wgt>
  <wgt id="799">6.64653e-12</wgt>
  <wgt id="800">4.90975e-12</wgt>
  <wgt id="801">5.517e-12</wgt>
  <wgt id="802">4.56074e-12</wgt>
  <wgt id="803">7.84159e-12</wgt>
  <wgt id="804">6.79075e-12</wgt>
  <wgt id="805">6.86523e-12</wgt>
  <wgt id="806">6.54065e-12</wgt>
  <wgt id="807">5.65337e-12</wgt>
  <wgt id="808">5.71464e-12</wgt>
  <wgt id="809">5.48008e-12</wgt>
  <wgt id="810">6.62313e-12</wgt>
  <wgt id="811">6.35564e-12</wgt>
  <wgt id="812">4.54086e-12</wgt>
  <wgt id="813">4.61162e-12</wgt>
  <wgt id="814">4.90541e-12</wgt>
  <wgt id="815">4.89628e-12</wgt>
  <wgt id="816">4.43991e-12</wgt>
  <wgt id="817">6.13998e-12</wgt>
  <wgt id="818">5.92826e-12</wgt>
  <wgt id="819">4.90905e-12</wgt>
  <wgt id="820">5.87675e-12</wgt>
  <wgt id="821">6.67379e-12</wgt>
  <wgt id="822">4.97132e-12</wgt>
  <wgt id="823">6.74138e-12</wgt>
  <wgt id="824">7.82894e-12</wgt>
  <wgt id="825">4.38885e-12</wgt>
  <wgt id="826">6.22436e-12</wgt>
  <wgt id="827">3.69712e-12</wgt>
  <wgt id="828">7.51415e-12</wgt>
  <wgt id="829">6.0667e-12</wgt>
  <wgt id="830">4.17575e-12</wgt>
  <wgt id="831">6.32414e-12</wgt>
  <wgt id="832">9.47622e-12</wgt>
  <wgt id="833">5.48485e-12</wgt>
  <wgt id="834">8.97059e-12</wgt>
  <wgt id="835">4.84953e-12</wgt>
  <wgt id="836">5.76729e-12</wgt>
  <wgt id="837">6.59476e-12</wgt>
  <wgt id="838">5.5357e-12</wgt>
  <wgt id="839">6.29269e-12</wgt>
  <wgt id="840">5.5234e-12</wgt>
  <wgt id="841">7.16913e-12</wgt>
  <wgt id="842">5.44004e-12</wgt>
  <wgt id="843">5.83017e-12</wgt>
  <wgt id="844">6.12123e-12</wgt>
  <wgt id="845">8.31022e-12</wgt>
  <wgt id="846">5.74589e-12</wgt>
  <wgt id="847">5.93733e-12</wgt>
  <wgt id="848">5.0831e-12</wgt>
  <wgt id="849">6.04167e-12</wgt>
  <wgt id="850">7.5772e-12</wgt>
  <wgt id="851">6.44727e-12</wgt>
  <wgt id="852">4.93798e-12</wgt>
  <wgt id="853">6.45967e-12</wgt>
  <wgt id="854">7.13731e-12</wgt>
  <wgt id="855">6.70453e-12</wgt>
  <wgt id="856">4.25919e-12</wgt>
  <wgt id="857">5.86127e-12</wgt>
  <wgt id="858">5.71332e-12</wgt>
  <wgt id="859">5.54316e-12</wgt>
  <wgt id="860">6.35131e-12</wgt>
  <wgt id="861">5.24976e-12</wgt>
  <wgt id="862">5.96048e-12</wgt>
  <wgt id="863">6.21916e-12</wgt>
  <wgt id="864">6.19094e-12</wgt>
  <wgt id="865">8.25031e-12</wgt>
  <wgt id="866">9.06374e-12</wgt>
  <wgt id="867">5.94826e-12</wgt>
  <wgt id="868">5.78782e-12</wgt>
  <wgt id="869">4.59662e-12</wgt>
  <wgt id="870">4.84908e-12</wgt>
  <wgt id="871">4.71467e-12</wgt>
  <wgt id="872">6.98224e-12</wgt>
  <wgt id="873">4.96632e-12</wgt>
  <wgt id="874">6.18074e-12</wgt>
  <wgt id="875">5.12892e-12</wgt>
  <wgt id="876">6.94688e-12</wgt>
  <wgt id="877">6.62734e-12</wgt>
  <wgt id="878">5.08752e-12</wgt>
  <wgt id="879">7.92967e-12</wgt>
  <wgt id="880">8.03615e-12</wgt>
  <wgt id="881">8.31499e-12</wgt>
  <wgt id="882">7.56418e-12</wgt>
  <wgt id="883">7.72944e-12</wgt>
  <wgt id="884">8.09383e-12</wgt>
  <wgt id="885">8.09851e-12</wgt>
  <wgt id="886">7.81831e-12</wgt>
  <wgt id="887">8.25125e-12</wgt>
  <wgt id="888">7.60564e-12</wgt>
  <wgt id="889">7.83691e-12</wgt>
  <wgt id="890">8.2382e-12</wgt>
  <wgt id="891">7.84441e-12</wgt>
  <wgt id="892">8.38336e-12</wgt>
  <wgt id="893">8.30557e-12</wgt>
  <wgt id="894">8.31444e-12</wgt>
  <wgt id="895">7.88413e-12</wgt>
  <wgt id="896">9.22282e-12</wgt>
  <wgt id="897">8.40183e-12</wgt>
  <wgt id="898">7.68122e-12</wgt>
  <wgt id="899">7.63146e-12</wgt>
  <wgt id="900">7.64682e-12</wgt>
  <wgt id="901">7.33086e-12</wgt>
  <wgt id="902">7.24489e-12</wgt>
  <wgt id="903">7.0567e-12</wgt>
  <wgt id="904">7.9335e-12</wgt>
  <wgt id="905">7.7111e-12</wgt>
  <wgt id="906">9.01031e-12</wgt>
  <wgt id="907">8.61342e-12</wgt>
  <wgt id="908">8.34492e-12</wgt>
  <wgt id="909">7.48755e-12</wgt>
  <wgt id="910">7.62201e-12</wgt>
  <wgt id="911">7.80946e-12</wgt>
  <wgt id="912">7.78097e-12</wgt>
  <wgt id="913">7.23411e-12</wgt>
  <wgt id="914">7.90798e-12</wgt>
  <wgt id="915">7.76697e-12</wgt>
  <wgt id="916">8.47322e-12</wgt>
  <wgt id="917">7.78964e-12</wgt>
  <wgt id="918">7.83436e-12</wgt>
  <wgt id="919">7.65083e-12</wgt>
  <wgt id="920">7.54431e-12</wgt>
  <wgt id="921">7.90714e-12</wgt>
  <wgt id="922">7.25794e-12</wgt>
  <wgt id="923">7.584e-12</wgt>
  <wgt id="924">7.37613e-12</wgt>
  <wgt id="925">7.10287e-12</wgt>
  <wgt id="926">8.41014e-12</wgt>
  <wgt id="927">8.27437e-12</wgt>
  <wgt id="928">8.33469e-12</wgt>
  <wgt id="929">7.98322e-12</wgt>
  <wgt id="930">7.77235e-12</wgt>
  <wgt id="931">7.79191e-12</wgt>
  <wgt id="932">7.45855e-12</wgt>
  <wgt id="933">8.41125e-12</wgt>
  <wgt id="934">7.82288e-12</wgt>
  <wgt id="935">8.67883e-12</wgt>
  <wgt id="936">7.83607e-12</wgt>
  <wgt id="937">8.10044e-12</wgt>
  <wgt id="938">7.96359e-12</wgt>
  <wgt id="939">7.77032e-12</wgt>
  <wgt id="940">8.02522e-12</wgt>
  <wgt id="941">7.63476e-12</wgt>
  <wgt id="942">8.02464e-12</wgt>
  <wgt id="943">8.77359e-12</wgt>
  <wgt id="944">7.1566e-12</wgt>
  <wgt id="945">7.83193e-12</wgt>
  <wgt id="946">7.62313e-12</wgt>
  <wgt id="947">7.76638e-12</wgt>
  <wgt id="948">8.23353e-12</wgt>
  <wgt id="949">8.35639e-12</wgt>
  <wgt id="950">7.22462e-12</wgt>
  <wgt id="951">7.82078e-12</wgt>
  <wgt id="952">8.311e-12</wgt>
  <wgt id="953">8.13864e-12</wgt>
  <wgt id="954">8.14233e-12</wgt>
  <wgt id="955">7.32519e-12</wgt>
  <wgt id="956">7.51326e-12</wgt>
  <wgt id="957">8.16622e-12</wgt>
  <wgt id="958">7.94626e-12</wgt>
  <wgt id="959">7.92437e-12</wgt>
  <wgt id="960">7.33725e-12</wgt>
  <wgt id="961">7.96284e-12</wgt>
  <wgt id="962">8.16601e-12</wgt>
  <wgt id="963">8.00418e-12</wgt>
  <wgt id="964">8.35736e-12</wgt>
  <wgt id="965">8.36686e-12</wgt>
  <wgt id="966">7.93013e-12</wgt>
  <wgt id="967">8.21376e-12</wgt>
  <wgt id="968">7.99849e-12</wgt>
  <wgt id="969">7.91068e-12</wgt>
  <wgt id="970">8.08551e-12</wgt>
  <wgt id="971">7.5058e-12</wgt>
  <wgt id="972">8.37237e-12</wgt>
  <wgt id="973">7.79747e-12</wgt>
  <wgt id="974">9.25353e-12</wgt>
  <wgt id="975">7.51955e-12</wgt>
  <wgt id="976">7.88392e-12</wgt>
  <wgt id="977">7.05873e-12</wgt>
  <wgt id="978">8.26963e-12</wgt>
  <wgt id="979">8.57371e-12</wgt>
  <wgt id="980">7.9297e-12</wgt>
  <wgt id="981">7.96111e-12</wgt>
  <wgt id="982">7.6981e-12</wgt>
</rwgt>
</event>
<event>
 5   1  0.5790000E-11  0.2222226E+04  0.7818608E-02  0.7740549E-01
       21   -1    0    0  502  501  0.00000000000E+00  0.00000000000E+00  0.17561496567E+04  0.17561496567E+04  0.00000000000E+00 0. -1.
       21   -1    0    0  501  502 -0.00000000000E+00 -0.00000000000E+00 -0.70299920149E+03  0.70299920149E+03  0.00000000000E+00 0.  1.
       39    2    1    2    0    0  0.00000000000E+00  0.00000000000E+00  0.10531504552E+04  0.24591488582E+04  0.22222257368E+04 0.  0.
       25    1    3    3    0    0  0.63434574277E+03  0.89910406802E+03  0.42658618859E+03  0.11867533117E+04  0.12500000000E+03 0.  0.
       25    1    3    3    0    0 -0.63434574277E+03 -0.89910406802E+03  0.62656426660E+03  0.12723955465E+04  0.12500000000E+03 0.  0.
<mgrwt>
<rscale>  0 0.22222257E+04</rscale>
<asrwt>0</asrwt>
<pdfrwt beam="1">  1       21 0.27017687E+00 0.22222257E+04</pdfrwt>
<pdfrwt beam="2">  1       21 0.10815372E+00 0.22222257E+04</pdfrwt>
<totfact> 0.12849429E+01</totfact>
</mgrwt>
<rwgt>
  <wgt id="1">5.79e-12</wgt>
  <wgt id="2">5.03417e-12</wgt>
  <wgt id="3">6.72913e-12</wgt>
  <wgt id="4">5.79e-12</wgt>
  <wgt id="5">5.03417e-12</wgt>
  <wgt id="6">6.72913e-12</wgt>
  <wgt id="7">5.79e-12</wgt>
  <wgt id="8">5.03417e-12</wgt>
  <wgt id="9">6.72913e-12</wgt>
  <wgt id="10">6.0242e-12</wgt>
  <wgt id="11">6.02076e-12</wgt>
  <wgt id="12">6.01435e-12</wgt>
  <wgt id="13">6.00765e-12</wgt>
  <wgt id="14">6.04603e-12</wgt>
  <wgt id="15">6.03459e-12</wgt>
  <wgt id="16">6.01498e-12</wgt>
  <wgt id="17">6.04612e-12</wgt>
  <wgt id="18">6.01458e-12</wgt>
  <wgt id="19">6.04035e-12</wgt>
  <wgt id="20">6.01424e-12</wgt>
  <wgt id="21">5.97898e-12</wgt>
  <wgt id="22">5.98811e-12</wgt>
  <wgt id="23">5.95058e-12</wgt>
  <wgt id="24">5.98641e-12</wgt>
  <wgt id="25">6.00416e-12</wgt>
  <wgt id="26">6.04279e-12</wgt>
  <wgt id="27">6.01785e-12</wgt>
  <wgt id="28">5.9902e-12</wgt>
  <wgt id="29">6.02767e-12</wgt>
  <wgt id="30">5.98792e-12</wgt>
  <wgt id="31">6.04984e-12</wgt>
  <wgt id="32">5.99713e-12</wgt>
  <wgt id="33">6.03489e-12</wgt>
  <wgt id="34">5.99297e-12</wgt>
  <wgt id="35">6.00291e-12</wgt>
  <wgt id="36">6.04804e-12</wgt>
  <wgt id="37">6.00694e-12</wgt>
  <wgt id="38">6.0038e-12</wgt>
  <wgt id="39">6.10957e-12</wgt>
  <wgt id="40">6.02875e-12</wgt>
  <wgt id="41">6.02089e-12</wgt>
  <wgt id="42">6.03319e-12</wgt>
  <wgt id="43">6.02346e-12</wgt>
  <wgt id="44">6.0331e-12</wgt>
  <wgt id="45">6.03454e-12</wgt>
  <wgt id="46">6.01618e-12</wgt>
  <wgt id="47">6.04236e-12</wgt>
  <wgt id="48">6.03338e-12</wgt>
  <wgt id="49">6.00117e-12</wgt>
  <wgt id="50">6.00845e-12</wgt>
  <wgt id="51">6.01382e-12</wgt>
  <wgt id="52">6.03798e-12</wgt>
  <wgt id="53">6.02041e-12</wgt>
  <wgt id="54">6.03221e-12</wgt>
  <wgt id="55">6.02393e-12</wgt>
  <wgt id="56">6.03772e-12</wgt>
  <wgt id="57">6.02407e-12</wgt>
  <wgt id="58">6.00699e-12</wgt>
  <wgt id="59">6.01695e-12</wgt>
  <wgt id="60">6.01644e-12</wgt>
  <wgt id="61">5.98754e-12</wgt>
  <wgt id="62">6.00282e-12</wgt>
  <wgt id="63">6.01543e-12</wgt>
  <wgt id="64">6.02384e-12</wgt>
  <wgt id="65">6.02564e-12</wgt>
  <wgt id="66">6.01942e-12</wgt>
  <wgt id="67">5.99594e-12</wgt>
  <wgt id="68">6.02305e-12</wgt>
  <wgt id="69">6.02273e-12</wgt>
  <wgt id="70">6.02323e-12</wgt>
  <wgt id="71">6.0194e-12</wgt>
  <wgt id="72">6.00049e-12</wgt>
  <wgt id="73">6.03864e-12</wgt>
  <wgt id="74">6.03069e-12</wgt>
  <wgt id="75">6.02119e-12</wgt>
  <wgt id="76">6.04611e-12</wgt>
  <wgt id="77">6.01915e-12</wgt>
  <wgt id="78">6.0203e-12</wgt>
  <wgt id="79">6.04071e-12</wgt>
  <wgt id="80">5.99309e-12</wgt>
  <wgt id="81">6.02314e-12</wgt>
  <wgt id="82">6.02597e-12</wgt>
  <wgt id="83">5.99865e-12</wgt>
  <wgt id="84">6.01579e-12</wgt>
  <wgt id="85">6.00763e-12</wgt>
  <wgt id="86">6.04295e-12</wgt>
  <wgt id="87">5.98597e-12</wgt>
  <wgt id="88">6.03225e-12</wgt>
  <wgt id="89">6.02905e-12</wgt>
  <wgt id="90">6.04137e-12</wgt>
  <wgt id="91">6.03097e-12</wgt>
  <wgt id="92">6.0369e-12</wgt>
  <wgt id="93">6.03108e-12</wgt>
  <wgt id="94">6.01655e-12</wgt>
  <wgt id="95">6.04056e-12</wgt>
  <wgt id="96">6.032e-12</wgt>
  <wgt id="97">6.00827e-12</wgt>
  <wgt id="98">6.02573e-12</wgt>
  <wgt id="99">6.01042e-12</wgt>
  <wgt id="100">6.03598e-12</wgt>
  <wgt id="101">6.0256e-12</wgt>
  <wgt id="102">6.02034e-12</wgt>
  <wgt id="103">6.03704e-12</wgt>
  <wgt id="104">6.01816e-12</wgt>
  <wgt id="105">6.0339e-12</wgt>
  <wgt id="106">6.013e-12</wgt>
  <wgt id="107">6.04794e-12</wgt>
  <wgt id="108">6.01537e-12</wgt>
  <wgt id="109">6.02936e-12</wgt>
  <wgt id="110">6.02256e-12</wgt>
  <wgt id="111">6.06127e-12</wgt>
  <wgt id="112">6.06086e-12</wgt>
  <wgt id="113">8.28009e-12</wgt>
  <wgt id="114">8.20104e-12</wgt>
  <wgt id="115">8.06355e-12</wgt>
  <wgt id="116">1.1046e-11</wgt>
  <wgt id="117">6.64584e-12</wgt>
  <wgt id="118">6.66865e-12</wgt>
  <wgt id="119">6.63283e-12</wgt>
  <wgt id="120">6.64633e-12</wgt>
  <wgt id="121">6.64551e-12</wgt>
  <wgt id="122">6.63452e-12</wgt>
  <wgt id="123">6.6614e-12</wgt>
  <wgt id="124">6.63649e-12</wgt>
  <wgt id="125">6.65177e-12</wgt>
  <wgt id="126">6.65616e-12</wgt>
  <wgt id="127">6.63894e-12</wgt>
  <wgt id="128">6.66631e-12</wgt>
  <wgt id="129">6.62542e-12</wgt>
  <wgt id="130">6.68135e-12</wgt>
  <wgt id="131">6.60914e-12</wgt>
  <wgt id="132">6.47089e-12</wgt>
  <wgt id="133">6.85292e-12</wgt>
  <wgt id="134">6.57575e-12</wgt>
  <wgt id="135">6.70067e-12</wgt>
  <wgt id="136">6.73593e-12</wgt>
  <wgt id="137">6.5372e-12</wgt>
  <wgt id="138">6.91599e-12</wgt>
  <wgt id="139">6.38641e-12</wgt>
  <wgt id="140">6.60669e-12</wgt>
  <wgt id="141">6.67612e-12</wgt>
  <wgt id="142">6.64553e-12</wgt>
  <wgt id="143">6.65998e-12</wgt>
  <wgt id="144">6.43038e-12</wgt>
  <wgt id="145">6.84925e-12</wgt>
  <wgt id="146">6.71378e-12</wgt>
  <wgt id="147">6.59122e-12</wgt>
  <wgt id="148">6.66763e-12</wgt>
  <wgt id="149">6.64429e-12</wgt>
  <wgt id="150">6.70185e-12</wgt>
  <wgt id="151">6.61959e-12</wgt>
  <wgt id="152">6.64818e-12</wgt>
  <wgt id="153">6.64497e-12</wgt>
  <wgt id="154">6.68435e-12</wgt>
  <wgt id="155">6.59448e-12</wgt>
  <wgt id="156">6.80805e-12</wgt>
  <wgt id="157">6.4851e-12</wgt>
  <wgt id="158">7.98758e-12</wgt>
  <wgt id="159">8.02099e-12</wgt>
  <wgt id="160">7.96038e-12</wgt>
  <wgt id="161">7.96811e-12</wgt>
  <wgt id="162">8.00904e-12</wgt>
  <wgt id="163">7.97893e-12</wgt>
  <wgt id="164">7.99998e-12</wgt>
  <wgt id="165">7.9906e-12</wgt>
  <wgt id="166">7.98507e-12</wgt>
  <wgt id="167">7.98169e-12</wgt>
  <wgt id="168">7.99552e-12</wgt>
  <wgt id="169">7.95367e-12</wgt>
  <wgt id="170">8.00851e-12</wgt>
  <wgt id="171">7.9802e-12</wgt>
  <wgt id="172">7.99755e-12</wgt>
  <wgt id="173">7.98105e-12</wgt>
  <wgt id="174">7.98956e-12</wgt>
  <wgt id="175">7.76457e-12</wgt>
  <wgt id="176">8.27823e-12</wgt>
  <wgt id="177">8.02667e-12</wgt>
  <wgt id="178">7.9515e-12</wgt>
  <wgt id="179">8.34326e-12</wgt>
  <wgt id="180">7.43069e-12</wgt>
  <wgt id="181">7.74619e-12</wgt>
  <wgt id="182">8.14736e-12</wgt>
  <wgt id="183">7.84056e-12</wgt>
  <wgt id="184">8.06027e-12</wgt>
  <wgt id="185">7.91312e-12</wgt>
  <wgt id="186">8.07652e-12</wgt>
  <wgt id="187">7.90859e-12</wgt>
  <wgt id="188">8.12763e-12</wgt>
  <wgt id="189">7.93254e-12</wgt>
  <wgt id="190">8.00975e-12</wgt>
  <wgt id="191">8.01174e-12</wgt>
  <wgt id="192">7.97307e-12</wgt>
  <wgt id="193">8.10622e-12</wgt>
  <wgt id="194">7.92818e-12</wgt>
  <wgt id="195">7.76601e-12</wgt>
  <wgt id="196">8.36928e-12</wgt>
  <wgt id="197">8.02783e-12</wgt>
  <wgt id="198">7.97772e-12</wgt>
  <wgt id="199">7.98758e-12</wgt>
  <wgt id="200">8.05863e-12</wgt>
  <wgt id="201">8.03338e-12</wgt>
  <wgt id="202">8.00916e-12</wgt>
  <wgt id="203">7.97308e-12</wgt>
  <wgt id="204">7.95559e-12</wgt>
  <wgt id="205">7.94106e-12</wgt>
  <wgt id="206">7.79213e-12</wgt>
  <wgt id="207">7.83803e-12</wgt>
  <wgt id="208">7.74685e-12</wgt>
  <wgt id="209">7.81433e-12</wgt>
  <wgt id="210">7.77606e-12</wgt>
  <wgt id="211">7.78968e-12</wgt>
  <wgt id="212">7.79405e-12</wgt>
  <wgt id="213">7.79149e-12</wgt>
  <wgt id="214">7.79321e-12</wgt>
  <wgt id="215">7.79752e-12</wgt>
  <wgt id="216">7.78836e-12</wgt>
  <wgt id="217">7.81189e-12</wgt>
  <wgt id="218">7.77701e-12</wgt>
  <wgt id="219">7.78216e-12</wgt>
  <wgt id="220">7.79821e-12</wgt>
  <wgt id="221">7.79171e-12</wgt>
  <wgt id="222">7.79227e-12</wgt>
  <wgt id="223">7.37674e-12</wgt>
  <wgt id="224">8.17144e-12</wgt>
  <wgt id="225">7.69983e-12</wgt>
  <wgt id="226">7.90886e-12</wgt>
  <wgt id="227">7.7196e-12</wgt>
  <wgt id="228">7.82398e-12</wgt>
  <wgt id="229">7.68499e-12</wgt>
  <wgt id="230">7.84534e-12</wgt>
  <wgt id="231">8.02741e-12</wgt>
  <wgt id="232">7.59896e-12</wgt>
  <wgt id="233">7.74922e-12</wgt>
  <wgt id="234">7.86173e-12</wgt>
  <wgt id="235">7.5754e-12</wgt>
  <wgt id="236">7.97998e-12</wgt>
  <wgt id="237">7.6567e-12</wgt>
  <wgt id="238">7.83776e-12</wgt>
  <wgt id="239">7.7354e-12</wgt>
  <wgt id="240">7.89435e-12</wgt>
  <wgt id="241">7.70865e-12</wgt>
  <wgt id="242">7.89179e-12</wgt>
  <wgt id="243">7.89562e-12</wgt>
  <wgt id="244">7.81771e-12</wgt>
  <wgt id="245">7.78736e-12</wgt>
  <wgt id="246">7.84357e-12</wgt>
  <wgt id="247">7.79213e-12</wgt>
  <wgt id="248">7.86552e-12</wgt>
  <wgt id="249">7.83902e-12</wgt>
  <wgt id="250">7.81286e-12</wgt>
  <wgt id="251">7.77546e-12</wgt>
  <wgt id="252">7.75723e-12</wgt>
  <wgt id="253">7.74423e-12</wgt>
  <wgt id="254">7.57593e-12</wgt>
  <wgt id="255">7.58285e-12</wgt>
  <wgt id="256">7.56835e-12</wgt>
  <wgt id="257">7.58186e-12</wgt>
  <wgt id="258">7.57156e-12</wgt>
  <wgt id="259">7.62629e-12</wgt>
  <wgt id="260">7.52718e-12</wgt>
  <wgt id="261">7.58592e-12</wgt>
  <wgt id="262">7.56404e-12</wgt>
  <wgt id="263">7.57186e-12</wgt>
  <wgt id="264">7.58064e-12</wgt>
  <wgt id="265">7.56736e-12</wgt>
  <wgt id="266">7.59291e-12</wgt>
  <wgt id="267">7.57832e-12</wgt>
  <wgt id="268">7.57244e-12</wgt>
  <wgt id="269">7.59869e-12</wgt>
  <wgt id="270">7.56043e-12</wgt>
  <wgt id="271">7.55959e-12</wgt>
  <wgt id="272">7.59402e-12</wgt>
  <wgt id="273">7.55464e-12</wgt>
  <wgt id="274">7.59204e-12</wgt>
  <wgt id="275">7.53927e-12</wgt>
  <wgt id="276">7.61376e-12</wgt>
  <wgt id="277">7.53268e-12</wgt>
  <wgt id="278">7.61563e-12</wgt>
  <wgt id="279">7.43728e-12</wgt>
  <wgt id="280">7.74999e-12</wgt>
  <wgt id="281">7.54322e-12</wgt>
  <wgt id="282">7.58014e-12</wgt>
  <wgt id="283">7.35286e-12</wgt>
  <wgt id="284">7.8518e-12</wgt>
  <wgt id="285">7.20509e-12</wgt>
  <wgt id="286">7.88483e-12</wgt>
  <wgt id="287">7.60057e-12</wgt>
  <wgt id="288">7.54431e-12</wgt>
  <wgt id="289">7.63102e-12</wgt>
  <wgt id="290">7.4504e-12</wgt>
  <wgt id="291">7.55217e-12</wgt>
  <wgt id="292">7.57925e-12</wgt>
  <wgt id="293">7.51572e-12</wgt>
  <wgt id="294">7.63561e-12</wgt>
  <wgt id="295">7.42875e-12</wgt>
  <wgt id="296">7.75564e-12</wgt>
  <wgt id="297">7.56961e-12</wgt>
  <wgt id="298">7.60651e-12</wgt>
  <wgt id="299">7.55181e-12</wgt>
  <wgt id="300">7.63987e-12</wgt>
  <wgt id="301">7.46032e-12</wgt>
  <wgt id="302">7.85951e-12</wgt>
  <wgt id="303">7.51165e-12</wgt>
  <wgt id="304">7.61245e-12</wgt>
  <wgt id="305">7.56544e-12</wgt>
  <wgt id="306">7.57262e-12</wgt>
  <wgt id="307">7.5575e-12</wgt>
  <wgt id="308">7.57197e-12</wgt>
  <wgt id="309">7.56091e-12</wgt>
  <wgt id="310">7.61736e-12</wgt>
  <wgt id="311">7.51714e-12</wgt>
  <wgt id="312">7.57345e-12</wgt>
  <wgt id="313">7.55676e-12</wgt>
  <wgt id="314">7.56116e-12</wgt>
  <wgt id="315">7.56923e-12</wgt>
  <wgt id="316">7.55703e-12</wgt>
  <wgt id="317">7.58345e-12</wgt>
  <wgt id="318">7.5706e-12</wgt>
  <wgt id="319">7.55603e-12</wgt>
  <wgt id="320">7.58946e-12</wgt>
  <wgt id="321">7.55184e-12</wgt>
  <wgt id="322">7.54592e-12</wgt>
  <wgt id="323">7.58781e-12</wgt>
  <wgt id="324">7.54851e-12</wgt>
  <wgt id="325">7.57993e-12</wgt>
  <wgt id="326">7.53556e-12</wgt>
  <wgt id="327">7.60346e-12</wgt>
  <wgt id="328">7.52591e-12</wgt>
  <wgt id="329">7.58767e-12</wgt>
  <wgt id="330">7.7792e-12</wgt>
  <wgt id="331">7.36141e-12</wgt>
  <wgt id="332">7.53819e-12</wgt>
  <wgt id="333">7.56748e-12</wgt>
  <wgt id="334">7.39238e-12</wgt>
  <wgt id="335">7.78081e-12</wgt>
  <wgt id="336">7.29855e-12</wgt>
  <wgt id="337">7.89199e-12</wgt>
  <wgt id="338">7.65151e-12</wgt>
  <wgt id="339">7.48552e-12</wgt>
  <wgt id="340">7.61654e-12</wgt>
  <wgt id="341">7.43601e-12</wgt>
  <wgt id="342">7.54846e-12</wgt>
  <wgt id="343">7.55592e-12</wgt>
  <wgt id="344">7.51146e-12</wgt>
  <wgt id="345">7.62783e-12</wgt>
  <wgt id="346">7.41341e-12</wgt>
  <wgt id="347">7.73987e-12</wgt>
  <wgt id="348">7.56176e-12</wgt>
  <wgt id="349">7.59118e-12</wgt>
  <wgt id="350">7.53507e-12</wgt>
  <wgt id="351">7.64202e-12</wgt>
  <wgt id="352">7.44325e-12</wgt>
  <wgt id="353">7.85293e-12</wgt>
  <wgt id="354">7.4707e-12</wgt>
  <wgt id="355">7.62268e-12</wgt>
  <wgt id="356">7.57593e-12</wgt>
  <wgt id="357">7.58678e-12</wgt>
  <wgt id="358">7.56544e-12</wgt>
  <wgt id="359">7.59214e-12</wgt>
  <wgt id="360">7.65541e-12</wgt>
  <wgt id="361">7.6052e-12</wgt>
  <wgt id="362">7.74101e-12</wgt>
  <wgt id="363">7.72275e-12</wgt>
  <wgt id="364">7.69258e-12</wgt>
  <wgt id="365">7.66615e-12</wgt>
  <wgt id="366">7.63761e-12</wgt>
  <wgt id="367">7.58067e-12</wgt>
  <wgt id="368">7.54724e-12</wgt>
  <wgt id="369">7.51118e-12</wgt>
  <wgt id="370">7.6052e-12</wgt>
  <wgt id="371">7.63782e-12</wgt>
  <wgt id="372">7.61977e-12</wgt>
  <wgt id="373">7.59345e-12</wgt>
  <wgt id="374">7.59565e-12</wgt>
  <wgt id="375">8.32139e-12</wgt>
  <wgt id="376">8.32214e-12</wgt>
  <wgt id="377">8.32047e-12</wgt>
  <wgt id="378">8.35194e-12</wgt>
  <wgt id="379">8.2911e-12</wgt>
  <wgt id="380">8.34465e-12</wgt>
  <wgt id="381">8.31215e-12</wgt>
  <wgt id="382">8.36109e-12</wgt>
  <wgt id="383">8.28214e-12</wgt>
  <wgt id="384">8.32671e-12</wgt>
  <wgt id="385">8.31623e-12</wgt>
  <wgt id="386">8.35085e-12</wgt>
  <wgt id="387">8.30877e-12</wgt>
  <wgt id="388">8.3141e-12</wgt>
  <wgt id="389">8.33047e-12</wgt>
  <wgt id="390">8.34174e-12</wgt>
  <wgt id="391">8.2997e-12</wgt>
  <wgt id="392">8.25607e-12</wgt>
  <wgt id="393">8.3585e-12</wgt>
  <wgt id="394">8.33031e-12</wgt>
  <wgt id="395">8.309e-12</wgt>
  <wgt id="396">8.33002e-12</wgt>
  <wgt id="397">8.31519e-12</wgt>
  <wgt id="398">8.29772e-12</wgt>
  <wgt id="399">8.34428e-12</wgt>
  <wgt id="400">8.30923e-12</wgt>
  <wgt id="401">8.34867e-12</wgt>
  <wgt id="402">8.25295e-12</wgt>
  <wgt id="403">8.35657e-12</wgt>
  <wgt id="404">8.52696e-12</wgt>
  <wgt id="405">7.82827e-12</wgt>
  <wgt id="406">8.17292e-12</wgt>
  <wgt id="407">8.64685e-12</wgt>
  <wgt id="408">8.39828e-12</wgt>
  <wgt id="409">8.17699e-12</wgt>
  <wgt id="410">8.07912e-12</wgt>
  <wgt id="411">8.43552e-12</wgt>
  <wgt id="412">8.30497e-12</wgt>
  <wgt id="413">8.34551e-12</wgt>
  <wgt id="414">8.22449e-12</wgt>
  <wgt id="415">8.39668e-12</wgt>
  <wgt id="416">8.55863e-12</wgt>
  <wgt id="417">7.99386e-12</wgt>
  <wgt id="418">8.33472e-12</wgt>
  <wgt id="419">8.24938e-12</wgt>
  <wgt id="420">8.46629e-12</wgt>
  <wgt id="421">8.23185e-12</wgt>
  <wgt id="422">8.29678e-12</wgt>
  <wgt id="423">8.33409e-12</wgt>
  <wgt id="424">8.51124e-12</wgt>
  <wgt id="425">8.1971e-12</wgt>
  <wgt id="426">8.32139e-12</wgt>
  <wgt id="427">8.21516e-12</wgt>
  <wgt id="428">8.5914e-12</wgt>
  <wgt id="429">8.40802e-12</wgt>
  <wgt id="430">8.65214e-12</wgt>
  <wgt id="431">8.60338e-12</wgt>
  <wgt id="432">8.55771e-12</wgt>
  <wgt id="433">8.51324e-12</wgt>
  <wgt id="434">8.45797e-12</wgt>
  <wgt id="435">8.34556e-12</wgt>
  <wgt id="436">8.28797e-12</wgt>
  <wgt id="437">8.23284e-12</wgt>
  <wgt id="438">8.40802e-12</wgt>
  <wgt id="439">8.43463e-12</wgt>
  <wgt id="440">8.41859e-12</wgt>
  <wgt id="441">8.40013e-12</wgt>
  <wgt id="442">8.39373e-12</wgt>
  <wgt id="443">7.93474e-12</wgt>
  <wgt id="444">7.99535e-12</wgt>
  <wgt id="445">7.95914e-12</wgt>
  <wgt id="446">7.87876e-12</wgt>
  <wgt id="447">7.9272e-12</wgt>
  <wgt id="448">7.73735e-12</wgt>
  <wgt id="449">8.07071e-12</wgt>
  <wgt id="450">7.97212e-12</wgt>
  <wgt id="451">7.91725e-12</wgt>
  <wgt id="452">8.10652e-12</wgt>
  <wgt id="453">8.01146e-12</wgt>
  <wgt id="454">7.58202e-12</wgt>
  <wgt id="455">7.97089e-12</wgt>
  <wgt id="456">7.97209e-12</wgt>
  <wgt id="457">7.96135e-12</wgt>
  <wgt id="458">8.05085e-12</wgt>
  <wgt id="459">7.99936e-12</wgt>
  <wgt id="460">8.03338e-12</wgt>
  <wgt id="461">7.77158e-12</wgt>
  <wgt id="462">7.88007e-12</wgt>
  <wgt id="463">7.82899e-12</wgt>
  <wgt id="464">7.89629e-12</wgt>
  <wgt id="465">8.01711e-12</wgt>
  <wgt id="466">7.80709e-12</wgt>
  <wgt id="467">7.86608e-12</wgt>
  <wgt id="468">7.91918e-12</wgt>
  <wgt id="469">7.91842e-12</wgt>
  <wgt id="470">7.84079e-12</wgt>
  <wgt id="471">7.85567e-12</wgt>
  <wgt id="472">7.97565e-12</wgt>
  <wgt id="473">7.69512e-12</wgt>
  <wgt id="474">5.79e-12</wgt>
  <wgt id="475">5.89657e-12</wgt>
  <wgt id="476">5.71026e-12</wgt>
  <wgt id="477">5.71363e-12</wgt>
  <wgt id="478">5.84197e-12</wgt>
  <wgt id="479">5.6292e-12</wgt>
  <wgt id="480">6.04373e-12</wgt>
  <wgt id="481">5.78084e-12</wgt>
  <wgt id="482">5.721e-12</wgt>
  <wgt id="483">5.67892e-12</wgt>
  <wgt id="484">5.99609e-12</wgt>
  <wgt id="485">5.56099e-12</wgt>
  <wgt id="486">6.05835e-12</wgt>
  <wgt id="487">5.75946e-12</wgt>
  <wgt id="488">5.89598e-12</wgt>
  <wgt id="489">5.42527e-12</wgt>
  <wgt id="490">5.5803e-12</wgt>
  <wgt id="491">5.75635e-12</wgt>
  <wgt id="492">5.69187e-12</wgt>
  <wgt id="493">5.50185e-12</wgt>
  <wgt id="494">5.54931e-12</wgt>
  <wgt id="495">5.80341e-12</wgt>
  <wgt id="496">5.58272e-12</wgt>
  <wgt id="497">5.51209e-12</wgt>
  <wgt id="498">5.95251e-12</wgt>
  <wgt id="499">5.75223e-12</wgt>
  <wgt id="500">5.65959e-12</wgt>
  <wgt id="501">6.00844e-12</wgt>
  <wgt id="502">5.81848e-12</wgt>
  <wgt id="503">5.77269e-12</wgt>
  <wgt id="504">5.92942e-12</wgt>
  <wgt id="505">5.80781e-12</wgt>
  <wgt id="506">5.65773e-12</wgt>
  <wgt id="507">5.78986e-12</wgt>
  <wgt id="508">6.01909e-12</wgt>
  <wgt id="509">5.43301e-12</wgt>
  <wgt id="510">5.8939e-12</wgt>
  <wgt id="511">5.57419e-12</wgt>
  <wgt id="512">6.0176e-12</wgt>
  <wgt id="513">5.98542e-12</wgt>
  <wgt id="514">5.92073e-12</wgt>
  <wgt id="515">5.80907e-12</wgt>
  <wgt id="516">6.1767e-12</wgt>
  <wgt id="517">5.92637e-12</wgt>
  <wgt id="518">5.95941e-12</wgt>
  <wgt id="519">5.60616e-12</wgt>
  <wgt id="520">5.91392e-12</wgt>
  <wgt id="521">5.85747e-12</wgt>
  <wgt id="522">6.04257e-12</wgt>
  <wgt id="523">5.66416e-12</wgt>
  <wgt id="524">5.76437e-12</wgt>
  <wgt id="525">5.8832e-12</wgt>
  <wgt id="526">5.92362e-12</wgt>
  <wgt id="527">5.79496e-12</wgt>
  <wgt id="528">5.81902e-12</wgt>
  <wgt id="529">5.67994e-12</wgt>
  <wgt id="530">5.97779e-12</wgt>
  <wgt id="531">5.65178e-12</wgt>
  <wgt id="532">6.18724e-12</wgt>
  <wgt id="533">5.60522e-12</wgt>
  <wgt id="534">5.71605e-12</wgt>
  <wgt id="535">5.78471e-12</wgt>
  <wgt id="536">5.82327e-12</wgt>
  <wgt id="537">5.69815e-12</wgt>
  <wgt id="538">5.81833e-12</wgt>
  <wgt id="539">5.68235e-12</wgt>
  <wgt id="540">5.8922e-12</wgt>
  <wgt id="541">5.67625e-12</wgt>
  <wgt id="542">5.72634e-12</wgt>
  <wgt id="543">5.72683e-12</wgt>
  <wgt id="544">5.97543e-12</wgt>
  <wgt id="545">5.61709e-12</wgt>
  <wgt id="546">5.52168e-12</wgt>
  <wgt id="547">5.64833e-12</wgt>
  <wgt id="548">5.55994e-12</wgt>
  <wgt id="549">5.695e-12</wgt>
  <wgt id="550">5.67465e-12</wgt>
  <wgt id="551">5.86465e-12</wgt>
  <wgt id="552">5.49952e-12</wgt>
  <wgt id="553">5.64839e-12</wgt>
  <wgt id="554">6.15932e-12</wgt>
  <wgt id="555">5.94566e-12</wgt>
  <wgt id="556">5.5803e-12</wgt>
  <wgt id="557">5.94574e-12</wgt>
  <wgt id="558">5.68249e-12</wgt>
  <wgt id="559">5.68409e-12</wgt>
  <wgt id="560">6.37066e-12</wgt>
  <wgt id="561">5.78299e-12</wgt>
  <wgt id="562">5.98135e-12</wgt>
  <wgt id="563">6.01294e-12</wgt>
  <wgt id="564">6.00425e-12</wgt>
  <wgt id="565">5.74154e-12</wgt>
  <wgt id="566">5.80913e-12</wgt>
  <wgt id="567">5.75704e-12</wgt>
  <wgt id="568">5.71875e-12</wgt>
  <wgt id="569">5.87538e-12</wgt>
  <wgt id="570">5.55498e-12</wgt>
  <wgt id="571">6.39334e-12</wgt>
  <wgt id="572">5.67939e-12</wgt>
  <wgt id="573">5.60934e-12</wgt>
  <wgt id="574">5.63083e-12</wgt>
  <wgt id="575">6.37769e-12</wgt>
  <wgt id="576">6.61597e-12</wgt>
  <wgt id="577">6.60654e-12</wgt>
  <wgt id="578">6.56786e-12</wgt>
  <wgt id="579">6.58417e-12</wgt>
  <wgt id="580">6.67303e-12</wgt>
  <wgt id="581">6.93198e-12</wgt>
  <wgt id="582">6.5835e-12</wgt>
  <wgt id="583">6.44233e-12</wgt>
  <wgt id="584">6.33482e-12</wgt>
  <wgt id="585">6.14002e-12</wgt>
  <wgt id="586">6.11932e-12</wgt>
  <wgt id="587">6.48719e-12</wgt>
  <wgt id="588">6.55871e-12</wgt>
  <wgt id="589">6.69911e-12</wgt>
  <wgt id="590">6.35612e-12</wgt>
  <wgt id="591">6.59297e-12</wgt>
  <wgt id="592">5.95228e-12</wgt>
  <wgt id="593">6.27709e-12</wgt>
  <wgt id="594">6.44132e-12</wgt>
  <wgt id="595">6.49513e-12</wgt>
  <wgt id="596">6.89846e-12</wgt>
  <wgt id="597">6.3438e-12</wgt>
  <wgt id="598">6.19219e-12</wgt>
  <wgt id="599">6.67724e-12</wgt>
  <wgt id="600">6.5002e-12</wgt>
  <wgt id="601">6.16918e-12</wgt>
  <wgt id="602">6.18734e-12</wgt>
  <wgt id="603">6.13574e-12</wgt>
  <wgt id="604">6.49387e-12</wgt>
  <wgt id="605">6.55999e-12</wgt>
  <wgt id="606">6.42732e-12</wgt>
  <wgt id="607">6.46669e-12</wgt>
  <wgt id="608">6.54573e-12</wgt>
  <wgt id="609">6.1908e-12</wgt>
  <wgt id="610">6.1476e-12</wgt>
  <wgt id="611">6.26529e-12</wgt>
  <wgt id="612">6.73047e-12</wgt>
  <wgt id="613">6.24394e-12</wgt>
  <wgt id="614">6.36398e-12</wgt>
  <wgt id="615">6.35988e-12</wgt>
  <wgt id="616">6.47196e-12</wgt>
  <wgt id="617">6.56287e-12</wgt>
  <wgt id="618">6.88741e-12</wgt>
  <wgt id="619">6.28413e-12</wgt>
  <wgt id="620">6.60403e-12</wgt>
  <wgt id="621">6.35175e-12</wgt>
  <wgt id="622">6.48719e-12</wgt>
  <wgt id="623">6.49914e-12</wgt>
  <wgt id="624">6.40447e-12</wgt>
  <wgt id="625">6.19753e-12</wgt>
  <wgt id="626">5.99986e-12</wgt>
  <wgt id="627">5.98905e-12</wgt>
  <wgt id="628">6.43442e-12</wgt>
  <wgt id="629">6.3405e-12</wgt>
  <wgt id="630">6.16485e-12</wgt>
  <wgt id="631">6.45556e-12</wgt>
  <wgt id="632">5.98537e-12</wgt>
  <wgt id="633">6.34963e-12</wgt>
  <wgt id="634">6.21853e-12</wgt>
  <wgt id="635">6.01064e-12</wgt>
  <wgt id="636">6.46939e-12</wgt>
  <wgt id="637">6.37276e-12</wgt>
  <wgt id="638">6.14926e-12</wgt>
  <wgt id="639">6.22958e-12</wgt>
  <wgt id="640">6.33343e-12</wgt>
  <wgt id="641">6.5689e-12</wgt>
  <wgt id="642">6.05915e-12</wgt>
  <wgt id="643">6.29533e-12</wgt>
  <wgt id="644">5.82574e-12</wgt>
  <wgt id="645">6.39511e-12</wgt>
  <wgt id="646">6.16777e-12</wgt>
  <wgt id="647">6.353e-12</wgt>
  <wgt id="648">6.54295e-12</wgt>
  <wgt id="649">6.41847e-12</wgt>
  <wgt id="650">6.15459e-12</wgt>
  <wgt id="651">6.66821e-12</wgt>
  <wgt id="652">6.23056e-12</wgt>
  <wgt id="653">6.16566e-12</wgt>
  <wgt id="654">6.29413e-12</wgt>
  <wgt id="655">6.25451e-12</wgt>
  <wgt id="656">6.3811e-12</wgt>
  <wgt id="657">6.85736e-12</wgt>
  <wgt id="658">6.39865e-12</wgt>
  <wgt id="659">6.11305e-12</wgt>
  <wgt id="660">6.36571e-12</wgt>
  <wgt id="661">6.2716e-12</wgt>
  <wgt id="662">6.31834e-12</wgt>
  <wgt id="663">6.43948e-12</wgt>
  <wgt id="664">6.36846e-12</wgt>
  <wgt id="665">6.36438e-12</wgt>
  <wgt id="666">6.28415e-12</wgt>
  <wgt id="667">6.65448e-12</wgt>
  <wgt id="668">6.35443e-12</wgt>
  <wgt id="669">6.47166e-12</wgt>
  <wgt id="670">6.60555e-12</wgt>
  <wgt id="671">6.38647e-12</wgt>
  <wgt id="672">6.13468e-12</wgt>
  <wgt id="673">6.57058e-12</wgt>
  <wgt id="674">6.21454e-12</wgt>
  <wgt id="675">6.26736e-12</wgt>
  <wgt id="676">8.13044e-12</wgt>
  <wgt id="677">8.23282e-12</wgt>
  <wgt id="678">8.67378e-12</wgt>
  <wgt id="679">7.89145e-12</wgt>
  <wgt id="680">8.08762e-12</wgt>
  <wgt id="681">8.12754e-12</wgt>
  <wgt id="682">8.44271e-12</wgt>
  <wgt id="683">7.82485e-12</wgt>
  <wgt id="684">8.48031e-12</wgt>
  <wgt id="685">7.95561e-12</wgt>
  <wgt id="686">7.94346e-12</wgt>
  <wgt id="687">8.42523e-12</wgt>
  <wgt id="688">7.96156e-12</wgt>
  <wgt id="689">8.52076e-12</wgt>
  <wgt id="690">8.39538e-12</wgt>
  <wgt id="691">8.45242e-12</wgt>
  <wgt id="692">8.01422e-12</wgt>
  <wgt id="693">9.98456e-12</wgt>
  <wgt id="694">8.75354e-12</wgt>
  <wgt id="695">7.80928e-12</wgt>
  <wgt id="696">7.85844e-12</wgt>
  <wgt id="697">7.66809e-12</wgt>
  <wgt id="698">7.13515e-12</wgt>
  <wgt id="699">7.13832e-12</wgt>
  <wgt id="700">7.17486e-12</wgt>
  <wgt id="701">8.12624e-12</wgt>
  <wgt id="702">7.9831e-12</wgt>
  <wgt id="703">9.56344e-12</wgt>
  <wgt id="704">9.01903e-12</wgt>
  <wgt id="705">8.86284e-12</wgt>
  <wgt id="706">7.70553e-12</wgt>
  <wgt id="707">7.73635e-12</wgt>
  <wgt id="708">7.9267e-12</wgt>
  <wgt id="709">7.93187e-12</wgt>
  <wgt id="710">7.32373e-12</wgt>
  <wgt id="711">8.2184e-12</wgt>
  <wgt id="712">7.79613e-12</wgt>
  <wgt id="713">8.75191e-12</wgt>
  <wgt id="714">7.67948e-12</wgt>
  <wgt id="715">7.93673e-12</wgt>
  <wgt id="716">7.84701e-12</wgt>
  <wgt id="717">7.45956e-12</wgt>
  <wgt id="718">8.2593e-12</wgt>
  <wgt id="719">7.39497e-12</wgt>
  <wgt id="720">7.97102e-12</wgt>
  <wgt id="721">7.18595e-12</wgt>
  <wgt id="722">6.91423e-12</wgt>
  <wgt id="723">8.83292e-12</wgt>
  <wgt id="724">8.63466e-12</wgt>
  <wgt id="725">8.49991e-12</wgt>
  <wgt id="726">8.12845e-12</wgt>
  <wgt id="727">8.04269e-12</wgt>
  <wgt id="728">7.88741e-12</wgt>
  <wgt id="729">7.81493e-12</wgt>
  <wgt id="730">8.79203e-12</wgt>
  <wgt id="731">7.97979e-12</wgt>
  <wgt id="732">9.14179e-12</wgt>
  <wgt id="733">7.82245e-12</wgt>
  <wgt id="734">8.33446e-12</wgt>
  <wgt id="735">8.22439e-12</wgt>
  <wgt id="736">7.77461e-12</wgt>
  <wgt id="737">8.05029e-12</wgt>
  <wgt id="738">7.77958e-12</wgt>
  <wgt id="739">8.54764e-12</wgt>
  <wgt id="740">9.21823e-12</wgt>
  <wgt id="741">7.7249e-12</wgt>
  <wgt id="742">8.01491e-12</wgt>
  <wgt id="743">7.60284e-12</wgt>
  <wgt id="744">7.96654e-12</wgt>
  <wgt id="745">8.60658e-12</wgt>
  <wgt id="746">8.80505e-12</wgt>
  <wgt id="747">7.08124e-12</wgt>
  <wgt id="748">7.9834e-12</wgt>
  <wgt id="749">8.44482e-12</wgt>
  <wgt id="750">8.63789e-12</wgt>
  <wgt id="751">8.23719e-12</wgt>
  <wgt id="752">7.42038e-12</wgt>
  <wgt id="753">7.5204e-12</wgt>
  <wgt id="754">8.4688e-12</wgt>
  <wgt id="755">8.06123e-12</wgt>
  <wgt id="756">8.0233e-12</wgt>
  <wgt id="757">7.31759e-12</wgt>
  <wgt id="758">8.02422e-12</wgt>
  <wgt id="759">8.78481e-12</wgt>
  <wgt id="760">8.01931e-12</wgt>
  <wgt id="761">8.71503e-12</wgt>
  <wgt id="762">8.74996e-12</wgt>
  <wgt id="763">8.1441e-12</wgt>
  <wgt id="764">8.51982e-12</wgt>
  <wgt id="765">8.23427e-12</wgt>
  <wgt id="766">8.15558e-12</wgt>
  <wgt id="767">8.28416e-12</wgt>
  <wgt id="768">7.55572e-12</wgt>
  <wgt id="769">8.60005e-12</wgt>
  <wgt id="770">7.90958e-12</wgt>
  <wgt id="771">9.68147e-12</wgt>
  <wgt id="772">7.82187e-12</wgt>
  <wgt id="773">8.08061e-12</wgt>
  <wgt id="774">6.82136e-12</wgt>
  <wgt id="775">8.50716e-12</wgt>
  <wgt id="776">8.91494e-12</wgt>
  <wgt id="777">7.5206e-12</wgt>
  <wgt id="778">5.74814e-12</wgt>
  <wgt id="779">4.23833e-12</wgt>
  <wgt id="780">3.09507e-12</wgt>
  <wgt id="781">6.56586e-12</wgt>
  <wgt id="782">6.51247e-12</wgt>
  <wgt id="783">4.15509e-12</wgt>
  <wgt id="784">4.63772e-12</wgt>
  <wgt id="785">7.73786e-12</wgt>
  <wgt id="786">4.04668e-12</wgt>
  <wgt id="787">6.87884e-12</wgt>
  <wgt id="788">2.64055e-12</wgt>
  <wgt id="789">4.587e-12</wgt>
  <wgt id="790">3.95914e-12</wgt>
  <wgt id="791">6.00942e-12</wgt>
  <wgt id="792">7.69386e-12</wgt>
  <wgt id="793">5.64027e-12</wgt>
  <wgt id="794">3.80286e-12</wgt>
  <wgt id="795">7.19822e-12</wgt>
  <wgt id="796">7.71682e-12</wgt>
  <wgt id="797">7.12991e-12</wgt>
  <wgt id="798">4.86755e-12</wgt>
  <wgt id="799">6.76402e-12</wgt>
  <wgt id="800">4.69902e-12</wgt>
  <wgt id="801">5.31305e-12</wgt>
  <wgt id="802">3.75046e-12</wgt>
  <wgt id="803">8.56479e-12</wgt>
  <wgt id="804">7.18512e-12</wgt>
  <wgt id="805">7.12164e-12</wgt>
  <wgt id="806">6.26529e-12</wgt>
  <wgt id="807">5.51425e-12</wgt>
  <wgt id="808">5.48436e-12</wgt>
  <wgt id="809">5.30125e-12</wgt>
  <wgt id="810">6.36305e-12</wgt>
  <wgt id="811">6.12893e-12</wgt>
  <wgt id="812">3.96092e-12</wgt>
  <wgt id="813">4.15811e-12</wgt>
  <wgt id="814">4.46966e-12</wgt>
  <wgt id="815">4.1676e-12</wgt>
  <wgt id="816">4.04203e-12</wgt>
  <wgt id="817">5.85759e-12</wgt>
  <wgt id="818">6.53035e-12</wgt>
  <wgt id="819">4.23131e-12</wgt>
  <wgt id="820">5.59994e-12</wgt>
  <wgt id="821">6.71233e-12</wgt>
  <wgt id="822">4.63001e-12</wgt>
  <wgt id="823">6.91917e-12</wgt>
  <wgt id="824">8.28003e-12</wgt>
  <wgt id="825">3.65578e-12</wgt>
  <wgt id="826">6.54197e-12</wgt>
  <wgt id="827">3.0984e-12</wgt>
  <wgt id="828">7.35466e-12</wgt>
  <wgt id="829">5.92871e-12</wgt>
  <wgt id="830">3.46204e-12</wgt>
  <wgt id="831">6.42315e-12</wgt>
  <wgt id="832">9.75514e-12</wgt>
  <wgt id="833">4.98057e-12</wgt>
  <wgt id="834">9.3757e-12</wgt>
  <wgt id="835">4.47231e-12</wgt>
  <wgt id="836">5.20975e-12</wgt>
  <wgt id="837">6.59884e-12</wgt>
  <wgt id="838">5.05556e-12</wgt>
  <wgt id="839">6.37641e-12</wgt>
  <wgt id="840">5.12626e-12</wgt>
  <wgt id="841">7.54317e-12</wgt>
  <wgt id="842">5.40758e-12</wgt>
  <wgt id="843">5.97464e-12</wgt>
  <wgt id="844">6.14694e-12</wgt>
  <wgt id="845">9.13587e-12</wgt>
  <wgt id="846">5.98122e-12</wgt>
  <wgt id="847">5.97823e-12</wgt>
  <wgt id="848">4.3292e-12</wgt>
  <wgt id="849">6.02832e-12</wgt>
  <wgt id="850">8.0332e-12</wgt>
  <wgt id="851">6.50931e-12</wgt>
  <wgt id="852">4.02257e-12</wgt>
  <wgt id="853">6.66749e-12</wgt>
  <wgt id="854">7.42795e-12</wgt>
  <wgt id="855">6.80467e-12</wgt>
  <wgt id="856">3.48513e-12</wgt>
  <wgt id="857">5.40924e-12</wgt>
  <wgt id="858">5.37615e-12</wgt>
  <wgt id="859">5.46366e-12</wgt>
  <wgt id="860">6.77454e-12</wgt>
  <wgt id="861">4.95212e-12</wgt>
  <wgt id="862">5.81768e-12</wgt>
  <wgt id="863">6.34066e-12</wgt>
  <wgt id="864">6.03089e-12</wgt>
  <wgt id="865">8.62718e-12</wgt>
  <wgt id="866">9.55849e-12</wgt>
  <wgt id="867">5.8532e-12</wgt>
  <wgt id="868">5.74929e-12</wgt>
  <wgt id="869">3.96331e-12</wgt>
  <wgt id="870">4.3324e-12</wgt>
  <wgt id="871">4.22284e-12</wgt>
  <wgt id="872">7.44812e-12</wgt>
  <wgt id="873">4.74647e-12</wgt>
  <wgt id="874">6.19678e-12</wgt>
  <wgt id="875">4.77945e-12</wgt>
  <wgt id="876">7.27994e-12</wgt>
  <wgt id="877">6.53089e-12</wgt>
  <wgt id="878">4.6773e-12</wgt>
  <wgt id="879">8.13044e-12</wgt>
  <wgt id="880">8.23282e-12</wgt>
  <wgt id="881">8.67378e-12</wgt>
  <wgt id="882">7.89145e-12</wgt>
  <wgt id="883">8.08762e-12</wgt>
  <wgt id="884">8.12754e-12</wgt>
  <wgt id="885">8.44271e-12</wgt>
  <wgt id="886">7.82485e-12</wgt>
  <wgt id="887">8.48031e-12</wgt>
  <wgt id="888">7.95561e-12</wgt>
  <wgt id="889">7.94346e-12</wgt>
  <wgt id="890">8.42523e-12</wgt>
  <wgt id="891">7.96156e-12</wgt>
  <wgt id="892">8.52076e-12</wgt>
  <wgt id="893">8.39538e-12</wgt>
  <wgt id="894">8.45242e-12</wgt>
  <wgt id="895">8.01422e-12</wgt>
  <wgt id="896">9.98456e-12</wgt>
  <wgt id="897">8.75354e-12</wgt>
  <wgt id="898">7.80928e-12</wgt>
  <wgt id="899">7.85844e-12</wgt>
  <wgt id="900">7.66809e-12</wgt>
  <wgt id="901">7.13515e-12</wgt>
  <wgt id="902">7.13832e-12</wgt>
  <wgt id="903">7.17486e-12</wgt>
  <wgt id="904">8.12624e-12</wgt>
  <wgt id="905">7.9831e-12</wgt>
  <wgt id="906">9.56344e-12</wgt>
  <wgt id="907">9.01903e-12</wgt>
  <wgt id="908">8.86284e-12</wgt>
  <wgt id="909">7.70553e-12</wgt>
  <wgt id="910">7.73635e-12</wgt>
  <wgt id="911">7.9267e-12</wgt>
  <wgt id="912">7.93187e-12</wgt>
  <wgt id="913">7.32373e-12</wgt>
  <wgt id="914">8.2184e-12</wgt>
  <wgt id="915">7.79613e-12</wgt>
  <wgt id="916">8.75191e-12</wgt>
  <wgt id="917">7.67948e-12</wgt>
  <wgt id="918">7.93673e-12</wgt>
  <wgt id="919">7.84701e-12</wgt>
  <wgt id="920">7.45956e-12</wgt>
  <wgt id="921">8.2593e-12</wgt>
  <wgt id="922">7.39497e-12</wgt>
  <wgt id="923">7.97102e-12</wgt>
  <wgt id="924">7.18595e-12</wgt>
  <wgt id="925">6.91423e-12</wgt>
  <wgt id="926">8.83292e-12</wgt>
  <wgt id="927">8.63466e-12</wgt>
  <wgt id="928">8.49991e-12</wgt>
  <wgt id="929">8.12845e-12</wgt>
  <wgt id="930">8.04269e-12</wgt>
  <wgt id="931">7.88741e-12</wgt>
  <wgt id="932">7.81493e-12</wgt>
  <wgt id="933">8.79203e-12</wgt>
  <wgt id="934">7.97979e-12</wgt>
  <wgt id="935">9.14179e-12</wgt>
  <wgt id="936">7.82245e-12</wgt>
  <wgt id="937">8.33446e-12</wgt>
  <wgt id="938">8.22439e-12</wgt>
  <wgt id="939">7.77461e-12</wgt>
  <wgt id="940">8.05029e-12</wgt>
  <wgt id="941">7.77958e-12</wgt>
  <wgt id="942">8.54764e-12</wgt>
  <wgt id="943">9.21823e-12</wgt>
  <wgt id="944">7.7249e-12</wgt>
  <wgt id="945">8.01491e-12</wgt>
  <wgt id="946">7.60284e-12</wgt>
  <wgt id="947">7.96654e-12</wgt>
  <wgt id="948">8.60658e-12</wgt>
  <wgt id="949">8.80505e-12</wgt>
  <wgt id="950">7.08124e-12</wgt>
  <wgt id="951">7.9834e-12</wgt>
  <wgt id="952">8.44482e-12</wgt>
  <wgt id="953">8.63789e-12</wgt>
  <wgt id="954">8.23719e-12</wgt>
  <wgt id="955">7.42038e-12</wgt>
  <wgt id="956">7.5204e-12</wgt>
  <wgt id="957">8.4688e-12</wgt>
  <wgt id="958">8.06123e-12</wgt>
  <wgt id="959">8.0233e-12</wgt>
  <wgt id="960">7.31759e-12</wgt>
  <wgt id="961">8.02422e-12</wgt>
  <wgt id="962">8.78481e-12</wgt>
  <wgt id="963">8.01931e-12</wgt>
  <wgt id="964">8.71503e-12</wgt>
  <wgt id="965">8.74996e-12</wgt>
  <wgt id="966">8.1441e-12</wgt>
  <wgt id="967">8.51982e-12</wgt>
  <wgt id="968">8.23427e-12</wgt>
  <wgt id="969">8.15558e-12</wgt>
  <wgt id="970">8.28416e-12</wgt>
  <wgt id="971">7.55572e-12</wgt>
  <wgt id="972">8.60005e-12</wgt>
  <wgt id="973">7.90958e-12</wgt>
  <wgt id="974">9.68147e-12</wgt>
  <wgt id="975">7.82187e-12</wgt>
  <wgt id="976">8.08061e-12</wgt>
  <wgt id="977">6.82136e-12</wgt>
  <wgt id="978">8.50716e-12</wgt>
  <wgt id="979">8.91494e-12</wgt>
  <wgt id="980">8.09673e-12</wgt>
  <wgt id="981">8.21785e-12</wgt>
  <wgt id="982">7.87428e-12</wgt>
</rwgt>
</event>
<event>
 5   1  0.5790000E-11  0.2161578E+04  0.7818608E-02  0.7763498E-01
       21   -1    0    0  502  501  0.00000000000E+00  0.00000000000E+00  0.65703945251E+03  0.65703945251E+03  0.00000000000E+00 0. -1.
       21   -1    0    0  501  502 -0.00000000000E+00 -0.00000000000E+00 -0.17778307949E+04  0.17778307949E+04  0.00000000000E+00 0.  1.
       39    2    1    2    0    0  0.00000000000E+00  0.00000000000E+00 -0.11207913424E+04  0.24348702474E+04  0.21615781014E+04 0.  0.
       25    1    3    3    0    0  0.45139781452E+03  0.35675073260E+03  0.46053245152E+03  0.74749328497E+03  0.12500000000E+03 0.  0.
       25    1    3    3    0    0 -0.45139781452E+03 -0.35675073260E+03 -0.15813237939E+04  0.16873769624E+04  0.12500000000E+03 0.  0.
<mgrwt>
<rscale>  0 0.21615781E+04</rscale>
<asrwt>0</asrwt>
<pdfrwt beam="1">  1       21 0.10108299E+00 0.21615781E+04</pdfrwt>
<pdfrwt beam="2">  1       21 0.27351243E+00 0.21615781E+04</pdfrwt>
<totfact> 0.14761895E+01</totfact>
</mgrwt>
<rwgt>
  <wgt id="1">5.79e-12</wgt>
  <wgt id="2">5.03802e-12</wgt>
  <wgt id="3">6.72358e-12</wgt>
  <wgt id="4">5.79e-12</wgt>
  <wgt id="5">5.03802e-12</wgt>
  <wgt id="6">6.72358e-12</wgt>
  <wgt id="7">5.79e-12</wgt>
  <wgt id="8">5.03802e-12</wgt>
  <wgt id="9">6.72358e-12</wgt>
  <wgt id="10">6.01771e-12</wgt>
  <wgt id="11">6.01441e-12</wgt>
  <wgt id="12">6.00804e-12</wgt>
  <wgt id="13">6.0018e-12</wgt>
  <wgt id="14">6.03956e-12</wgt>
  <wgt id="15">6.02806e-12</wgt>
  <wgt id="16">6.00871e-12</wgt>
  <wgt id="17">6.04025e-12</wgt>
  <wgt id="18">6.00823e-12</wgt>
  <wgt id="19">6.03404e-12</wgt>
  <wgt id="20">6.00858e-12</wgt>
  <wgt id="21">5.972e-12</wgt>
  <wgt id="22">5.9806e-12</wgt>
  <wgt id="23">5.94261e-12</wgt>
  <wgt id="24">5.97924e-12</wgt>
  <wgt id="25">5.99729e-12</wgt>
  <wgt id="26">6.0359e-12</wgt>
  <wgt id="27">6.01084e-12</wgt>
  <wgt id="28">5.98312e-12</wgt>
  <wgt id="29">6.02105e-12</wgt>
  <wgt id="30">5.97982e-12</wgt>
  <wgt id="31">6.04373e-12</wgt>
  <wgt id="32">5.98928e-12</wgt>
  <wgt id="33">6.02798e-12</wgt>
  <wgt id="34">5.98539e-12</wgt>
  <wgt id="35">5.99528e-12</wgt>
  <wgt id="36">6.0423e-12</wgt>
  <wgt id="37">6.00041e-12</wgt>
  <wgt id="38">5.99673e-12</wgt>
  <wgt id="39">6.10441e-12</wgt>
  <wgt id="40">6.02123e-12</wgt>
  <wgt id="41">6.01465e-12</wgt>
  <wgt id="42">6.02543e-12</wgt>
  <wgt id="43">6.01666e-12</wgt>
  <wgt id="44">6.03085e-12</wgt>
  <wgt id="45">6.02776e-12</wgt>
  <wgt id="46">6.00861e-12</wgt>
  <wgt id="47">6.04032e-12</wgt>
  <wgt id="48">6.02744e-12</wgt>
  <wgt id="49">5.99056e-12</wgt>
  <wgt id="50">5.99746e-12</wgt>
  <wgt id="51">6.0045e-12</wgt>
  <wgt id="52">6.0342e-12</wgt>
  <wgt id="53">6.0165e-12</wgt>
  <wgt id="54">6.02778e-12</wgt>
  <wgt id="55">6.01732e-12</wgt>
  <wgt id="56">6.03015e-12</wgt>
  <wgt id="57">6.01582e-12</wgt>
  <wgt id="58">6.00234e-12</wgt>
  <wgt id="59">6.01163e-12</wgt>
  <wgt id="60">6.00866e-12</wgt>
  <wgt id="61">5.98044e-12</wgt>
  <wgt id="62">5.99571e-12</wgt>
  <wgt id="63">6.00862e-12</wgt>
  <wgt id="64">6.01711e-12</wgt>
  <wgt id="65">6.01805e-12</wgt>
  <wgt id="66">6.0133e-12</wgt>
  <wgt id="67">5.98967e-12</wgt>
  <wgt id="68">6.01686e-12</wgt>
  <wgt id="69">6.01584e-12</wgt>
  <wgt id="70">6.01628e-12</wgt>
  <wgt id="71">6.01308e-12</wgt>
  <wgt id="72">5.99347e-12</wgt>
  <wgt id="73">6.0327e-12</wgt>
  <wgt id="74">6.02494e-12</wgt>
  <wgt id="75">6.01517e-12</wgt>
  <wgt id="76">6.04039e-12</wgt>
  <wgt id="77">6.01249e-12</wgt>
  <wgt id="78">6.01368e-12</wgt>
  <wgt id="79">6.03399e-12</wgt>
  <wgt id="80">5.98591e-12</wgt>
  <wgt id="81">6.0167e-12</wgt>
  <wgt id="82">6.01972e-12</wgt>
  <wgt id="83">5.99199e-12</wgt>
  <wgt id="84">6.00872e-12</wgt>
  <wgt id="85">6.00113e-12</wgt>
  <wgt id="86">6.03607e-12</wgt>
  <wgt id="87">5.97905e-12</wgt>
  <wgt id="88">6.02619e-12</wgt>
  <wgt id="89">6.02272e-12</wgt>
  <wgt id="90">6.03471e-12</wgt>
  <wgt id="91">6.02436e-12</wgt>
  <wgt id="92">6.03029e-12</wgt>
  <wgt id="93">6.0246e-12</wgt>
  <wgt id="94">6.00966e-12</wgt>
  <wgt id="95">6.03422e-12</wgt>
  <wgt id="96">6.02601e-12</wgt>
  <wgt id="97">6.00168e-12</wgt>
  <wgt id="98">6.01902e-12</wgt>
  <wgt id="99">6.00441e-12</wgt>
  <wgt id="100">6.02991e-12</wgt>
  <wgt id="101">6.01861e-12</wgt>
  <wgt id="102">6.01371e-12</wgt>
  <wgt id="103">6.03104e-12</wgt>
  <wgt id="104">6.01099e-12</wgt>
  <wgt id="105">6.02706e-12</wgt>
  <wgt id="106">6.0065e-12</wgt>
  <wgt id="107">6.04189e-12</wgt>
  <wgt id="108">6.00872e-12</wgt>
  <wgt id="109">6.02356e-12</wgt>
  <wgt id="110">6.01572e-12</wgt>
  <wgt id="111">6.0508e-12</wgt>
  <wgt id="112">6.05716e-12</wgt>
  <wgt id="113">8.25405e-12</wgt>
  <wgt id="114">8.13769e-12</wgt>
  <wgt id="115">7.99792e-12</wgt>
  <wgt id="116">1.08524e-11</wgt>
  <wgt id="117">6.60927e-12</wgt>
  <wgt id="118">6.63138e-12</wgt>
  <wgt id="119">6.59666e-12</wgt>
  <wgt id="120">6.60977e-12</wgt>
  <wgt id="121">6.60893e-12</wgt>
  <wgt id="122">6.59798e-12</wgt>
  <wgt id="123">6.62476e-12</wgt>
  <wgt id="124">6.59993e-12</wgt>
  <wgt id="125">6.61518e-12</wgt>
  <wgt id="126">6.61901e-12</wgt>
  <wgt id="127">6.60277e-12</wgt>
  <wgt id="128">6.62959e-12</wgt>
  <wgt id="129">6.58902e-12</wgt>
  <wgt id="130">6.64394e-12</wgt>
  <wgt id="131">6.5734e-12</wgt>
  <wgt id="132">6.43645e-12</wgt>
  <wgt id="133">6.8136e-12</wgt>
  <wgt id="134">6.54049e-12</wgt>
  <wgt id="135">6.66306e-12</wgt>
  <wgt id="136">6.69826e-12</wgt>
  <wgt id="137">6.50193e-12</wgt>
  <wgt id="138">6.87607e-12</wgt>
  <wgt id="139">6.35297e-12</wgt>
  <wgt id="140">6.57067e-12</wgt>
  <wgt id="141">6.63902e-12</wgt>
  <wgt id="142">6.60883e-12</wgt>
  <wgt id="143">6.62357e-12</wgt>
  <wgt id="144">6.39663e-12</wgt>
  <wgt id="145">6.80988e-12</wgt>
  <wgt id="146">6.67606e-12</wgt>
  <wgt id="147">6.55549e-12</wgt>
  <wgt id="148">6.63073e-12</wgt>
  <wgt id="149">6.60772e-12</wgt>
  <wgt id="150">6.6644e-12</wgt>
  <wgt id="151">6.58342e-12</wgt>
  <wgt id="152">6.61143e-12</wgt>
  <wgt id="153">6.60845e-12</wgt>
  <wgt id="154">6.64661e-12</wgt>
  <wgt id="155">6.55882e-12</wgt>
  <wgt id="156">6.76949e-12</wgt>
  <wgt id="157">6.45022e-12</wgt>
  <wgt id="158">7.94412e-12</wgt>
  <wgt id="159">7.97743e-12</wgt>
  <wgt id="160">7.9171e-12</wgt>
  <wgt id="161">7.92532e-12</wgt>
  <wgt id="162">7.96503e-12</wgt>
  <wgt id="163">7.93583e-12</wgt>
  <wgt id="164">7.95627e-12</wgt>
  <wgt id="165">7.94725e-12</wgt>
  <wgt id="166">7.94173e-12</wgt>
  <wgt id="167">7.93829e-12</wgt>
  <wgt id="168">7.95215e-12</wgt>
  <wgt id="169">7.91033e-12</wgt>
  <wgt id="170">7.96508e-12</wgt>
  <wgt id="171">7.93736e-12</wgt>
  <wgt id="172">7.95353e-12</wgt>
  <wgt id="173">7.93727e-12</wgt>
  <wgt id="174">7.94637e-12</wgt>
  <wgt id="175">7.72537e-12</wgt>
  <wgt id="176">8.22934e-12</wgt>
  <wgt id="177">7.98197e-12</wgt>
  <wgt id="178">7.90928e-12</wgt>
  <wgt id="179">8.29558e-12</wgt>
  <wgt id="180">7.39399e-12</wgt>
  <wgt id="181">7.70615e-12</wgt>
  <wgt id="182">8.10175e-12</wgt>
  <wgt id="183">7.79921e-12</wgt>
  <wgt id="184">8.0159e-12</wgt>
  <wgt id="185">7.86988e-12</wgt>
  <wgt id="186">8.03258e-12</wgt>
  <wgt id="187">7.86527e-12</wgt>
  <wgt id="188">8.0838e-12</wgt>
  <wgt id="189">7.88988e-12</wgt>
  <wgt id="190">7.96611e-12</wgt>
  <wgt id="191">7.96831e-12</wgt>
  <wgt id="192">7.92979e-12</wgt>
  <wgt id="193">8.061e-12</wgt>
  <wgt id="194">7.88562e-12</wgt>
  <wgt id="195">7.72769e-12</wgt>
  <wgt id="196">8.31774e-12</wgt>
  <wgt id="197">7.98366e-12</wgt>
  <wgt id="198">7.93449e-12</wgt>
  <wgt id="199">7.94412e-12</wgt>
  <wgt id="200">8.01447e-12</wgt>
  <wgt id="201">7.98961e-12</wgt>
  <wgt id="202">7.96561e-12</wgt>
  <wgt id="203">7.93022e-12</wgt>
  <wgt id="204">7.91299e-12</wgt>
  <wgt id="205">7.89859e-12</wgt>
  <wgt id="206">7.76073e-12</wgt>
  <wgt id="207">7.80623e-12</wgt>
  <wgt id="208">7.71572e-12</wgt>
  <wgt id="209">7.78181e-12</wgt>
  <wgt id="210">7.74545e-12</wgt>
  <wgt id="211">7.75845e-12</wgt>
  <wgt id="212">7.76249e-12</wgt>
  <wgt id="213">7.76008e-12</wgt>
  <wgt id="214">7.76176e-12</wgt>
  <wgt id="215">7.76586e-12</wgt>
  <wgt id="216">7.75718e-12</wgt>
  <wgt id="217">7.77973e-12</wgt>
  <wgt id="218">7.74611e-12</wgt>
  <wgt id="219">7.74995e-12</wgt>
  <wgt id="220">7.76729e-12</wgt>
  <wgt id="221">7.76069e-12</wgt>
  <wgt id="222">7.75988e-12</wgt>
  <wgt id="223">7.35103e-12</wgt>
  <wgt id="224">8.13464e-12</wgt>
  <wgt id="225">7.67011e-12</wgt>
  <wgt id="226">7.87531e-12</wgt>
  <wgt id="227">7.68941e-12</wgt>
  <wgt id="228">7.79202e-12</wgt>
  <wgt id="229">7.65522e-12</wgt>
  <wgt id="230">7.81307e-12</wgt>
  <wgt id="231">7.99409e-12</wgt>
  <wgt id="232">7.56905e-12</wgt>
  <wgt id="233">7.71809e-12</wgt>
  <wgt id="234">7.82986e-12</wgt>
  <wgt id="235">7.54328e-12</wgt>
  <wgt id="236">7.94871e-12</wgt>
  <wgt id="237">7.62545e-12</wgt>
  <wgt id="238">7.80623e-12</wgt>
  <wgt id="239">7.7041e-12</wgt>
  <wgt id="240">7.86276e-12</wgt>
  <wgt id="241">7.67813e-12</wgt>
  <wgt id="242">7.85905e-12</wgt>
  <wgt id="243">7.86097e-12</wgt>
  <wgt id="244">7.78515e-12</wgt>
  <wgt id="245">7.75601e-12</wgt>
  <wgt id="246">7.811e-12</wgt>
  <wgt id="247">7.76073e-12</wgt>
  <wgt id="248">7.83381e-12</wgt>
  <wgt id="249">7.80752e-12</wgt>
  <wgt id="250">7.7815e-12</wgt>
  <wgt id="251">7.74442e-12</wgt>
  <wgt id="252">7.72631e-12</wgt>
  <wgt id="253">7.71342e-12</wgt>
  <wgt id="254">7.53908e-12</wgt>
  <wgt id="255">7.54582e-12</wgt>
  <wgt id="256">7.53162e-12</wgt>
  <wgt id="257">7.54504e-12</wgt>
  <wgt id="258">7.53464e-12</wgt>
  <wgt id="259">7.58906e-12</wgt>
  <wgt id="260">7.49066e-12</wgt>
  <wgt id="261">7.54831e-12</wgt>
  <wgt id="262">7.5281e-12</wgt>
  <wgt id="263">7.53507e-12</wgt>
  <wgt id="264">7.54364e-12</wgt>
  <wgt id="265">7.5308e-12</wgt>
  <wgt id="266">7.55541e-12</wgt>
  <wgt id="267">7.5414e-12</wgt>
  <wgt id="268">7.53563e-12</wgt>
  <wgt id="269">7.56102e-12</wgt>
  <wgt id="270">7.52409e-12</wgt>
  <wgt id="271">7.52242e-12</wgt>
  <wgt id="272">7.55754e-12</wgt>
  <wgt id="273">7.51843e-12</wgt>
  <wgt id="274">7.55464e-12</wgt>
  <wgt id="275">7.5025e-12</wgt>
  <wgt id="276">7.57683e-12</wgt>
  <wgt id="277">7.49628e-12</wgt>
  <wgt id="278">7.57836e-12</wgt>
  <wgt id="279">7.404e-12</wgt>
  <wgt id="280">7.70855e-12</wgt>
  <wgt id="281">7.50717e-12</wgt>
  <wgt id="282">7.54335e-12</wgt>
  <wgt id="283">7.31902e-12</wgt>
  <wgt id="284">7.81122e-12</wgt>
  <wgt id="285">7.17244e-12</wgt>
  <wgt id="286">7.84448e-12</wgt>
  <wgt id="287">7.56353e-12</wgt>
  <wgt id="288">7.50766e-12</wgt>
  <wgt id="289">7.59356e-12</wgt>
  <wgt id="290">7.41517e-12</wgt>
  <wgt id="291">7.51546e-12</wgt>
  <wgt id="292">7.5422e-12</wgt>
  <wgt id="293">7.47954e-12</wgt>
  <wgt id="294">7.59803e-12</wgt>
  <wgt id="295">7.39332e-12</wgt>
  <wgt id="296">7.71693e-12</wgt>
  <wgt id="297">7.53286e-12</wgt>
  <wgt id="298">7.56887e-12</wgt>
  <wgt id="299">7.51535e-12</wgt>
  <wgt id="300">7.60184e-12</wgt>
  <wgt id="301">7.42635e-12</wgt>
  <wgt id="302">7.8162e-12</wgt>
  <wgt id="303">7.47588e-12</wgt>
  <wgt id="304">7.57495e-12</wgt>
  <wgt id="305">7.52652e-12</wgt>
  <wgt id="306">7.53359e-12</wgt>
  <wgt id="307">7.51875e-12</wgt>
  <wgt id="308">7.53311e-12</wgt>
  <wgt id="309">7.522e-12</wgt>
  <wgt id="310">7.5781e-12</wgt>
  <wgt id="311">7.47866e-12</wgt>
  <wgt id="312">7.53382e-12</wgt>
  <wgt id="313">7.51867e-12</wgt>
  <wgt id="314">7.52233e-12</wgt>
  <wgt id="315">7.53029e-12</wgt>
  <wgt id="316">7.51846e-12</wgt>
  <wgt id="317">7.54393e-12</wgt>
  <wgt id="318">7.53159e-12</wgt>
  <wgt id="319">7.51736e-12</wgt>
  <wgt id="320">7.54975e-12</wgt>
  <wgt id="321">7.51344e-12</wgt>
  <wgt id="322">7.50685e-12</wgt>
  <wgt id="323">7.54919e-12</wgt>
  <wgt id="324">7.51039e-12</wgt>
  <wgt id="325">7.54035e-12</wgt>
  <wgt id="326">7.49663e-12</wgt>
  <wgt id="327">7.56464e-12</wgt>
  <wgt id="328">7.48716e-12</wgt>
  <wgt id="329">7.54875e-12</wgt>
  <wgt id="330">7.73553e-12</wgt>
  <wgt id="331">7.32708e-12</wgt>
  <wgt id="332">7.50003e-12</wgt>
  <wgt id="333">7.52874e-12</wgt>
  <wgt id="334">7.35603e-12</wgt>
  <wgt id="335">7.73876e-12</wgt>
  <wgt id="336">7.26292e-12</wgt>
  <wgt id="337">7.84911e-12</wgt>
  <wgt id="338">7.61178e-12</wgt>
  <wgt id="339">7.4474e-12</wgt>
  <wgt id="340">7.57701e-12</wgt>
  <wgt id="341">7.39897e-12</wgt>
  <wgt id="342">7.50978e-12</wgt>
  <wgt id="343">7.51694e-12</wgt>
  <wgt id="344">7.47324e-12</wgt>
  <wgt id="345">7.5882e-12</wgt>
  <wgt id="346">7.3762e-12</wgt>
  <wgt id="347">7.69897e-12</wgt>
  <wgt id="348">7.52311e-12</wgt>
  <wgt id="349">7.55154e-12</wgt>
  <wgt id="350">7.49668e-12</wgt>
  <wgt id="351">7.60179e-12</wgt>
  <wgt id="352">7.40819e-12</wgt>
  <wgt id="353">7.80663e-12</wgt>
  <wgt id="354">7.43394e-12</wgt>
  <wgt id="355">7.58249e-12</wgt>
  <wgt id="356">7.53908e-12</wgt>
  <wgt id="357">7.54713e-12</wgt>
  <wgt id="358">7.52652e-12</wgt>
  <wgt id="359">7.55454e-12</wgt>
  <wgt id="360">7.61926e-12</wgt>
  <wgt id="361">7.56829e-12</wgt>
  <wgt id="362">7.70206e-12</wgt>
  <wgt id="363">7.68419e-12</wgt>
  <wgt id="364">7.65428e-12</wgt>
  <wgt id="365">7.62824e-12</wgt>
  <wgt id="366">7.60023e-12</wgt>
  <wgt id="367">7.54447e-12</wgt>
  <wgt id="368">7.51149e-12</wgt>
  <wgt id="369">7.47591e-12</wgt>
  <wgt id="370">7.56829e-12</wgt>
  <wgt id="371">7.60039e-12</wgt>
  <wgt id="372">7.58257e-12</wgt>
  <wgt id="373">7.5567e-12</wgt>
  <wgt id="374">7.5593e-12</wgt>
  <wgt id="375">8.29274e-12</wgt>
  <wgt id="376">8.29337e-12</wgt>
  <wgt id="377">8.29198e-12</wgt>
  <wgt id="378">8.32317e-12</wgt>
  <wgt id="379">8.2625e-12</wgt>
  <wgt id="380">8.31607e-12</wgt>
  <wgt id="381">8.28341e-12</wgt>
  <wgt id="382">8.33114e-12</wgt>
  <wgt id="383">8.25473e-12</wgt>
  <wgt id="384">8.29801e-12</wgt>
  <wgt id="385">8.28769e-12</wgt>
  <wgt id="386">8.32094e-12</wgt>
  <wgt id="387">8.2806e-12</wgt>
  <wgt id="388">8.28567e-12</wgt>
  <wgt id="389">8.3015e-12</wgt>
  <wgt id="390">8.31238e-12</wgt>
  <wgt id="391">8.27173e-12</wgt>
  <wgt id="392">8.22882e-12</wgt>
  <wgt id="393">8.32895e-12</wgt>
  <wgt id="394">8.30121e-12</wgt>
  <wgt id="395">8.28088e-12</wgt>
  <wgt id="396">8.30129e-12</wgt>
  <wgt id="397">8.28654e-12</wgt>
  <wgt id="398">8.27169e-12</wgt>
  <wgt id="399">8.31301e-12</wgt>
  <wgt id="400">8.28122e-12</wgt>
  <wgt id="401">8.31819e-12</wgt>
  <wgt id="402">8.22555e-12</wgt>
  <wgt id="403">8.32759e-12</wgt>
  <wgt id="404">8.49633e-12</wgt>
  <wgt id="405">7.8043e-12</wgt>
  <wgt id="406">8.14515e-12</wgt>
  <wgt id="407">8.6162e-12</wgt>
  <wgt id="408">8.36903e-12</wgt>
  <wgt id="409">8.14958e-12</wgt>
  <wgt id="410">8.05225e-12</wgt>
  <wgt id="411">8.40607e-12</wgt>
  <wgt id="412">8.27629e-12</wgt>
  <wgt id="413">8.31651e-12</wgt>
  <wgt id="414">8.19647e-12</wgt>
  <wgt id="415">8.36749e-12</wgt>
  <wgt id="416">8.52746e-12</wgt>
  <wgt id="417">7.96845e-12</wgt>
  <wgt id="418">8.30624e-12</wgt>
  <wgt id="419">8.21998e-12</wgt>
  <wgt id="420">8.43488e-12</wgt>
  <wgt id="421">8.20436e-12</wgt>
  <wgt id="422">8.26824e-12</wgt>
  <wgt id="423">8.30525e-12</wgt>
  <wgt id="424">8.48003e-12</wgt>
  <wgt id="425">8.16954e-12</wgt>
  <wgt id="426">8.29274e-12</wgt>
  <wgt id="427">8.18566e-12</wgt>
  <wgt id="428">8.562e-12</wgt>
  <wgt id="429">8.37867e-12</wgt>
  <wgt id="430">8.61999e-12</wgt>
  <wgt id="431">8.57181e-12</wgt>
  <wgt id="432">8.52676e-12</wgt>
  <wgt id="433">8.48274e-12</wgt>
  <wgt id="434">8.42801e-12</wgt>
  <wgt id="435">8.31684e-12</wgt>
  <wgt id="436">8.25982e-12</wgt>
  <wgt id="437">8.20525e-12</wgt>
  <wgt id="438">8.37867e-12</wgt>
  <wgt id="439">8.40498e-12</wgt>
  <wgt id="440">8.38906e-12</wgt>
  <wgt id="441">8.37086e-12</wgt>
  <wgt id="442">8.36457e-12</wgt>
  <wgt id="443">7.89426e-12</wgt>
  <wgt id="444">7.95586e-12</wgt>
  <wgt id="445">7.92593e-12</wgt>
  <wgt id="446">7.83784e-12</wgt>
  <wgt id="447">7.88966e-12</wgt>
  <wgt id="448">7.70151e-12</wgt>
  <wgt id="449">8.02947e-12</wgt>
  <wgt id="450">7.93935e-12</wgt>
  <wgt id="451">7.87656e-12</wgt>
  <wgt id="452">8.06192e-12</wgt>
  <wgt id="453">7.96974e-12</wgt>
  <wgt id="454">7.54329e-12</wgt>
  <wgt id="455">7.93295e-12</wgt>
  <wgt id="456">7.94225e-12</wgt>
  <wgt id="457">7.91919e-12</wgt>
  <wgt id="458">8.01271e-12</wgt>
  <wgt id="459">7.95942e-12</wgt>
  <wgt id="460">7.99838e-12</wgt>
  <wgt id="461">7.73243e-12</wgt>
  <wgt id="462">7.84286e-12</wgt>
  <wgt id="463">7.78799e-12</wgt>
  <wgt id="464">7.85739e-12</wgt>
  <wgt id="465">7.97466e-12</wgt>
  <wgt id="466">7.76517e-12</wgt>
  <wgt id="467">7.828e-12</wgt>
  <wgt id="468">7.87982e-12</wgt>
  <wgt id="469">7.8796e-12</wgt>
  <wgt id="470">7.7994e-12</wgt>
  <wgt id="471">7.81593e-12</wgt>
  <wgt id="472">7.9347e-12</wgt>
  <wgt id="473">7.66296e-12</wgt>
  <wgt id="474">5.79e-12</wgt>
  <wgt id="475">5.87553e-12</wgt>
  <wgt id="476">5.7095e-12</wgt>
  <wgt id="477">5.70965e-12</wgt>
  <wgt id="478">5.84355e-12</wgt>
  <wgt id="479">5.624e-12</wgt>
  <wgt id="480">6.0502e-12</wgt>
  <wgt id="481">5.79095e-12</wgt>
  <wgt id="482">5.73523e-12</wgt>
  <wgt id="483">5.68306e-12</wgt>
  <wgt id="484">5.98719e-12</wgt>
  <wgt id="485">5.5407e-12</wgt>
  <wgt id="486">6.07026e-12</wgt>
  <wgt id="487">5.74898e-12</wgt>
  <wgt id="488">5.89736e-12</wgt>
  <wgt id="489">5.4192e-12</wgt>
  <wgt id="490">5.5857e-12</wgt>
  <wgt id="491">5.76017e-12</wgt>
  <wgt id="492">5.70077e-12</wgt>
  <wgt id="493">5.49447e-12</wgt>
  <wgt id="494">5.54298e-12</wgt>
  <wgt id="495">5.79803e-12</wgt>
  <wgt id="496">5.57959e-12</wgt>
  <wgt id="497">5.50768e-12</wgt>
  <wgt id="498">5.95669e-12</wgt>
  <wgt id="499">5.76107e-12</wgt>
  <wgt id="500">5.65895e-12</wgt>
  <wgt id="501">5.9939e-12</wgt>
  <wgt id="502">5.83522e-12</wgt>
  <wgt id="503">5.77291e-12</wgt>
  <wgt id="504">5.93686e-12</wgt>
  <wgt id="505">5.81066e-12</wgt>
  <wgt id="506">5.65142e-12</wgt>
  <wgt id="507">5.79171e-12</wgt>
  <wgt id="508">6.02998e-12</wgt>
  <wgt id="509">5.41967e-12</wgt>
  <wgt id="510">5.88315e-12</wgt>
  <wgt id="511">5.56493e-12</wgt>
  <wgt id="512">6.02594e-12</wgt>
  <wgt id="513">5.98123e-12</wgt>
  <wgt id="514">5.93462e-12</wgt>
  <wgt id="515">5.81706e-12</wgt>
  <wgt id="516">6.19333e-12</wgt>
  <wgt id="517">5.92461e-12</wgt>
  <wgt id="518">5.96023e-12</wgt>
  <wgt id="519">5.60554e-12</wgt>
  <wgt id="520">5.91864e-12</wgt>
  <wgt id="521">5.84238e-12</wgt>
  <wgt id="522">6.04028e-12</wgt>
  <wgt id="523">5.6423e-12</wgt>
  <wgt id="524">5.7543e-12</wgt>
  <wgt id="525">5.87242e-12</wgt>
  <wgt id="526">5.92982e-12</wgt>
  <wgt id="527">5.78349e-12</wgt>
  <wgt id="528">5.81775e-12</wgt>
  <wgt id="529">5.67801e-12</wgt>
  <wgt id="530">5.98672e-12</wgt>
  <wgt id="531">5.64697e-12</wgt>
  <wgt id="532">6.1857e-12</wgt>
  <wgt id="533">5.62191e-12</wgt>
  <wgt id="534">5.70866e-12</wgt>
  <wgt id="535">5.78382e-12</wgt>
  <wgt id="536">5.82909e-12</wgt>
  <wgt id="537">5.6875e-12</wgt>
  <wgt id="538">5.81272e-12</wgt>
  <wgt id="539">5.68554e-12</wgt>
  <wgt id="540">5.91101e-12</wgt>
  <wgt id="541">5.68384e-12</wgt>
  <wgt id="542">5.72965e-12</wgt>
  <wgt id="543">5.7257e-12</wgt>
  <wgt id="544">5.96282e-12</wgt>
  <wgt id="545">5.60777e-12</wgt>
  <wgt id="546">5.49843e-12</wgt>
  <wgt id="547">5.65268e-12</wgt>
  <wgt id="548">5.56102e-12</wgt>
  <wgt id="549">5.69787e-12</wgt>
  <wgt id="550">5.67249e-12</wgt>
  <wgt id="551">5.86278e-12</wgt>
  <wgt id="552">5.48008e-12</wgt>
  <wgt id="553">5.63648e-12</wgt>
  <wgt id="554">6.14879e-12</wgt>
  <wgt id="555">5.94261e-12</wgt>
  <wgt id="556">5.5857e-12</wgt>
  <wgt id="557">5.94794e-12</wgt>
  <wgt id="558">5.69029e-12</wgt>
  <wgt id="559">5.68461e-12</wgt>
  <wgt id="560">6.36855e-12</wgt>
  <wgt id="561">5.79332e-12</wgt>
  <wgt id="562">5.99113e-12</wgt>
  <wgt id="563">6.04935e-12</wgt>
  <wgt id="564">6.02313e-12</wgt>
  <wgt id="565">5.75798e-12</wgt>
  <wgt id="566">5.80326e-12</wgt>
  <wgt id="567">5.76119e-12</wgt>
  <wgt id="568">5.71374e-12</wgt>
  <wgt id="569">5.88541e-12</wgt>
  <wgt id="570">5.55618e-12</wgt>
  <wgt id="571">6.38084e-12</wgt>
  <wgt id="572">5.68379e-12</wgt>
  <wgt id="573">5.61683e-12</wgt>
  <wgt id="574">5.63642e-12</wgt>
  <wgt id="575">6.36879e-12</wgt>
  <wgt id="576">6.63339e-12</wgt>
  <wgt id="577">6.60648e-12</wgt>
  <wgt id="578">6.56352e-12</wgt>
  <wgt id="579">6.58478e-12</wgt>
  <wgt id="580">6.67899e-12</wgt>
  <wgt id="581">6.933e-12</wgt>
  <wgt id="582">6.60237e-12</wgt>
  <wgt id="583">6.43536e-12</wgt>
  <wgt id="584">6.32023e-12</wgt>
  <wgt id="585">6.11118e-12</wgt>
  <wgt id="586">6.10329e-12</wgt>
  <wgt id="587">6.48299e-12</wgt>
  <wgt id="588">6.57032e-12</wgt>
  <wgt id="589">6.70488e-12</wgt>
  <wgt id="590">6.33524e-12</wgt>
  <wgt id="591">6.5806e-12</wgt>
  <wgt id="592">5.9191e-12</wgt>
  <wgt id="593">6.26037e-12</wgt>
  <wgt id="594">6.42175e-12</wgt>
  <wgt id="595">6.49964e-12</wgt>
  <wgt id="596">6.94114e-12</wgt>
  <wgt id="597">6.35101e-12</wgt>
  <wgt id="598">6.18852e-12</wgt>
  <wgt id="599">6.67843e-12</wgt>
  <wgt id="600">6.51018e-12</wgt>
  <wgt id="601">6.16002e-12</wgt>
  <wgt id="602">6.17717e-12</wgt>
  <wgt id="603">6.11444e-12</wgt>
  <wgt id="604">6.48685e-12</wgt>
  <wgt id="605">6.542e-12</wgt>
  <wgt id="606">6.43851e-12</wgt>
  <wgt id="607">6.47249e-12</wgt>
  <wgt id="608">6.54792e-12</wgt>
  <wgt id="609">6.20262e-12</wgt>
  <wgt id="610">6.13682e-12</wgt>
  <wgt id="611">6.23194e-12</wgt>
  <wgt id="612">6.69043e-12</wgt>
  <wgt id="613">6.23007e-12</wgt>
  <wgt id="614">6.34687e-12</wgt>
  <wgt id="615">6.36321e-12</wgt>
  <wgt id="616">6.43692e-12</wgt>
  <wgt id="617">6.55512e-12</wgt>
  <wgt id="618">6.90751e-12</wgt>
  <wgt id="619">6.27423e-12</wgt>
  <wgt id="620">6.59687e-12</wgt>
  <wgt id="621">6.33437e-12</wgt>
  <wgt id="622">6.48299e-12</wgt>
  <wgt id="623">6.48694e-12</wgt>
  <wgt id="624">6.40174e-12</wgt>
  <wgt id="625">6.18294e-12</wgt>
  <wgt id="626">5.96954e-12</wgt>
  <wgt id="627">5.97044e-12</wgt>
  <wgt id="628">6.40472e-12</wgt>
  <wgt id="629">6.3435e-12</wgt>
  <wgt id="630">6.13367e-12</wgt>
  <wgt id="631">6.45123e-12</wgt>
  <wgt id="632">5.96592e-12</wgt>
  <wgt id="633">6.34581e-12</wgt>
  <wgt id="634">6.19312e-12</wgt>
  <wgt id="635">5.98435e-12</wgt>
  <wgt id="636">6.46561e-12</wgt>
  <wgt id="637">6.34597e-12</wgt>
  <wgt id="638">6.14305e-12</wgt>
  <wgt id="639">6.21657e-12</wgt>
  <wgt id="640">6.32091e-12</wgt>
  <wgt id="641">6.57346e-12</wgt>
  <wgt id="642">6.00053e-12</wgt>
  <wgt id="643">6.28138e-12</wgt>
  <wgt id="644">5.79669e-12</wgt>
  <wgt id="645">6.38218e-12</wgt>
  <wgt id="646">6.12274e-12</wgt>
  <wgt id="647">6.35331e-12</wgt>
  <wgt id="648">6.54569e-12</wgt>
  <wgt id="649">6.40298e-12</wgt>
  <wgt id="650">6.14006e-12</wgt>
  <wgt id="651">6.68065e-12</wgt>
  <wgt id="652">6.21008e-12</wgt>
  <wgt id="653">6.14961e-12</wgt>
  <wgt id="654">6.27938e-12</wgt>
  <wgt id="655">6.25174e-12</wgt>
  <wgt id="656">6.37936e-12</wgt>
  <wgt id="657">6.8766e-12</wgt>
  <wgt id="658">6.36872e-12</wgt>
  <wgt id="659">6.1045e-12</wgt>
  <wgt id="660">6.34696e-12</wgt>
  <wgt id="661">6.26423e-12</wgt>
  <wgt id="662">6.31213e-12</wgt>
  <wgt id="663">6.43864e-12</wgt>
  <wgt id="664">6.37079e-12</wgt>
  <wgt id="665">6.35678e-12</wgt>
  <wgt id="666">6.27057e-12</wgt>
  <wgt id="667">6.65004e-12</wgt>
  <wgt id="668">6.34231e-12</wgt>
  <wgt id="669">6.45621e-12</wgt>
  <wgt id="670">6.60496e-12</wgt>
  <wgt id="671">6.38868e-12</wgt>
  <wgt id="672">6.13265e-12</wgt>
  <wgt id="673">6.57776e-12</wgt>
  <wgt id="674">6.20261e-12</wgt>
  <wgt id="675">6.26456e-12</wgt>
  <wgt id="676">8.11248e-12</wgt>
  <wgt id="677">8.21897e-12</wgt>
  <wgt id="678">8.66098e-12</wgt>
  <wgt id="679">7.9055e-12</wgt>
  <wgt id="680">8.08543e-12</wgt>
  <wgt id="681">8.09617e-12</wgt>
  <wgt id="682">8.43994e-12</wgt>
  <wgt id="683">7.78852e-12</wgt>
  <wgt id="684">8.45411e-12</wgt>
  <wgt id="685">7.96697e-12</wgt>
  <wgt id="686">7.92447e-12</wgt>
  <wgt id="687">8.37864e-12</wgt>
  <wgt id="688">7.94668e-12</wgt>
  <wgt id="689">8.47145e-12</wgt>
  <wgt id="690">8.3526e-12</wgt>
  <wgt id="691">8.4307e-12</wgt>
  <wgt id="692">7.995e-12</wgt>
  <wgt id="693">9.97887e-12</wgt>
  <wgt id="694">8.74018e-12</wgt>
  <wgt id="695">7.79418e-12</wgt>
  <wgt id="696">7.86742e-12</wgt>
  <wgt id="697">7.65045e-12</wgt>
  <wgt id="698">7.09527e-12</wgt>
  <wgt id="699">7.11497e-12</wgt>
  <wgt id="700">7.17703e-12</wgt>
  <wgt id="701">8.10286e-12</wgt>
  <wgt id="702">7.98147e-12</wgt>
  <wgt id="703">9.54203e-12</wgt>
  <wgt id="704">8.99526e-12</wgt>
  <wgt id="705">8.87074e-12</wgt>
  <wgt id="706">7.71321e-12</wgt>
  <wgt id="707">7.71671e-12</wgt>
  <wgt id="708">7.8945e-12</wgt>
  <wgt id="709">7.90561e-12</wgt>
  <wgt id="710">7.3131e-12</wgt>
  <wgt id="711">8.21287e-12</wgt>
  <wgt id="712">7.76188e-12</wgt>
  <wgt id="713">8.73331e-12</wgt>
  <wgt id="714">7.63365e-12</wgt>
  <wgt id="715">7.91613e-12</wgt>
  <wgt id="716">7.82844e-12</wgt>
  <wgt id="717">7.4297e-12</wgt>
  <wgt id="718">8.2589e-12</wgt>
  <wgt id="719">7.38749e-12</wgt>
  <wgt id="720">7.985e-12</wgt>
  <wgt id="721">7.14821e-12</wgt>
  <wgt id="722">6.8876e-12</wgt>
  <wgt id="723">8.81888e-12</wgt>
  <wgt id="724">8.62188e-12</wgt>
  <wgt id="725">8.46421e-12</wgt>
  <wgt id="726">8.09878e-12</wgt>
  <wgt id="727">8.03333e-12</wgt>
  <wgt id="728">7.86224e-12</wgt>
  <wgt id="729">7.81555e-12</wgt>
  <wgt id="730">8.76518e-12</wgt>
  <wgt id="731">7.95359e-12</wgt>
  <wgt id="732">9.12619e-12</wgt>
  <wgt id="733">7.78526e-12</wgt>
  <wgt id="734">8.30891e-12</wgt>
  <wgt id="735">8.22344e-12</wgt>
  <wgt id="736">7.74163e-12</wgt>
  <wgt id="737">8.00713e-12</wgt>
  <wgt id="738">7.77098e-12</wgt>
  <wgt id="739">8.54202e-12</wgt>
  <wgt id="740">9.19686e-12</wgt>
  <wgt id="741">7.7592e-12</wgt>
  <wgt id="742">7.99206e-12</wgt>
  <wgt id="743">7.5879e-12</wgt>
  <wgt id="744">7.94829e-12</wgt>
  <wgt id="745">8.58362e-12</wgt>
  <wgt id="746">8.78519e-12</wgt>
  <wgt id="747">7.04609e-12</wgt>
  <wgt id="748">7.97053e-12</wgt>
  <wgt id="749">8.40509e-12</wgt>
  <wgt id="750">8.65043e-12</wgt>
  <wgt id="751">8.20077e-12</wgt>
  <wgt id="752">7.40593e-12</wgt>
  <wgt id="753">7.49516e-12</wgt>
  <wgt id="754">8.45993e-12</wgt>
  <wgt id="755">8.03279e-12</wgt>
  <wgt id="756">7.99245e-12</wgt>
  <wgt id="757">7.29151e-12</wgt>
  <wgt id="758">7.98406e-12</wgt>
  <wgt id="759">8.81438e-12</wgt>
  <wgt id="760">7.97836e-12</wgt>
  <wgt id="761">8.70025e-12</wgt>
  <wgt id="762">8.73264e-12</wgt>
  <wgt id="763">8.1282e-12</wgt>
  <wgt id="764">8.50042e-12</wgt>
  <wgt id="765">8.23634e-12</wgt>
  <wgt id="766">8.13881e-12</wgt>
  <wgt id="767">8.25892e-12</wgt>
  <wgt id="768">7.53116e-12</wgt>
  <wgt id="769">8.57277e-12</wgt>
  <wgt id="770">7.89452e-12</wgt>
  <wgt id="771">9.63839e-12</wgt>
  <wgt id="772">7.82267e-12</wgt>
  <wgt id="773">8.06474e-12</wgt>
  <wgt id="774">6.78618e-12</wgt>
  <wgt id="775">8.48594e-12</wgt>
  <wgt id="776">8.88746e-12</wgt>
  <wgt id="777">7.49162e-12</wgt>
  <wgt id="778">5.72418e-12</wgt>
  <wgt id="779">4.18622e-12</wgt>
  <wgt id="780">3.03494e-12</wgt>
  <wgt id="781">6.57227e-12</wgt>
  <wgt id="782">6.51328e-12</wgt>
  <wgt id="783">4.08679e-12</wgt>
  <wgt id="784">4.59181e-12</wgt>
  <wgt id="785">7.74286e-12</wgt>
  <wgt id="786">4.01106e-12</wgt>
  <wgt id="787">6.8656e-12</wgt>
  <wgt id="788">2.56084e-12</wgt>
  <wgt id="789">4.58581e-12</wgt>
  <wgt id="790">3.92071e-12</wgt>
  <wgt id="791">6.04354e-12</wgt>
  <wgt id="792">7.67233e-12</wgt>
  <wgt id="793">5.61571e-12</wgt>
  <wgt id="794">3.74472e-12</wgt>
  <wgt id="795">7.18571e-12</wgt>
  <wgt id="796">7.69963e-12</wgt>
  <wgt id="797">7.12502e-12</wgt>
  <wgt id="798">4.80884e-12</wgt>
  <wgt id="799">6.73922e-12</wgt>
  <wgt id="800">4.69269e-12</wgt>
  <wgt id="801">5.29224e-12</wgt>
  <wgt id="802">3.69208e-12</wgt>
  <wgt id="803">8.55995e-12</wgt>
  <wgt id="804">7.19943e-12</wgt>
  <wgt id="805">7.09201e-12</wgt>
  <wgt id="806">6.23549e-12</wgt>
  <wgt id="807">5.50016e-12</wgt>
  <wgt id="808">5.44885e-12</wgt>
  <wgt id="809">5.29265e-12</wgt>
  <wgt id="810">6.31643e-12</wgt>
  <wgt id="811">6.07902e-12</wgt>
  <wgt id="812">3.92403e-12</wgt>
  <wgt id="813">4.12007e-12</wgt>
  <wgt id="814">4.43156e-12</wgt>
  <wgt id="815">4.10577e-12</wgt>
  <wgt id="816">4.02867e-12</wgt>
  <wgt id="817">5.81261e-12</wgt>
  <wgt id="818">6.57517e-12</wgt>
  <wgt id="819">4.17771e-12</wgt>
  <wgt id="820">5.56236e-12</wgt>
  <wgt id="821">6.67063e-12</wgt>
  <wgt id="822">4.61529e-12</wgt>
  <wgt id="823">6.89946e-12</wgt>
  <wgt id="824">8.25289e-12</wgt>
  <wgt id="825">3.60083e-12</wgt>
  <wgt id="826">6.54794e-12</wgt>
  <wgt id="827">3.07489e-12</wgt>
  <wgt id="828">7.31624e-12</wgt>
  <wgt id="829">5.8928e-12</wgt>
  <wgt id="830">3.4162e-12</wgt>
  <wgt id="831">6.40891e-12</wgt>
  <wgt id="832">9.71505e-12</wgt>
  <wgt id="833">4.93386e-12</wgt>
  <wgt id="834">9.35873e-12</wgt>
  <wgt id="835">4.45077e-12</wgt>
  <wgt id="836">5.15458e-12</wgt>
  <wgt id="837">6.56075e-12</wgt>
  <wgt id="838">5.00032e-12</wgt>
  <wgt id="839">6.36333e-12</wgt>
  <wgt id="840">5.09099e-12</wgt>
  <wgt id="841">7.5281e-12</wgt>
  <wgt id="842">5.41315e-12</wgt>
  <wgt id="843">5.9781e-12</wgt>
  <wgt id="844">6.12749e-12</wgt>
  <wgt id="845">9.19677e-12</wgt>
  <wgt id="846">5.98685e-12</wgt>
  <wgt id="847">5.9785e-12</wgt>
  <wgt id="848">4.2656e-12</wgt>
  <wgt id="849">6.01178e-12</wgt>
  <wgt id="850">8.01239e-12</wgt>
  <wgt id="851">6.49203e-12</wgt>
  <wgt id="852">3.94075e-12</wgt>
  <wgt id="853">6.66033e-12</wgt>
  <wgt id="854">7.41815e-12</wgt>
  <wgt id="855">6.75534e-12</wgt>
  <wgt id="856">3.43114e-12</wgt>
  <wgt id="857">5.35488e-12</wgt>
  <wgt id="858">5.33923e-12</wgt>
  <wgt id="859">5.45594e-12</wgt>
  <wgt id="860">6.78393e-12</wgt>
  <wgt id="861">4.93226e-12</wgt>
  <wgt id="862">5.78389e-12</wgt>
  <wgt id="863">6.32784e-12</wgt>
  <wgt id="864">6.00093e-12</wgt>
  <wgt id="865">8.57004e-12</wgt>
  <wgt id="866">9.52853e-12</wgt>
  <wgt id="867">5.81988e-12</wgt>
  <wgt id="868">5.71477e-12</wgt>
  <wgt id="869">3.9174e-12</wgt>
  <wgt id="870">4.2951e-12</wgt>
  <wgt id="871">4.19407e-12</wgt>
  <wgt id="872">7.44468e-12</wgt>
  <wgt id="873">4.73266e-12</wgt>
  <wgt id="874">6.17443e-12</wgt>
  <wgt id="875">4.74823e-12</wgt>
  <wgt id="876">7.25868e-12</wgt>
  <wgt id="877">6.47645e-12</wgt>
  <wgt id="878">4.65315e-12</wgt>
  <wgt id="879">8.11248e-12</wgt>
  <wgt id="880">8.21897e-12</wgt>
  <wgt id="881">8.66098e-12</wgt>
  <wgt id="882">7.9055e-12</wgt>
  <wgt id="883">8.08543e-12</wgt>
  <wgt id="884">8.09617e-12</wgt>
  <wgt id="885">8.43994e-12</wgt>
  <wgt id="886">7.78852e-12</wgt>
  <wgt id="887">8.45411e-12</wgt>
  <wgt id="888">7.96697e-12</wgt>
  <wgt id="889">7.92447e-12</wgt>
  <wgt id="890">8.37864e-12</wgt>
  <wgt id="891">7.94668e-12</wgt>
  <wgt id="892">8.47145e-12</wgt>
  <wgt id="893">8.3526e-12</wgt>
  <wgt id="894">8.4307e-12</wgt>
  <wgt id="895">7.995e-12</wgt>
  <wgt id="896">9.97887e-12</wgt>
  <wgt id="897">8.74018e-12</wgt>
  <wgt id="898">7.79418e-12</wgt>
  <wgt id="899">7.86742e-12</wgt>
  <wgt id="900">7.65045e-12</wgt>
  <wgt id="901">7.09527e-12</wgt>
  <wgt id="902">7.11497e-12</wgt>
  <wgt id="903">7.17703e-12</wgt>
  <wgt id="904">8.10286e-12</wgt>
  <wgt id="905">7.98147e-12</wgt>
  <wgt id="906">9.54203e-12</wgt>
  <wgt id="907">8.99526e-12</wgt>
  <wgt id="908">8.87074e-12</wgt>
  <wgt id="909">7.71321e-12</wgt>
  <wgt id="910">7.71671e-12</wgt>
  <wgt id="911">7.8945e-12</wgt>
  <wgt id="912">7.90561e-12</wgt>
  <wgt id="913">7.3131e-12</wgt>
  <wgt id="914">8.21287e-12</wgt>
  <wgt id="915">7.76188e-12</wgt>
  <wgt id="916">8.73331e-12</wgt>
  <wgt id="917">7.63365e-12</wgt>
  <wgt id="918">7.91613e-12</wgt>
  <wgt id="919">7.82844e-12</wgt>
  <wgt id="920">7.4297e-12</wgt>
  <wgt id="921">8.2589e-12</wgt>
  <wgt id="922">7.38749e-12</wgt>
  <wgt id="923">7.985e-12</wgt>
  <wgt id="924">7.14821e-12</wgt>
  <wgt id="925">6.8876e-12</wgt>
  <wgt id="926">8.81888e-12</wgt>
  <wgt id="927">8.62188e-12</wgt>
  <wgt id="928">8.46421e-12</wgt>
  <wgt id="929">8.09878e-12</wgt>
  <wgt id="930">8.03333e-12</wgt>
  <wgt id="931">7.86224e-12</wgt>
  <wgt id="932">7.81555e-12</wgt>
  <wgt id="933">8.76518e-12</wgt>
  <wgt id="934">7.95359e-12</wgt>
  <wgt id="935">9.12619e-12</wgt>
  <wgt id="936">7.78526e-12</wgt>
  <wgt id="937">8.30891e-12</wgt>
  <wgt id="938">8.22344e-12</wgt>
  <wgt id="939">7.74163e-12</wgt>
  <wgt id="940">8.00713e-12</wgt>
  <wgt id="941">7.77098e-12</wgt>
  <wgt id="942">8.54202e-12</wgt>
  <wgt id="943">9.19686e-12</wgt>
  <wgt id="944">7.7592e-12</wgt>
  <wgt id="945">7.99206e-12</wgt>
  <wgt id="946">7.5879e-12</wgt>
  <wgt id="947">7.94829e-12</wgt>
  <wgt id="948">8.58362e-12</wgt>
  <wgt id="949">8.78519e-12</wgt>
  <wgt id="950">7.04609e-12</wgt>
  <wgt id="951">7.97053e-12</wgt>
  <wgt id="952">8.40509e-12</wgt>
  <wgt id="953">8.65043e-12</wgt>
  <wgt id="954">8.20077e-12</wgt>
  <wgt id="955">7.40593e-12</wgt>
  <wgt id="956">7.49516e-12</wgt>
  <wgt id="957">8.45993e-12</wgt>
  <wgt id="958">8.03279e-12</wgt>
  <wgt id="959">7.99245e-12</wgt>
  <wgt id="960">7.29151e-12</wgt>
  <wgt id="961">7.98406e-12</wgt>
  <wgt id="962">8.81438e-12</wgt>
  <wgt id="963">7.97836e-12</wgt>
  <wgt id="964">8.70025e-12</wgt>
  <wgt id="965">8.73264e-12</wgt>
  <wgt id="966">8.1282e-12</wgt>
  <wgt id="967">8.50042e-12</wgt>
  <wgt id="968">8.23634e-12</wgt>
  <wgt id="969">8.13881e-12</wgt>
  <wgt id="970">8.25892e-12</wgt>
  <wgt id="971">7.53116e-12</wgt>
  <wgt id="972">8.57277e-12</wgt>
  <wgt id="973">7.89452e-12</wgt>
  <wgt id="974">9.63839e-12</wgt>
  <wgt id="975">7.82267e-12</wgt>
  <wgt id="976">8.06474e-12</wgt>
  <wgt id="977">6.78618e-12</wgt>
  <wgt id="978">8.48594e-12</wgt>
  <wgt id="979">8.88746e-12</wgt>
  <wgt id="980">8.0762e-12</wgt>
  <wgt id="981">8.20216e-12</wgt>
  <wgt id="982">7.85508e-12</wgt>
</rwgt>
</event>
<event>
 5   1  0.5790000E-11  0.2379610E+04  0.7818608E-02  0.7684412E-01
       21   -1    0    0  502  501  0.00000000000E+00  0.00000000000E+00  0.22044269417E+04  0.22044269417E+04  0.00000000000E+00 0. -1.
       21   -1    0    0  501  502 -0.00000000000E+00 -0.00000000000E+00 -0.64217863407E+03  0.64217863407E+03  0.00000000000E+00 0.  1.
       39    2    1    2    0    0  0.00000000000E+00  0.00000000000E+00  0.15622483077E+04  0.28466055758E+04  0.23796099532E+04 0.  0.
       25    1    3    3    0    0  0.57755778213E+03  0.54954466575E+03  0.18270305267E+04  0.19973076570E+04  0.12500000000E+03 0.  0.
       25    1    3    3    0    0 -0.57755778213E+03 -0.54954466575E+03 -0.26478221902E+03  0.84929791879E+03  0.12500000000E+03 0.  0.
<mgrwt>
<rscale>  0 0.23796100E+04</rscale>
<asrwt>0</asrwt>
<pdfrwt beam="1">  1       21 0.33914260E+00 0.23796100E+04</pdfrwt>
<pdfrwt beam="2">  1       21 0.98796714E-01 0.23796100E+04</pdfrwt>
<totfact> 0.56896412E+00</totfact>
</mgrwt>
<rwgt>
  <wgt id="1">5.79e-12</wgt>
  <wgt id="2">4.98413e-12</wgt>
  <wgt id="3">6.80352e-12</wgt>
  <wgt id="4">5.79e-12</wgt>
  <wgt id="5">4.98413e-12</wgt>
  <wgt id="6">6.80352e-12</wgt>
  <wgt id="7">5.79e-12</wgt>
  <wgt id="8">4.98413e-12</wgt>
  <wgt id="9">6.80352e-12</wgt>
  <wgt id="10">6.12396e-12</wgt>
  <wgt id="11">6.12311e-12</wgt>
  <wgt id="12">6.10744e-12</wgt>
  <wgt id="13">6.11278e-12</wgt>
  <wgt id="14">6.14202e-12</wgt>
  <wgt id="15">6.13369e-12</wgt>
  <wgt id="16">6.106e-12</wgt>
  <wgt id="17">6.16178e-12</wgt>
  <wgt id="18">6.12016e-12</wgt>
  <wgt id="19">6.15179e-12</wgt>
  <wgt id="20">6.12433e-12</wgt>
  <wgt id="21">6.07243e-12</wgt>
  <wgt id="22">6.07615e-12</wgt>
  <wgt id="23">6.02178e-12</wgt>
  <wgt id="24">6.07218e-12</wgt>
  <wgt id="25">6.09977e-12</wgt>
  <wgt id="26">6.13955e-12</wgt>
  <wgt id="27">6.11003e-12</wgt>
  <wgt id="28">6.08195e-12</wgt>
  <wgt id="29">6.12536e-12</wgt>
  <wgt id="30">6.06697e-12</wgt>
  <wgt id="31">6.15195e-12</wgt>
  <wgt id="32">6.06809e-12</wgt>
  <wgt id="33">6.13064e-12</wgt>
  <wgt id="34">6.07928e-12</wgt>
  <wgt id="35">6.07159e-12</wgt>
  <wgt id="36">6.15462e-12</wgt>
  <wgt id="37">6.10195e-12</wgt>
  <wgt id="38">6.0957e-12</wgt>
  <wgt id="39">6.24477e-12</wgt>
  <wgt id="40">6.13369e-12</wgt>
  <wgt id="41">6.11933e-12</wgt>
  <wgt id="42">6.14022e-12</wgt>
  <wgt id="43">6.13214e-12</wgt>
  <wgt id="44">6.16093e-12</wgt>
  <wgt id="45">6.13071e-12</wgt>
  <wgt id="46">6.09204e-12</wgt>
  <wgt id="47">6.19746e-12</wgt>
  <wgt id="48">6.17017e-12</wgt>
  <wgt id="49">6.09017e-12</wgt>
  <wgt id="50">6.06075e-12</wgt>
  <wgt id="51">6.07608e-12</wgt>
  <wgt id="52">6.13612e-12</wgt>
  <wgt id="53">6.20598e-12</wgt>
  <wgt id="54">6.16269e-12</wgt>
  <wgt id="55">6.11732e-12</wgt>
  <wgt id="56">6.07637e-12</wgt>
  <wgt id="57">6.07344e-12</wgt>
  <wgt id="58">6.12218e-12</wgt>
  <wgt id="59">6.14077e-12</wgt>
  <wgt id="60">6.05933e-12</wgt>
  <wgt id="61">6.09495e-12</wgt>
  <wgt id="62">6.11874e-12</wgt>
  <wgt id="63">6.11891e-12</wgt>
  <wgt id="64">6.11691e-12</wgt>
  <wgt id="65">6.08958e-12</wgt>
  <wgt id="66">6.13676e-12</wgt>
  <wgt id="67">6.12858e-12</wgt>
  <wgt id="68">6.12135e-12</wgt>
  <wgt id="69">6.10999e-12</wgt>
  <wgt id="70">6.09701e-12</wgt>
  <wgt id="71">6.12717e-12</wgt>
  <wgt id="72">6.09454e-12</wgt>
  <wgt id="73">6.14433e-12</wgt>
  <wgt id="74">6.15393e-12</wgt>
  <wgt id="75">6.11322e-12</wgt>
  <wgt id="76">6.16931e-12</wgt>
  <wgt id="77">6.11063e-12</wgt>
  <wgt id="78">6.11855e-12</wgt>
  <wgt id="79">6.13958e-12</wgt>
  <wgt id="80">6.06797e-12</wgt>
  <wgt id="81">6.12008e-12</wgt>
  <wgt id="82">6.13066e-12</wgt>
  <wgt id="83">6.07926e-12</wgt>
  <wgt id="84">6.09751e-12</wgt>
  <wgt id="85">6.0941e-12</wgt>
  <wgt id="86">6.15585e-12</wgt>
  <wgt id="87">6.05675e-12</wgt>
  <wgt id="88">6.1457e-12</wgt>
  <wgt id="89">6.13883e-12</wgt>
  <wgt id="90">6.14874e-12</wgt>
  <wgt id="91">6.13237e-12</wgt>
  <wgt id="92">6.14492e-12</wgt>
  <wgt id="93">6.13081e-12</wgt>
  <wgt id="94">6.10312e-12</wgt>
  <wgt id="95">6.14554e-12</wgt>
  <wgt id="96">6.14334e-12</wgt>
  <wgt id="97">6.09481e-12</wgt>
  <wgt id="98">6.12405e-12</wgt>
  <wgt id="99">6.11766e-12</wgt>
  <wgt id="100">6.13736e-12</wgt>
  <wgt id="101">6.11194e-12</wgt>
  <wgt id="102">6.10947e-12</wgt>
  <wgt id="103">6.14913e-12</wgt>
  <wgt id="104">6.11207e-12</wgt>
  <wgt id="105">6.14216e-12</wgt>
  <wgt id="106">6.1049e-12</wgt>
  <wgt id="107">6.16551e-12</wgt>
  <wgt id="108">6.11088e-12</wgt>
  <wgt id="109">6.12616e-12</wgt>
  <wgt id="110">6.12295e-12</wgt>
  <wgt id="111">6.11576e-12</wgt>
  <wgt id="112">6.21314e-12</wgt>
  <wgt id="113">8.94278e-12</wgt>
  <wgt id="114">8.14625e-12</wgt>
  <wgt id="115">7.99217e-12</wgt>
  <wgt id="116">1.11279e-11</wgt>
  <wgt id="117">6.76045e-12</wgt>
  <wgt id="118">6.7865e-12</wgt>
  <wgt id="119">6.74554e-12</wgt>
  <wgt id="120">6.76045e-12</wgt>
  <wgt id="121">6.76034e-12</wgt>
  <wgt id="122">6.7501e-12</wgt>
  <wgt id="123">6.77483e-12</wgt>
  <wgt id="124">6.75172e-12</wgt>
  <wgt id="125">6.76606e-12</wgt>
  <wgt id="126">6.77032e-12</wgt>
  <wgt id="127">6.75383e-12</wgt>
  <wgt id="128">6.78093e-12</wgt>
  <wgt id="129">6.74012e-12</wgt>
  <wgt id="130">6.79325e-12</wgt>
  <wgt id="131">6.7263e-12</wgt>
  <wgt id="132">6.56913e-12</wgt>
  <wgt id="133">6.98879e-12</wgt>
  <wgt id="134">6.6868e-12</wgt>
  <wgt id="135">6.81832e-12</wgt>
  <wgt id="136">6.86842e-12</wgt>
  <wgt id="137">6.63073e-12</wgt>
  <wgt id="138">7.08021e-12</wgt>
  <wgt id="139">6.4582e-12</wgt>
  <wgt id="140">6.73031e-12</wgt>
  <wgt id="141">6.78295e-12</wgt>
  <wgt id="142">6.75838e-12</wgt>
  <wgt id="143">6.78324e-12</wgt>
  <wgt id="144">6.4599e-12</wgt>
  <wgt id="145">7.05519e-12</wgt>
  <wgt id="146">6.85785e-12</wgt>
  <wgt id="147">6.68037e-12</wgt>
  <wgt id="148">6.78605e-12</wgt>
  <wgt id="149">6.75853e-12</wgt>
  <wgt id="150">6.81771e-12</wgt>
  <wgt id="151">6.73366e-12</wgt>
  <wgt id="152">6.76215e-12</wgt>
  <wgt id="153">6.75977e-12</wgt>
  <wgt id="154">6.7692e-12</wgt>
  <wgt id="155">6.73513e-12</wgt>
  <wgt id="156">7.01087e-12</wgt>
  <wgt id="157">6.53669e-12</wgt>
  <wgt id="158">8.09033e-12</wgt>
  <wgt id="159">8.12491e-12</wgt>
  <wgt id="160">8.06237e-12</wgt>
  <wgt id="161">8.06905e-12</wgt>
  <wgt id="162">8.11402e-12</wgt>
  <wgt id="163">8.08081e-12</wgt>
  <wgt id="164">8.1043e-12</wgt>
  <wgt id="165">8.09313e-12</wgt>
  <wgt id="166">8.08805e-12</wgt>
  <wgt id="167">8.08476e-12</wgt>
  <wgt id="168">8.09801e-12</wgt>
  <wgt id="169">8.05768e-12</wgt>
  <wgt id="170">8.11063e-12</wgt>
  <wgt id="171">8.08428e-12</wgt>
  <wgt id="172">8.09873e-12</wgt>
  <wgt id="173">8.07329e-12</wgt>
  <wgt id="174">8.09608e-12</wgt>
  <wgt id="175">7.84869e-12</wgt>
  <wgt id="176">8.4073e-12</wgt>
  <wgt id="177">8.12775e-12</wgt>
  <wgt id="178">8.05641e-12</wgt>
  <wgt id="179">8.5212e-12</wgt>
  <wgt id="180">7.42955e-12</wgt>
  <wgt id="181">7.80985e-12</wgt>
  <wgt id="182">8.27779e-12</wgt>
  <wgt id="183">7.92028e-12</wgt>
  <wgt id="184">8.17474e-12</wgt>
  <wgt id="185">7.9956e-12</wgt>
  <wgt id="186">8.2049e-12</wgt>
  <wgt id="187">7.99523e-12</wgt>
  <wgt id="188">8.25753e-12</wgt>
  <wgt id="189">8.02402e-12</wgt>
  <wgt id="190">8.1172e-12</wgt>
  <wgt id="191">8.12064e-12</wgt>
  <wgt id="192">8.07231e-12</wgt>
  <wgt id="193">8.23218e-12</wgt>
  <wgt id="194">8.01878e-12</wgt>
  <wgt id="195">7.77406e-12</wgt>
  <wgt id="196">8.60305e-12</wgt>
  <wgt id="197">8.13498e-12</wgt>
  <wgt id="198">8.07946e-12</wgt>
  <wgt id="199">8.09033e-12</wgt>
  <wgt id="200">8.1714e-12</wgt>
  <wgt id="201">8.14421e-12</wgt>
  <wgt id="202">8.11761e-12</wgt>
  <wgt id="203">8.07986e-12</wgt>
  <wgt id="204">8.06058e-12</wgt>
  <wgt id="205">8.04491e-12</wgt>
  <wgt id="206">7.91524e-12</wgt>
  <wgt id="207">7.96303e-12</wgt>
  <wgt id="208">7.86774e-12</wgt>
  <wgt id="209">7.94005e-12</wgt>
  <wgt id="210">7.89713e-12</wgt>
  <wgt id="211">7.9122e-12</wgt>
  <wgt id="212">7.9175e-12</wgt>
  <wgt id="213">7.91444e-12</wgt>
  <wgt id="214">7.9162e-12</wgt>
  <wgt id="215">7.92144e-12</wgt>
  <wgt id="216">7.91077e-12</wgt>
  <wgt id="217">7.93321e-12</wgt>
  <wgt id="218">7.90121e-12</wgt>
  <wgt id="219">7.90597e-12</wgt>
  <wgt id="220">7.92073e-12</wgt>
  <wgt id="221">7.91891e-12</wgt>
  <wgt id="222">7.90447e-12</wgt>
  <wgt id="223">7.44992e-12</wgt>
  <wgt id="224">8.34271e-12</wgt>
  <wgt id="225">7.81446e-12</wgt>
  <wgt id="226">8.04365e-12</wgt>
  <wgt id="227">7.83733e-12</wgt>
  <wgt id="228">7.94943e-12</wgt>
  <wgt id="229">7.79843e-12</wgt>
  <wgt id="230">7.97324e-12</wgt>
  <wgt id="231">8.19588e-12</wgt>
  <wgt id="232">7.68624e-12</wgt>
  <wgt id="233">7.86257e-12</wgt>
  <wgt id="234">8.00392e-12</wgt>
  <wgt id="235">7.55708e-12</wgt>
  <wgt id="236">8.20607e-12</wgt>
  <wgt id="237">7.7085e-12</wgt>
  <wgt id="238">7.98403e-12</wgt>
  <wgt id="239">7.83233e-12</wgt>
  <wgt id="240">8.06373e-12</wgt>
  <wgt id="241">7.81393e-12</wgt>
  <wgt id="242">8.03475e-12</wgt>
  <wgt id="243">8.06599e-12</wgt>
  <wgt id="244">7.90994e-12</wgt>
  <wgt id="245">7.91256e-12</wgt>
  <wgt id="246">7.95796e-12</wgt>
  <wgt id="247">7.91524e-12</wgt>
  <wgt id="248">8.00378e-12</wgt>
  <wgt id="249">7.97386e-12</wgt>
  <wgt id="250">7.94146e-12</wgt>
  <wgt id="251">7.89903e-12</wgt>
  <wgt id="252">7.87663e-12</wgt>
  <wgt id="253">7.86169e-12</wgt>
  <wgt id="254">7.61583e-12</wgt>
  <wgt id="255">7.62251e-12</wgt>
  <wgt id="256">7.60848e-12</wgt>
  <wgt id="257">7.62168e-12</wgt>
  <wgt id="258">7.61154e-12</wgt>
  <wgt id="259">7.66714e-12</wgt>
  <wgt id="260">7.56642e-12</wgt>
  <wgt id="261">7.62901e-12</wgt>
  <wgt id="262">7.60015e-12</wgt>
  <wgt id="263">7.60972e-12</wgt>
  <wgt id="264">7.62285e-12</wgt>
  <wgt id="265">7.60619e-12</wgt>
  <wgt id="266">7.63508e-12</wgt>
  <wgt id="267">7.61852e-12</wgt>
  <wgt id="268">7.61209e-12</wgt>
  <wgt id="269">7.64004e-12</wgt>
  <wgt id="270">7.59926e-12</wgt>
  <wgt id="271">7.59399e-12</wgt>
  <wgt id="272">7.64032e-12</wgt>
  <wgt id="273">7.59533e-12</wgt>
  <wgt id="274">7.63146e-12</wgt>
  <wgt id="275">7.56648e-12</wgt>
  <wgt id="276">7.667e-12</wgt>
  <wgt id="277">7.57124e-12</wgt>
  <wgt id="278">7.65643e-12</wgt>
  <wgt id="279">7.47007e-12</wgt>
  <wgt id="280">7.79957e-12</wgt>
  <wgt id="281">7.57753e-12</wgt>
  <wgt id="282">7.62908e-12</wgt>
  <wgt id="283">7.35585e-12</wgt>
  <wgt id="284">7.94156e-12</wgt>
  <wgt id="285">7.18851e-12</wgt>
  <wgt id="286">7.97911e-12</wgt>
  <wgt id="287">7.64384e-12</wgt>
  <wgt id="288">7.58014e-12</wgt>
  <wgt id="289">7.68024e-12</wgt>
  <wgt id="290">7.47484e-12</wgt>
  <wgt id="291">7.585e-12</wgt>
  <wgt id="292">7.61491e-12</wgt>
  <wgt id="293">7.54596e-12</wgt>
  <wgt id="294">7.68527e-12</wgt>
  <wgt id="295">7.4473e-12</wgt>
  <wgt id="296">7.82257e-12</wgt>
  <wgt id="297">7.59258e-12</wgt>
  <wgt id="298">7.65776e-12</wgt>
  <wgt id="299">7.58895e-12</wgt>
  <wgt id="300">7.68749e-12</wgt>
  <wgt id="301">7.4453e-12</wgt>
  <wgt id="302">8.0037e-12</wgt>
  <wgt id="303">7.52353e-12</wgt>
  <wgt id="304">7.66723e-12</wgt>
  <wgt id="305">7.52999e-12</wgt>
  <wgt id="306">7.53699e-12</wgt>
  <wgt id="307">7.52247e-12</wgt>
  <wgt id="308">7.53648e-12</wgt>
  <wgt id="309">7.52568e-12</wgt>
  <wgt id="310">7.5821e-12</wgt>
  <wgt id="311">7.48193e-12</wgt>
  <wgt id="312">7.54224e-12</wgt>
  <wgt id="313">7.51698e-12</wgt>
  <wgt id="314">7.52371e-12</wgt>
  <wgt id="315">7.536e-12</wgt>
  <wgt id="316">7.52035e-12</wgt>
  <wgt id="317">7.5512e-12</wgt>
  <wgt id="318">7.53593e-12</wgt>
  <wgt id="319">7.5197e-12</wgt>
  <wgt id="320">7.55613e-12</wgt>
  <wgt id="321">7.51548e-12</wgt>
  <wgt id="322">7.50646e-12</wgt>
  <wgt id="323">7.55751e-12</wgt>
  <wgt id="324">7.51518e-12</wgt>
  <wgt id="325">7.54297e-12</wgt>
  <wgt id="326">7.48936e-12</wgt>
  <wgt id="327">7.58223e-12</wgt>
  <wgt id="328">7.49138e-12</wgt>
  <wgt id="329">7.55133e-12</wgt>
  <wgt id="330">7.7499e-12</wgt>
  <wgt id="331">7.32137e-12</wgt>
  <wgt id="332">7.49821e-12</wgt>
  <wgt id="333">7.53855e-12</wgt>
  <wgt id="334">7.3335e-12</wgt>
  <wgt id="335">7.77737e-12</wgt>
  <wgt id="336">7.2288e-12</wgt>
  <wgt id="337">7.9054e-12</wgt>
  <wgt id="338">7.62674e-12</wgt>
  <wgt id="339">7.44118e-12</wgt>
  <wgt id="340">7.58755e-12</wgt>
  <wgt id="341">7.38949e-12</wgt>
  <wgt id="342">7.50814e-12</wgt>
  <wgt id="343">7.513e-12</wgt>
  <wgt id="344">7.46941e-12</wgt>
  <wgt id="345">7.60049e-12</wgt>
  <wgt id="346">7.35868e-12</wgt>
  <wgt id="347">7.72647e-12</wgt>
  <wgt id="348">7.50764e-12</wgt>
  <wgt id="349">7.56823e-12</wgt>
  <wgt id="350">7.49697e-12</wgt>
  <wgt id="351">7.61413e-12</wgt>
  <wgt id="352">7.35812e-12</wgt>
  <wgt id="353">7.90474e-12</wgt>
  <wgt id="354">7.40028e-12</wgt>
  <wgt id="355">7.60664e-12</wgt>
  <wgt id="356">7.61583e-12</wgt>
  <wgt id="357">7.53101e-12</wgt>
  <wgt id="358">7.52999e-12</wgt>
  <wgt id="359">7.60882e-12</wgt>
  <wgt id="360">7.76595e-12</wgt>
  <wgt id="361">7.65918e-12</wgt>
  <wgt id="362">7.8204e-12</wgt>
  <wgt id="363">7.79952e-12</wgt>
  <wgt id="364">7.75795e-12</wgt>
  <wgt id="365">7.72683e-12</wgt>
  <wgt id="366">7.69564e-12</wgt>
  <wgt id="367">7.63709e-12</wgt>
  <wgt id="368">7.599e-12</wgt>
  <wgt id="369">7.55792e-12</wgt>
  <wgt id="370">7.65918e-12</wgt>
  <wgt id="371">7.69082e-12</wgt>
  <wgt id="372">7.67296e-12</wgt>
  <wgt id="373">7.64807e-12</wgt>
  <wgt id="374">7.65992e-12</wgt>
  <wgt id="375">8.88963e-12</wgt>
  <wgt id="376">8.89037e-12</wgt>
  <wgt id="377">8.88885e-12</wgt>
  <wgt id="378">8.92416e-12</wgt>
  <wgt id="379">8.85556e-12</wgt>
  <wgt id="380">8.91538e-12</wgt>
  <wgt id="381">8.87947e-12</wgt>
  <wgt id="382">8.93146e-12</wgt>
  <wgt id="383">8.8485e-12</wgt>
  <wgt id="384">8.89554e-12</wgt>
  <wgt id="385">8.88423e-12</wgt>
  <wgt id="386">8.91831e-12</wgt>
  <wgt id="387">8.87747e-12</wgt>
  <wgt id="388">8.88206e-12</wgt>
  <wgt id="389">8.89928e-12</wgt>
  <wgt id="390">8.90974e-12</wgt>
  <wgt id="391">8.86847e-12</wgt>
  <wgt id="392">8.80579e-12</wgt>
  <wgt id="393">8.93714e-12</wgt>
  <wgt id="394">8.89516e-12</wgt>
  <wgt id="395">8.88179e-12</wgt>
  <wgt id="396">8.90743e-12</wgt>
  <wgt id="397">8.8772e-12</wgt>
  <wgt id="398">8.87454e-12</wgt>
  <wgt id="399">8.90421e-12</wgt>
  <wgt id="400">8.8751e-12</wgt>
  <wgt id="401">8.92251e-12</wgt>
  <wgt id="402">8.80198e-12</wgt>
  <wgt id="403">8.94847e-12</wgt>
  <wgt id="404">9.16507e-12</wgt>
  <wgt id="405">8.23787e-12</wgt>
  <wgt id="406">8.69159e-12</wgt>
  <wgt id="407">9.3318e-12</wgt>
  <wgt id="408">8.99342e-12</wgt>
  <wgt id="409">8.69934e-12</wgt>
  <wgt id="410">8.56975e-12</wgt>
  <wgt id="411">9.04482e-12</wgt>
  <wgt id="412">8.86767e-12</wgt>
  <wgt id="413">8.92207e-12</wgt>
  <wgt id="414">8.76259e-12</wgt>
  <wgt id="415">8.98865e-12</wgt>
  <wgt id="416">9.21821e-12</wgt>
  <wgt id="417">8.44085e-12</wgt>
  <wgt id="418">8.9093e-12</wgt>
  <wgt id="419">8.78436e-12</wgt>
  <wgt id="420">9.13531e-12</wgt>
  <wgt id="421">8.72461e-12</wgt>
  <wgt id="422">8.8237e-12</wgt>
  <wgt id="423">8.9202e-12</wgt>
  <wgt id="424">9.18467e-12</wgt>
  <wgt id="425">8.68841e-12</wgt>
  <wgt id="426">8.88963e-12</wgt>
  <wgt id="427">8.68651e-12</wgt>
  <wgt id="428">9.34597e-12</wgt>
  <wgt id="429">9.02389e-12</wgt>
  <wgt id="430">9.34102e-12</wgt>
  <wgt id="431">9.27589e-12</wgt>
  <wgt id="432">9.2177e-12</wgt>
  <wgt id="433">9.16057e-12</wgt>
  <wgt id="434">9.08665e-12</wgt>
  <wgt id="435">8.94552e-12</wgt>
  <wgt id="436">8.87467e-12</wgt>
  <wgt id="437">8.80508e-12</wgt>
  <wgt id="438">9.02389e-12</wgt>
  <wgt id="439">9.05119e-12</wgt>
  <wgt id="440">9.03394e-12</wgt>
  <wgt id="441">9.01717e-12</wgt>
  <wgt id="442">9.01197e-12</wgt>
  <wgt id="443">7.98644e-12</wgt>
  <wgt id="444">8.07991e-12</wgt>
  <wgt id="445">8.08695e-12</wgt>
  <wgt id="446">7.92782e-12</wgt>
  <wgt id="447">7.98705e-12</wgt>
  <wgt id="448">7.79073e-12</wgt>
  <wgt id="449">8.17119e-12</wgt>
  <wgt id="450">8.10768e-12</wgt>
  <wgt id="451">7.96227e-12</wgt>
  <wgt id="452">8.16733e-12</wgt>
  <wgt id="453">8.10408e-12</wgt>
  <wgt id="454">7.54186e-12</wgt>
  <wgt id="455">8.06433e-12</wgt>
  <wgt id="456">8.15895e-12</wgt>
  <wgt id="457">8.01421e-12</wgt>
  <wgt id="458">8.13923e-12</wgt>
  <wgt id="459">8.06184e-12</wgt>
  <wgt id="460">8.17237e-12</wgt>
  <wgt id="461">7.77842e-12</wgt>
  <wgt id="462">7.92444e-12</wgt>
  <wgt id="463">7.84845e-12</wgt>
  <wgt id="464">7.9453e-12</wgt>
  <wgt id="465">8.07596e-12</wgt>
  <wgt id="466">7.76305e-12</wgt>
  <wgt id="467">7.92431e-12</wgt>
  <wgt id="468">7.98392e-12</wgt>
  <wgt id="469">7.96153e-12</wgt>
  <wgt id="470">7.84711e-12</wgt>
  <wgt id="471">7.87395e-12</wgt>
  <wgt id="472">8.05012e-12</wgt>
  <wgt id="473">7.70378e-12</wgt>
  <wgt id="474">5.79e-12</wgt>
  <wgt id="475">5.78816e-12</wgt>
  <wgt id="476">5.78647e-12</wgt>
  <wgt id="477">5.9561e-12</wgt>
  <wgt id="478">5.89945e-12</wgt>
  <wgt id="479">5.44416e-12</wgt>
  <wgt id="480">6.13201e-12</wgt>
  <wgt id="481">5.8398e-12</wgt>
  <wgt id="482">5.83614e-12</wgt>
  <wgt id="483">5.91483e-12</wgt>
  <wgt id="484">6.06388e-12</wgt>
  <wgt id="485">5.22747e-12</wgt>
  <wgt id="486">6.09078e-12</wgt>
  <wgt id="487">5.57792e-12</wgt>
  <wgt id="488">5.81539e-12</wgt>
  <wgt id="489">5.10122e-12</wgt>
  <wgt id="490">5.73383e-12</wgt>
  <wgt id="491">5.69513e-12</wgt>
  <wgt id="492">5.69205e-12</wgt>
  <wgt id="493">5.27424e-12</wgt>
  <wgt id="494">5.28374e-12</wgt>
  <wgt id="495">5.83602e-12</wgt>
  <wgt id="496">5.43546e-12</wgt>
  <wgt id="497">5.36926e-12</wgt>
  <wgt id="498">5.95539e-12</wgt>
  <wgt id="499">5.87574e-12</wgt>
  <wgt id="500">5.78491e-12</wgt>
  <wgt id="501">6.04827e-12</wgt>
  <wgt id="502">6.12385e-12</wgt>
  <wgt id="503">5.65381e-12</wgt>
  <wgt id="504">6.00185e-12</wgt>
  <wgt id="505">6.08658e-12</wgt>
  <wgt id="506">5.26966e-12</wgt>
  <wgt id="507">5.60802e-12</wgt>
  <wgt id="508">6.13302e-12</wgt>
  <wgt id="509">5.61206e-12</wgt>
  <wgt id="510">5.80416e-12</wgt>
  <wgt id="511">5.45421e-12</wgt>
  <wgt id="512">6.2663e-12</wgt>
  <wgt id="513">6.08096e-12</wgt>
  <wgt id="514">6.20804e-12</wgt>
  <wgt id="515">6.03422e-12</wgt>
  <wgt id="516">6.49776e-12</wgt>
  <wgt id="517">5.94035e-12</wgt>
  <wgt id="518">6.05378e-12</wgt>
  <wgt id="519">5.54815e-12</wgt>
  <wgt id="520">5.8381e-12</wgt>
  <wgt id="521">5.58384e-12</wgt>
  <wgt id="522">6.01195e-12</wgt>
  <wgt id="523">5.47113e-12</wgt>
  <wgt id="524">5.98925e-12</wgt>
  <wgt id="525">5.59104e-12</wgt>
  <wgt id="526">6.16893e-12</wgt>
  <wgt id="527">5.70375e-12</wgt>
  <wgt id="528">5.73615e-12</wgt>
  <wgt id="529">5.43741e-12</wgt>
  <wgt id="530">6.13746e-12</wgt>
  <wgt id="531">5.5058e-12</wgt>
  <wgt id="532">6.32366e-12</wgt>
  <wgt id="533">5.83336e-12</wgt>
  <wgt id="534">5.48933e-12</wgt>
  <wgt id="535">5.92773e-12</wgt>
  <wgt id="536">6.04799e-12</wgt>
  <wgt id="537">5.41756e-12</wgt>
  <wgt id="538">5.72967e-12</wgt>
  <wgt id="539">5.64119e-12</wgt>
  <wgt id="540">6.12821e-12</wgt>
  <wgt id="541">5.76662e-12</wgt>
  <wgt id="542">5.61675e-12</wgt>
  <wgt id="543">5.5235e-12</wgt>
  <wgt id="544">5.81844e-12</wgt>
  <wgt id="545">5.4142e-12</wgt>
  <wgt id="546">5.26515e-12</wgt>
  <wgt id="547">5.54615e-12</wgt>
  <wgt id="548">5.6253e-12</wgt>
  <wgt id="549">5.67456e-12</wgt>
  <wgt id="550">5.54301e-12</wgt>
  <wgt id="551">5.78071e-12</wgt>
  <wgt id="552">5.31343e-12</wgt>
  <wgt id="553">5.33584e-12</wgt>
  <wgt id="554">6.06134e-12</wgt>
  <wgt id="555">5.92578e-12</wgt>
  <wgt id="556">5.73383e-12</wgt>
  <wgt id="557">5.88441e-12</wgt>
  <wgt id="558">5.74912e-12</wgt>
  <wgt id="559">5.88992e-12</wgt>
  <wgt id="560">6.42206e-12</wgt>
  <wgt id="561">6.02193e-12</wgt>
  <wgt id="562">6.02302e-12</wgt>
  <wgt id="563">6.43064e-12</wgt>
  <wgt id="564">6.1903e-12</wgt>
  <wgt id="565">6.12536e-12</wgt>
  <wgt id="566">5.5014e-12</wgt>
  <wgt id="567">5.81407e-12</wgt>
  <wgt id="568">5.51089e-12</wgt>
  <wgt id="569">5.86252e-12</wgt>
  <wgt id="570">5.91912e-12</wgt>
  <wgt id="571">6.44365e-12</wgt>
  <wgt id="572">5.54243e-12</wgt>
  <wgt id="573">5.62578e-12</wgt>
  <wgt id="574">5.67658e-12</wgt>
  <wgt id="575">6.40198e-12</wgt>
  <wgt id="576">7.10967e-12</wgt>
  <wgt id="577">6.65058e-12</wgt>
  <wgt id="578">6.41094e-12</wgt>
  <wgt id="579">6.66348e-12</wgt>
  <wgt id="580">6.84084e-12</wgt>
  <wgt id="581">7.1022e-12</wgt>
  <wgt id="582">6.93479e-12</wgt>
  <wgt id="583">6.58186e-12</wgt>
  <wgt id="584">6.32951e-12</wgt>
  <wgt id="585">5.84246e-12</wgt>
  <wgt id="586">5.9684e-12</wgt>
  <wgt id="587">6.53574e-12</wgt>
  <wgt id="588">7.22207e-12</wgt>
  <wgt id="589">7.13963e-12</wgt>
  <wgt id="590">6.37013e-12</wgt>
  <wgt id="591">6.58422e-12</wgt>
  <wgt id="592">6.01813e-12</wgt>
  <wgt id="593">6.16403e-12</wgt>
  <wgt id="594">6.1661e-12</wgt>
  <wgt id="595">6.8509e-12</wgt>
  <wgt id="596">7.67408e-12</wgt>
  <wgt id="597">6.53521e-12</wgt>
  <wgt id="598">6.60741e-12</wgt>
  <wgt id="599">6.89842e-12</wgt>
  <wgt id="600">7.03703e-12</wgt>
  <wgt id="601">6.10789e-12</wgt>
  <wgt id="602">6.14441e-12</wgt>
  <wgt id="603">5.90737e-12</wgt>
  <wgt id="604">6.61454e-12</wgt>
  <wgt id="605">6.40007e-12</wgt>
  <wgt id="606">6.50342e-12</wgt>
  <wgt id="607">6.80218e-12</wgt>
  <wgt id="608">6.66171e-12</wgt>
  <wgt id="609">6.33818e-12</wgt>
  <wgt id="610">6.06462e-12</wgt>
  <wgt id="611">6.02473e-12</wgt>
  <wgt id="612">6.54937e-12</wgt>
  <wgt id="613">6.03441e-12</wgt>
  <wgt id="614">6.34202e-12</wgt>
  <wgt id="615">6.59503e-12</wgt>
  <wgt id="616">5.97338e-12</wgt>
  <wgt id="617">6.68283e-12</wgt>
  <wgt id="618">7.07699e-12</wgt>
  <wgt id="619">6.26963e-12</wgt>
  <wgt id="620">6.58286e-12</wgt>
  <wgt id="621">6.29922e-12</wgt>
  <wgt id="622">6.53574e-12</wgt>
  <wgt id="623">6.37167e-12</wgt>
  <wgt id="624">6.41874e-12</wgt>
  <wgt id="625">6.04561e-12</wgt>
  <wgt id="626">5.48827e-12</wgt>
  <wgt id="627">5.67919e-12</wgt>
  <wgt id="628">6.33158e-12</wgt>
  <wgt id="629">6.75273e-12</wgt>
  <wgt id="630">6.23132e-12</wgt>
  <wgt id="631">6.63235e-12</wgt>
  <wgt id="632">5.78679e-12</wgt>
  <wgt id="633">6.35448e-12</wgt>
  <wgt id="634">6.06651e-12</wgt>
  <wgt id="635">5.87502e-12</wgt>
  <wgt id="636">6.44156e-12</wgt>
  <wgt id="637">6.3867e-12</wgt>
  <wgt id="638">6.05702e-12</wgt>
  <wgt id="639">6.04601e-12</wgt>
  <wgt id="640">6.17484e-12</wgt>
  <wgt id="641">6.76923e-12</wgt>
  <wgt id="642">5.65212e-12</wgt>
  <wgt id="643">6.18777e-12</wgt>
  <wgt id="644">5.73692e-12</wgt>
  <wgt id="645">6.38811e-12</wgt>
  <wgt id="646">5.7085e-12</wgt>
  <wgt id="647">6.55874e-12</wgt>
  <wgt id="648">6.79268e-12</wgt>
  <wgt id="649">6.44346e-12</wgt>
  <wgt id="650">6.12347e-12</wgt>
  <wgt id="651">6.88722e-12</wgt>
  <wgt id="652">6.0736e-12</wgt>
  <wgt id="653">6.11389e-12</wgt>
  <wgt id="654">6.5564e-12</wgt>
  <wgt id="655">6.03857e-12</wgt>
  <wgt id="656">6.43771e-12</wgt>
  <wgt id="657">7.07937e-12</wgt>
  <wgt id="658">6.3827e-12</wgt>
  <wgt id="659">6.12357e-12</wgt>
  <wgt id="660">6.08109e-12</wgt>
  <wgt id="661">6.19408e-12</wgt>
  <wgt id="662">6.28947e-12</wgt>
  <wgt id="663">6.5553e-12</wgt>
  <wgt id="664">6.55349e-12</wgt>
  <wgt id="665">6.28227e-12</wgt>
  <wgt id="666">6.22046e-12</wgt>
  <wgt id="667">6.79287e-12</wgt>
  <wgt id="668">6.27469e-12</wgt>
  <wgt id="669">6.32443e-12</wgt>
  <wgt id="670">6.76689e-12</wgt>
  <wgt id="671">6.51016e-12</wgt>
  <wgt id="672">6.32489e-12</wgt>
  <wgt id="673">6.9286e-12</wgt>
  <wgt id="674">6.17106e-12</wgt>
  <wgt id="675">6.08244e-12</wgt>
  <wgt id="676">8.37228e-12</wgt>
  <wgt id="677">8.44147e-12</wgt>
  <wgt id="678">9.33479e-12</wgt>
  <wgt id="679">8.86562e-12</wgt>
  <wgt id="680">8.47191e-12</wgt>
  <wgt id="681">8.09046e-12</wgt>
  <wgt id="682">8.84329e-12</wgt>
  <wgt id="683">7.50236e-12</wgt>
  <wgt id="684">8.91723e-12</wgt>
  <wgt id="685">8.42133e-12</wgt>
  <wgt id="686">8.73032e-12</wgt>
  <wgt id="687">8.60698e-12</wgt>
  <wgt id="688">8.08721e-12</wgt>
  <wgt id="689">8.81684e-12</wgt>
  <wgt id="690">8.61771e-12</wgt>
  <wgt id="691">8.55375e-12</wgt>
  <wgt id="692">8.11358e-12</wgt>
  <wgt id="693">1.15864e-11</wgt>
  <wgt id="694">9.35724e-12</wgt>
  <wgt id="695">7.69416e-12</wgt>
  <wgt id="696">7.9167e-12</wgt>
  <wgt id="697">7.3493e-12</wgt>
  <wgt id="698">6.67163e-12</wgt>
  <wgt id="699">6.95207e-12</wgt>
  <wgt id="700">7.36908e-12</wgt>
  <wgt id="701">8.36495e-12</wgt>
  <wgt id="702">7.91602e-12</wgt>
  <wgt id="703">1.07584e-11</wgt>
  <wgt id="704">9.52657e-12</wgt>
  <wgt id="705">9.50833e-12</wgt>
  <wgt id="706">7.68474e-12</wgt>
  <wgt id="707">7.74994e-12</wgt>
  <wgt id="708">7.86128e-12</wgt>
  <wgt id="709">8.04292e-12</wgt>
  <wgt id="710">6.65599e-12</wgt>
  <wgt id="711">9.16412e-12</wgt>
  <wgt id="712">7.77013e-12</wgt>
  <wgt id="713">9.03756e-12</wgt>
  <wgt id="714">7.33657e-12</wgt>
  <wgt id="715">7.87642e-12</wgt>
  <wgt id="716">8.00872e-12</wgt>
  <wgt id="717">7.0512e-12</wgt>
  <wgt id="718">8.58168e-12</wgt>
  <wgt id="719">7.64191e-12</wgt>
  <wgt id="720">8.73522e-12</wgt>
  <wgt id="721">7.05292e-12</wgt>
  <wgt id="722">6.27116e-12</wgt>
  <wgt id="723">9.63909e-12</wgt>
  <wgt id="724">9.20295e-12</wgt>
  <wgt id="725">8.79917e-12</wgt>
  <wgt id="726">8.3088e-12</wgt>
  <wgt id="727">8.46785e-12</wgt>
  <wgt id="728">8.32244e-12</wgt>
  <wgt id="729">7.38277e-12</wgt>
  <wgt id="730">9.42608e-12</wgt>
  <wgt id="731">8.26299e-12</wgt>
  <wgt id="732">9.94186e-12</wgt>
  <wgt id="733">7.64962e-12</wgt>
  <wgt id="734">8.71637e-12</wgt>
  <wgt id="735">8.28455e-12</wgt>
  <wgt id="736">7.62834e-12</wgt>
  <wgt id="737">7.43997e-12</wgt>
  <wgt id="738">7.91933e-12</wgt>
  <wgt id="739">8.84662e-12</wgt>
  <wgt id="740">1.02033e-11</wgt>
  <wgt id="741">9.06518e-12</wgt>
  <wgt id="742">7.82131e-12</wgt>
  <wgt id="743">7.53912e-12</wgt>
  <wgt id="744">8.1779e-12</wgt>
  <wgt id="745">9.35266e-12</wgt>
  <wgt id="746">9.63125e-12</wgt>
  <wgt id="747">6.78764e-12</wgt>
  <wgt id="748">7.98037e-12</wgt>
  <wgt id="749">8.77171e-12</wgt>
  <wgt id="750">9.12134e-12</wgt>
  <wgt id="751">8.45359e-12</wgt>
  <wgt id="752">7.44656e-12</wgt>
  <wgt id="753">7.35499e-12</wgt>
  <wgt id="754">8.76543e-12</wgt>
  <wgt id="755">8.10723e-12</wgt>
  <wgt id="756">8.04262e-12</wgt>
  <wgt id="757">7.04856e-12</wgt>
  <wgt id="758">8.10935e-12</wgt>
  <wgt id="759">9.18977e-12</wgt>
  <wgt id="760">7.89659e-12</wgt>
  <wgt id="761">9.49361e-12</wgt>
  <wgt id="762">9.54304e-12</wgt>
  <wgt id="763">8.74758e-12</wgt>
  <wgt id="764">9.09038e-12</wgt>
  <wgt id="765">8.50004e-12</wgt>
  <wgt id="766">8.55344e-12</wgt>
  <wgt id="767">8.57764e-12</wgt>
  <wgt id="768">7.50007e-12</wgt>
  <wgt id="769">8.79718e-12</wgt>
  <wgt id="770">7.64615e-12</wgt>
  <wgt id="771">1.05536e-11</wgt>
  <wgt id="772">8.13774e-12</wgt>
  <wgt id="773">8.47953e-12</wgt>
  <wgt id="774">6.45837e-12</wgt>
  <wgt id="775">8.81289e-12</wgt>
  <wgt id="776">1.00068e-11</wgt>
  <wgt id="777">7.16699e-12</wgt>
  <wgt id="778">5.19756e-12</wgt>
  <wgt id="779">2.79576e-12</wgt>
  <wgt id="780">1.29342e-12</wgt>
  <wgt id="781">5.82994e-12</wgt>
  <wgt id="782">6.52232e-12</wgt>
  <wgt id="783">2.24e-12</wgt>
  <wgt id="784">3.22721e-12</wgt>
  <wgt id="785">8.20287e-12</wgt>
  <wgt id="786">2.15785e-12</wgt>
  <wgt id="787">7.16639e-12</wgt>
  <wgt id="788">1.85959e-20</wgt>
  <wgt id="789">3.1531e-12</wgt>
  <wgt id="790">2.34562e-12</wgt>
  <wgt id="791">6.30402e-12</wgt>
  <wgt id="792">7.2006e-12</wgt>
  <wgt id="793">4.66109e-12</wgt>
  <wgt id="794">2.01719e-12</wgt>
  <wgt id="795">7.738e-12</wgt>
  <wgt id="796">7.79753e-12</wgt>
  <wgt id="797">6.95506e-12</wgt>
  <wgt id="798">3.65075e-12</wgt>
  <wgt id="799">7.08356e-12</wgt>
  <wgt id="800">3.71333e-12</wgt>
  <wgt id="801">5.39076e-12</wgt>
  <wgt id="802">1.93017e-12</wgt>
  <wgt id="803">8.76073e-12</wgt>
  <wgt id="804">7.7756e-12</wgt>
  <wgt id="805">7.50802e-12</wgt>
  <wgt id="806">5.92495e-12</wgt>
  <wgt id="807">5.20797e-12</wgt>
  <wgt id="808">5.09554e-12</wgt>
  <wgt id="809">4.54446e-12</wgt>
  <wgt id="810">7.12346e-12</wgt>
  <wgt id="811">5.52679e-12</wgt>
  <wgt id="812">2.41441e-12</wgt>
  <wgt id="813">2.66792e-12</wgt>
  <wgt id="814">3.24706e-12</wgt>
  <wgt id="815">2.37164e-12</wgt>
  <wgt id="816">2.9557e-12</wgt>
  <wgt id="817">5.37552e-12</wgt>
  <wgt id="818">7.63637e-12</wgt>
  <wgt id="819">2.70928e-12</wgt>
  <wgt id="820">4.76479e-12</wgt>
  <wgt id="821">6.63918e-12</wgt>
  <wgt id="822">4.08151e-12</wgt>
  <wgt id="823">7.13287e-12</wgt>
  <wgt id="824">8.15923e-12</wgt>
  <wgt id="825">1.62992e-12</wgt>
  <wgt id="826">7.15805e-12</wgt>
  <wgt id="827">1.62312e-12</wgt>
  <wgt id="828">6.93362e-12</wgt>
  <wgt id="829">5.43089e-12</wgt>
  <wgt id="830">1.58666e-12</wgt>
  <wgt id="831">6.54325e-12</wgt>
  <wgt id="832">1.01087e-11</wgt>
  <wgt id="833">3.88548e-12</wgt>
  <wgt id="834">9.9895e-12</wgt>
  <wgt id="835">3.17869e-12</wgt>
  <wgt id="836">3.87563e-12</wgt>
  <wgt id="837">6.44126e-12</wgt>
  <wgt id="838">3.78419e-12</wgt>
  <wgt id="839">6.59724e-12</wgt>
  <wgt id="840">4.29808e-12</wgt>
  <wgt id="841">7.86892e-12</wgt>
  <wgt id="842">5.44821e-12</wgt>
  <wgt id="843">5.7145e-12</wgt>
  <wgt id="844">6.11702e-12</wgt>
  <wgt id="845">1.027e-11</wgt>
  <wgt id="846">4.89657e-12</wgt>
  <wgt id="847">5.7876e-12</wgt>
  <wgt id="848">2.47117e-12</wgt>
  <wgt id="849">6.01331e-12</wgt>
  <wgt id="850">8.89444e-12</wgt>
  <wgt id="851">6.54518e-12</wgt>
  <wgt id="852">1.78226e-12</wgt>
  <wgt id="853">6.91434e-12</wgt>
  <wgt id="854">8.00597e-12</wgt>
  <wgt id="855">6.80054e-12</wgt>
  <wgt id="856">1.54583e-12</wgt>
  <wgt id="857">4.22326e-12</wgt>
  <wgt id="858">5.0604e-12</wgt>
  <wgt id="859">5.05316e-12</wgt>
  <wgt id="860">7.14496e-12</wgt>
  <wgt id="861">4.03185e-12</wgt>
  <wgt id="862">5.49167e-12</wgt>
  <wgt id="863">6.38683e-12</wgt>
  <wgt id="864">5.35594e-12</wgt>
  <wgt id="865">9.27976e-12</wgt>
  <wgt id="866">1.01846e-11</wgt>
  <wgt id="867">5.30198e-12</wgt>
  <wgt id="868">5.72257e-12</wgt>
  <wgt id="869">2.29327e-12</wgt>
  <wgt id="870">3.19755e-12</wgt>
  <wgt id="871">3.44025e-12</wgt>
  <wgt id="872">8.39688e-12</wgt>
  <wgt id="873">3.90029e-12</wgt>
  <wgt id="874">6.06937e-12</wgt>
  <wgt id="875">3.64269e-12</wgt>
  <wgt id="876">7.8952e-12</wgt>
  <wgt id="877">6.19428e-12</wgt>
  <wgt id="878">4.10319e-12</wgt>
  <wgt id="879">8.37228e-12</wgt>
  <wgt id="880">8.44147e-12</wgt>
  <wgt id="881">9.33479e-12</wgt>
  <wgt id="882">8.86562e-12</wgt>
  <wgt id="883">8.47191e-12</wgt>
  <wgt id="884">8.09046e-12</wgt>
  <wgt id="885">8.84329e-12</wgt>
  <wgt id="886">7.50236e-12</wgt>
  <wgt id="887">8.91723e-12</wgt>
  <wgt id="888">8.42133e-12</wgt>
  <wgt id="889">8.73032e-12</wgt>
  <wgt id="890">8.60698e-12</wgt>
  <wgt id="891">8.08721e-12</wgt>
  <wgt id="892">8.81684e-12</wgt>
  <wgt id="893">8.61771e-12</wgt>
  <wgt id="894">8.55375e-12</wgt>
  <wgt id="895">8.11358e-12</wgt>
  <wgt id="896">1.15864e-11</wgt>
  <wgt id="897">9.35724e-12</wgt>
  <wgt id="898">7.69416e-12</wgt>
  <wgt id="899">7.9167e-12</wgt>
  <wgt id="900">7.3493e-12</wgt>
  <wgt id="901">6.67163e-12</wgt>
  <wgt id="902">6.95207e-12</wgt>
  <wgt id="903">7.36908e-12</wgt>
  <wgt id="904">8.36495e-12</wgt>
  <wgt id="905">7.91602e-12</wgt>
  <wgt id="906">1.07584e-11</wgt>
  <wgt id="907">9.52657e-12</wgt>
  <wgt id="908">9.50833e-12</wgt>
  <wgt id="909">7.68474e-12</wgt>
  <wgt id="910">7.74994e-12</wgt>
  <wgt id="911">7.86128e-12</wgt>
  <wgt id="912">8.04292e-12</wgt>
  <wgt id="913">6.65599e-12</wgt>
  <wgt id="914">9.16412e-12</wgt>
  <wgt id="915">7.77013e-12</wgt>
  <wgt id="916">9.03756e-12</wgt>
  <wgt id="917">7.33657e-12</wgt>
  <wgt id="918">7.87642e-12</wgt>
  <wgt id="919">8.00872e-12</wgt>
  <wgt id="920">7.0512e-12</wgt>
  <wgt id="921">8.58168e-12</wgt>
  <wgt id="922">7.64191e-12</wgt>
  <wgt id="923">8.73522e-12</wgt>
  <wgt id="924">7.05292e-12</wgt>
  <wgt id="925">6.27116e-12</wgt>
  <wgt id="926">9.63909e-12</wgt>
  <wgt id="927">9.20295e-12</wgt>
  <wgt id="928">8.79917e-12</wgt>
  <wgt id="929">8.3088e-12</wgt>
  <wgt id="930">8.46785e-12</wgt>
  <wgt id="931">8.32244e-12</wgt>
  <wgt id="932">7.38277e-12</wgt>
  <wgt id="933">9.42608e-12</wgt>
  <wgt id="934">8.26299e-12</wgt>
  <wgt id="935">9.94186e-12</wgt>
  <wgt id="936">7.64962e-12</wgt>
  <wgt id="937">8.71637e-12</wgt>
  <wgt id="938">8.28455e-12</wgt>
  <wgt id="939">7.62834e-12</wgt>
  <wgt id="940">7.43997e-12</wgt>
  <wgt id="941">7.91933e-12</wgt>
  <wgt id="942">8.84662e-12</wgt>
  <wgt id="943">1.02033e-11</wgt>
  <wgt id="944">9.06518e-12</wgt>
  <wgt id="945">7.82131e-12</wgt>
  <wgt id="946">7.53912e-12</wgt>
  <wgt id="947">8.1779e-12</wgt>
  <wgt id="948">9.35266e-12</wgt>
  <wgt id="949">9.63125e-12</wgt>
  <wgt id="950">6.78764e-12</wgt>
  <wgt id="951">7.98037e-12</wgt>
  <wgt id="952">8.77171e-12</wgt>
  <wgt id="953">9.12134e-12</wgt>
  <wgt id="954">8.45359e-12</wgt>
  <wgt id="955">7.44656e-12</wgt>
  <wgt id="956">7.35499e-12</wgt>
  <wgt id="957">8.76543e-12</wgt>
  <wgt id="958">8.10723e-12</wgt>
  <wgt id="959">8.04262e-12</wgt>
  <wgt id="960">7.04856e-12</wgt>
  <wgt id="961">8.10935e-12</wgt>
  <wgt id="962">9.18977e-12</wgt>
  <wgt id="963">7.89659e-12</wgt>
  <wgt id="964">9.49361e-12</wgt>
  <wgt id="965">9.54304e-12</wgt>
  <wgt id="966">8.74758e-12</wgt>
  <wgt id="967">9.09038e-12</wgt>
  <wgt id="968">8.50004e-12</wgt>
  <wgt id="969">8.55344e-12</wgt>
  <wgt id="970">8.57764e-12</wgt>
  <wgt id="971">7.50007e-12</wgt>
  <wgt id="972">8.79718e-12</wgt>
  <wgt id="973">7.64615e-12</wgt>
  <wgt id="974">1.05536e-11</wgt>
  <wgt id="975">8.13774e-12</wgt>
  <wgt id="976">8.47953e-12</wgt>
  <wgt id="977">6.45837e-12</wgt>
  <wgt id="978">8.81289e-12</wgt>
  <wgt id="979">1.00068e-11</wgt>
  <wgt id="980">8.30519e-12</wgt>
  <wgt id="981">8.62126e-12</wgt>
  <wgt id="982">8.13024e-12</wgt>
</rwgt>
</event>
<event>
 5   1  0.5790000E-11  0.2192174E+04  0.7818608E-02  0.7751823E-01
       21   -1    0    0  502  501  0.00000000000E+00  0.00000000000E+00  0.15568462274E+04  0.15568462274E+04  0.00000000000E+00 0. -1.
       21   -1    0    0  501  502 -0.00000000000E+00 -0.00000000000E+00 -0.77169268361E+03  0.77169268361E+03  0.00000000000E+00 0.  1.
       39    2    1    2    0    0  0.00000000000E+00  0.00000000000E+00  0.78515354384E+03  0.23285389111E+04  0.21921741201E+04 0.  0.
       25    1    3    3    0    0 -0.29071282795E+03  0.10487044742E+04  0.35161886529E+03  0.11504589732E+04  0.12500000000E+03 0.  0.
       25    1    3    3    0    0  0.29071282795E+03 -0.10487044742E+04  0.43353467855E+03  0.11780799379E+04  0.12500000000E+03 0.  0.
<mgrwt>
<rscale>  0 0.21921741E+04</rscale>
<asrwt>0</asrwt>
<pdfrwt beam="1">  1       21 0.23951480E+00 0.21921741E+04</pdfrwt>
<pdfrwt beam="2">  1       21 0.11872195E+00 0.21921741E+04</pdfrwt>
<totfact> 0.16196645E+01</totfact>
</mgrwt>
<rwgt>
  <wgt id="1">5.79e-12</wgt>
  <wgt id="2">5.04741e-12</wgt>
  <wgt id="3">6.71022e-12</wgt>
  <wgt id="4">5.79e-12</wgt>
  <wgt id="5">5.04741e-12</wgt>
  <wgt id="6">6.71022e-12</wgt>
  <wgt id="7">5.79e-12</wgt>
  <wgt id="8">5.04741e-12</wgt>
  <wgt id="9">6.71022e-12</wgt>
  <wgt id="10">5.99139e-12</wgt>
  <wgt id="11">5.98744e-12</wgt>
  <wgt id="12">5.98173e-12</wgt>
  <wgt id="13">5.97285e-12</wgt>
  <wgt id="14">6.0131e-12</wgt>
  <wgt id="15">6.00143e-12</wgt>
  <wgt id="16">5.98203e-12</wgt>
  <wgt id="17">6.00835e-12</wgt>
  <wgt id="18">5.98181e-12</wgt>
  <wgt id="19">6.00459e-12</wgt>
  <wgt id="20">5.97755e-12</wgt>
  <wgt id="21">5.95076e-12</wgt>
  <wgt id="22">5.96236e-12</wgt>
  <wgt id="23">5.9299e-12</wgt>
  <wgt id="24">5.95895e-12</wgt>
  <wgt id="25">5.97481e-12</wgt>
  <wgt id="26">6.01119e-12</wgt>
  <wgt id="27">5.98816e-12</wgt>
  <wgt id="28">5.96112e-12</wgt>
  <wgt id="29">5.99552e-12</wgt>
  <wgt id="30">5.96477e-12</wgt>
  <wgt id="31">6.01327e-12</wgt>
  <wgt id="32">5.97271e-12</wgt>
  <wgt id="33">6.00332e-12</wgt>
  <wgt id="34">5.96681e-12</wgt>
  <wgt id="35">5.97786e-12</wgt>
  <wgt id="36">6.01053e-12</wgt>
  <wgt id="37">5.97535e-12</wgt>
  <wgt id="38">5.97421e-12</wgt>
  <wgt id="39">6.06396e-12</wgt>
  <wgt id="40">5.99905e-12</wgt>
  <wgt id="41">5.98886e-12</wgt>
  <wgt id="42">6.00213e-12</wgt>
  <wgt id="43">5.99116e-12</wgt>
  <wgt id="44">5.98558e-12</wgt>
  <wgt id="45">6.00208e-12</wgt>
  <wgt id="46">5.99173e-12</wgt>
  <wgt id="47">5.98831e-12</wgt>
  <wgt id="48">5.99301e-12</wgt>
  <wgt id="49">5.98403e-12</wgt>
  <wgt id="50">5.99901e-12</wgt>
  <wgt id="51">5.99793e-12</wgt>
  <wgt id="52">5.99501e-12</wgt>
  <wgt id="53">5.96652e-12</wgt>
  <wgt id="54">5.98806e-12</wgt>
  <wgt id="55">5.99065e-12</wgt>
  <wgt id="56">6.01406e-12</wgt>
  <wgt id="57">6.00438e-12</wgt>
  <wgt id="58">5.96421e-12</wgt>
  <wgt id="59">5.97698e-12</wgt>
  <wgt id="60">5.99486e-12</wgt>
  <wgt id="61">5.96357e-12</wgt>
  <wgt id="62">5.97558e-12</wgt>
  <wgt id="63">5.9861e-12</wgt>
  <wgt id="64">5.99444e-12</wgt>
  <wgt id="65">5.99948e-12</wgt>
  <wgt id="66">5.98452e-12</wgt>
  <wgt id="67">5.96604e-12</wgt>
  <wgt id="68">5.98839e-12</wgt>
  <wgt id="69">5.99263e-12</wgt>
  <wgt id="70">5.99227e-12</wgt>
  <wgt id="71">5.98949e-12</wgt>
  <wgt id="72">5.97737e-12</wgt>
  <wgt id="73">5.99757e-12</wgt>
  <wgt id="74">5.9938e-12</wgt>
  <wgt id="75">5.98421e-12</wgt>
  <wgt id="76">6.00578e-12</wgt>
  <wgt id="77">5.98911e-12</wgt>
  <wgt id="78">5.99045e-12</wgt>
  <wgt id="79">6.00597e-12</wgt>
  <wgt id="80">5.96816e-12</wgt>
  <wgt id="81">5.98761e-12</wgt>
  <wgt id="82">5.9917e-12</wgt>
  <wgt id="83">5.9694e-12</wgt>
  <wgt id="84">5.98412e-12</wgt>
  <wgt id="85">5.97728e-12</wgt>
  <wgt id="86">6.0097e-12</wgt>
  <wgt id="87">5.95918e-12</wgt>
  <wgt id="88">5.99754e-12</wgt>
  <wgt id="89">5.99623e-12</wgt>
  <wgt id="90">6.00497e-12</wgt>
  <wgt id="91">5.99784e-12</wgt>
  <wgt id="92">6.00333e-12</wgt>
  <wgt id="93">5.99505e-12</wgt>
  <wgt id="94">5.98581e-12</wgt>
  <wgt id="95">6.00159e-12</wgt>
  <wgt id="96">5.99608e-12</wgt>
  <wgt id="97">5.97938e-12</wgt>
  <wgt id="98">5.99386e-12</wgt>
  <wgt id="99">5.98093e-12</wgt>
  <wgt id="100">5.9982e-12</wgt>
  <wgt id="101">5.99289e-12</wgt>
  <wgt id="102">5.98723e-12</wgt>
  <wgt id="103">5.99986e-12</wgt>
  <wgt id="104">5.98908e-12</wgt>
  <wgt id="105">6.00029e-12</wgt>
  <wgt id="106">5.98206e-12</wgt>
  <wgt id="107">6.00921e-12</wgt>
  <wgt id="108">5.98479e-12</wgt>
  <wgt id="109">5.99218e-12</wgt>
  <wgt id="110">5.99186e-12</wgt>
  <wgt id="111">6.04217e-12</wgt>
  <wgt id="112">6.00592e-12</wgt>
  <wgt id="113">8.06779e-12</wgt>
  <wgt id="114">8.18484e-12</wgt>
  <wgt id="115">8.05882e-12</wgt>
  <wgt id="116">1.10146e-11</wgt>
  <wgt id="117">6.61282e-12</wgt>
  <wgt id="118">6.63468e-12</wgt>
  <wgt id="119">6.60016e-12</wgt>
  <wgt id="120">6.61346e-12</wgt>
  <wgt id="121">6.61247e-12</wgt>
  <wgt id="122">6.60107e-12</wgt>
  <wgt id="123">6.62868e-12</wgt>
  <wgt id="124">6.60327e-12</wgt>
  <wgt id="125">6.61874e-12</wgt>
  <wgt id="126">6.62334e-12</wgt>
  <wgt id="127">6.60565e-12</wgt>
  <wgt id="128">6.63337e-12</wgt>
  <wgt id="129">6.59236e-12</wgt>
  <wgt id="130">6.64938e-12</wgt>
  <wgt id="131">6.57516e-12</wgt>
  <wgt id="132">6.44272e-12</wgt>
  <wgt id="133">6.8135e-12</wgt>
  <wgt id="134">6.54394e-12</wgt>
  <wgt id="135">6.66657e-12</wgt>
  <wgt id="136">6.6971e-12</wgt>
  <wgt id="137">6.51069e-12</wgt>
  <wgt id="138">6.86723e-12</wgt>
  <wgt id="139">6.367e-12</wgt>
  <wgt id="140">6.57064e-12</wgt>
  <wgt id="141">6.64555e-12</wgt>
  <wgt id="142">6.61313e-12</wgt>
  <wgt id="143">6.62372e-12</wgt>
  <wgt id="144">6.4259e-12</wgt>
  <wgt id="145">6.78649e-12</wgt>
  <wgt id="146">6.67151e-12</wgt>
  <wgt id="147">6.56603e-12</wgt>
  <wgt id="148">6.63308e-12</wgt>
  <wgt id="149">6.61131e-12</wgt>
  <wgt id="150">6.66844e-12</wgt>
  <wgt id="151">6.5868e-12</wgt>
  <wgt id="152">6.61533e-12</wgt>
  <wgt id="153">6.61182e-12</wgt>
  <wgt id="154">6.66123e-12</wgt>
  <wgt id="155">6.55287e-12</wgt>
  <wgt id="156">6.74659e-12</wgt>
  <wgt id="157">6.47293e-12</wgt>
  <wgt id="158">7.95498e-12</wgt>
  <wgt id="159">7.98828e-12</wgt>
  <wgt id="160">7.92827e-12</wgt>
  <wgt id="161">7.93611e-12</wgt>
  <wgt id="162">7.97594e-12</wgt>
  <wgt id="163">7.94646e-12</wgt>
  <wgt id="164">7.96692e-12</wgt>
  <wgt id="165">7.95803e-12</wgt>
  <wgt id="166">7.95238e-12</wgt>
  <wgt id="167">7.94911e-12</wgt>
  <wgt id="168">7.96311e-12</wgt>
  <wgt id="169">7.92074e-12</wgt>
  <wgt id="170">7.97609e-12</wgt>
  <wgt id="171">7.94702e-12</wgt>
  <wgt id="172">7.9655e-12</wgt>
  <wgt id="173">7.95234e-12</wgt>
  <wgt id="174">7.95571e-12</wgt>
  <wgt id="175">7.73731e-12</wgt>
  <wgt id="176">8.23788e-12</wgt>
  <wgt id="177">7.99449e-12</wgt>
  <wgt id="178">7.91863e-12</wgt>
  <wgt id="179">8.28654e-12</wgt>
  <wgt id="180">7.432e-12</wgt>
  <wgt id="181">7.72639e-12</wgt>
  <wgt id="182">8.10585e-12</wgt>
  <wgt id="183">7.81541e-12</wgt>
  <wgt id="184">8.02388e-12</wgt>
  <wgt id="185">7.88763e-12</wgt>
  <wgt id="186">8.03492e-12</wgt>
  <wgt id="187">7.88138e-12</wgt>
  <wgt id="188">8.08616e-12</wgt>
  <wgt id="189">7.90363e-12</wgt>
  <wgt id="190">7.97565e-12</wgt>
  <wgt id="191">7.97684e-12</wgt>
  <wgt id="192">7.94152e-12</wgt>
  <wgt id="193">8.06607e-12</wgt>
  <wgt id="194">7.89965e-12</wgt>
  <wgt id="195">7.76453e-12</wgt>
  <wgt id="196">8.29581e-12</wgt>
  <wgt id="197">7.99376e-12</wgt>
  <wgt id="198">7.94567e-12</wgt>
  <wgt id="199">7.95498e-12</wgt>
  <wgt id="200">8.02257e-12</wgt>
  <wgt id="201">7.99811e-12</wgt>
  <wgt id="202">7.97458e-12</wgt>
  <wgt id="203">7.93893e-12</wgt>
  <wgt id="204">7.92206e-12</wgt>
  <wgt id="205">7.90791e-12</wgt>
  <wgt id="206">7.75326e-12</wgt>
  <wgt id="207">7.79852e-12</wgt>
  <wgt id="208">7.70893e-12</wgt>
  <wgt id="209">7.77508e-12</wgt>
  <wgt id="210">7.73781e-12</wgt>
  <wgt id="211">7.75112e-12</wgt>
  <wgt id="212">7.75508e-12</wgt>
  <wgt id="213">7.75266e-12</wgt>
  <wgt id="214">7.75433e-12</wgt>
  <wgt id="215">7.75855e-12</wgt>
  <wgt id="216">7.74972e-12</wgt>
  <wgt id="217">7.77368e-12</wgt>
  <wgt id="218">7.73773e-12</wgt>
  <wgt id="219">7.74345e-12</wgt>
  <wgt id="220">7.75946e-12</wgt>
  <wgt id="221">7.75136e-12</wgt>
  <wgt id="222">7.75779e-12</wgt>
  <wgt id="223">7.35222e-12</wgt>
  <wgt id="224">8.11869e-12</wgt>
  <wgt id="225">7.66397e-12</wgt>
  <wgt id="226">7.86607e-12</wgt>
  <wgt id="227">7.68256e-12</wgt>
  <wgt id="228">7.78456e-12</wgt>
  <wgt id="229">7.64882e-12</wgt>
  <wgt id="230">7.80539e-12</wgt>
  <wgt id="231">7.97438e-12</wgt>
  <wgt id="232">7.57143e-12</wgt>
  <wgt id="233">7.71342e-12</wgt>
  <wgt id="234">7.81688e-12</wgt>
  <wgt id="235">7.58381e-12</wgt>
  <wgt id="236">7.90823e-12</wgt>
  <wgt id="237">7.64138e-12</wgt>
  <wgt id="238">7.7915e-12</wgt>
  <wgt id="239">7.70534e-12</wgt>
  <wgt id="240">7.84052e-12</wgt>
  <wgt id="241">7.67542e-12</wgt>
  <wgt id="242">7.84678e-12</wgt>
  <wgt id="243">7.84178e-12</wgt>
  <wgt id="244">7.79105e-12</wgt>
  <wgt id="245">7.74784e-12</wgt>
  <wgt id="246">7.8087e-12</wgt>
  <wgt id="247">7.75326e-12</wgt>
  <wgt id="248">7.82151e-12</wgt>
  <wgt id="249">7.79617e-12</wgt>
  <wgt id="250">7.77182e-12</wgt>
  <wgt id="251">7.73612e-12</wgt>
  <wgt id="252">7.71909e-12</wgt>
  <wgt id="253">7.70676e-12</wgt>
  <wgt id="254">7.56681e-12</wgt>
  <wgt id="255">7.57372e-12</wgt>
  <wgt id="256">7.55913e-12</wgt>
  <wgt id="257">7.57261e-12</wgt>
  <wgt id="258">7.56246e-12</wgt>
  <wgt id="259">7.61694e-12</wgt>
  <wgt id="260">7.51818e-12</wgt>
  <wgt id="261">7.57574e-12</wgt>
  <wgt id="262">7.556e-12</wgt>
  <wgt id="263">7.5632e-12</wgt>
  <wgt id="264">7.57063e-12</wgt>
  <wgt id="265">7.5586e-12</wgt>
  <wgt id="266">7.58319e-12</wgt>
  <wgt id="267">7.56898e-12</wgt>
  <wgt id="268">7.56344e-12</wgt>
  <wgt id="269">7.58911e-12</wgt>
  <wgt id="270">7.55156e-12</wgt>
  <wgt id="271">7.55256e-12</wgt>
  <wgt id="272">7.58268e-12</wgt>
  <wgt id="273">7.54493e-12</wgt>
  <wgt id="274">7.58323e-12</wgt>
  <wgt id="275">7.53455e-12</wgt>
  <wgt id="276">7.60005e-12</wgt>
  <wgt id="277">7.52454e-12</wgt>
  <wgt id="278">7.60569e-12</wgt>
  <wgt id="279">7.42937e-12</wgt>
  <wgt id="280">7.73914e-12</wgt>
  <wgt id="281">7.53535e-12</wgt>
  <wgt id="282">7.56884e-12</wgt>
  <wgt id="283">7.3551e-12</wgt>
  <wgt id="284">7.82715e-12</wgt>
  <wgt id="285">7.2141e-12</wgt>
  <wgt id="286">7.85831e-12</wgt>
  <wgt id="287">7.59019e-12</wgt>
  <wgt id="288">7.53676e-12</wgt>
  <wgt id="289">7.6188e-12</wgt>
  <wgt id="290">7.44625e-12</wgt>
  <wgt id="291">7.54591e-12</wgt>
  <wgt id="292">7.57092e-12</wgt>
  <wgt id="293">7.50979e-12</wgt>
  <wgt id="294">7.62335e-12</wgt>
  <wgt id="295">7.42656e-12</wgt>
  <wgt id="296">7.73775e-12</wgt>
  <wgt id="297">7.56567e-12</wgt>
  <wgt id="298">7.59344e-12</wgt>
  <wgt id="299">7.54347e-12</wgt>
  <wgt id="300">7.62819e-12</wgt>
  <wgt id="301">7.46904e-12</wgt>
  <wgt id="302">7.81786e-12</wgt>
  <wgt id="303">7.51149e-12</wgt>
  <wgt id="304">7.59841e-12</wgt>
  <wgt id="305">7.58205e-12</wgt>
  <wgt id="306">7.58941e-12</wgt>
  <wgt id="307">7.57369e-12</wgt>
  <wgt id="308">7.58861e-12</wgt>
  <wgt id="309">7.57754e-12</wgt>
  <wgt id="310">7.63408e-12</wgt>
  <wgt id="311">7.5335e-12</wgt>
  <wgt id="312">7.58877e-12</wgt>
  <wgt id="313">7.57483e-12</wgt>
  <wgt id="314">7.57835e-12</wgt>
  <wgt id="315">7.58505e-12</wgt>
  <wgt id="316">7.57398e-12</wgt>
  <wgt id="317">7.599e-12</wgt>
  <wgt id="318">7.58692e-12</wgt>
  <wgt id="319">7.57287e-12</wgt>
  <wgt id="320">7.60542e-12</wgt>
  <wgt id="321">7.56868e-12</wgt>
  <wgt id="322">7.56389e-12</wgt>
  <wgt id="323">7.60257e-12</wgt>
  <wgt id="324">7.56405e-12</wgt>
  <wgt id="325">7.59724e-12</wgt>
  <wgt id="326">7.55575e-12</wgt>
  <wgt id="327">7.61531e-12</wgt>
  <wgt id="328">7.54293e-12</wgt>
  <wgt id="329">7.60399e-12</wgt>
  <wgt id="330">7.79511e-12</wgt>
  <wgt id="331">7.37835e-12</wgt>
  <wgt id="332">7.55569e-12</wgt>
  <wgt id="333">7.58254e-12</wgt>
  <wgt id="334">7.41634e-12</wgt>
  <wgt id="335">7.78749e-12</wgt>
  <wgt id="336">7.3263e-12</wgt>
  <wgt id="337">7.89269e-12</wgt>
  <wgt id="338">7.66436e-12</wgt>
  <wgt id="339">7.50541e-12</wgt>
  <wgt id="340">7.63063e-12</wgt>
  <wgt id="341">7.4563e-12</wgt>
  <wgt id="342">7.56746e-12</wgt>
  <wgt id="343">7.57413e-12</wgt>
  <wgt id="344">7.53038e-12</wgt>
  <wgt id="345">7.64153e-12</wgt>
  <wgt id="346">7.43634e-12</wgt>
  <wgt id="347">7.74905e-12</wgt>
  <wgt id="348">7.58424e-12</wgt>
  <wgt id="349">7.60379e-12</wgt>
  <wgt id="350">7.55255e-12</wgt>
  <wgt id="351">7.65617e-12</wgt>
  <wgt id="352">7.47598e-12</wgt>
  <wgt id="353">7.84184e-12</wgt>
  <wgt id="354">7.4988e-12</wgt>
  <wgt id="355">7.63297e-12</wgt>
  <wgt id="356">7.56681e-12</wgt>
  <wgt id="357">7.61061e-12</wgt>
  <wgt id="358">7.58205e-12</wgt>
  <wgt id="359">7.59071e-12</wgt>
  <wgt id="360">7.62289e-12</wgt>
  <wgt id="361">7.59126e-12</wgt>
  <wgt id="362">7.71952e-12</wgt>
  <wgt id="363">7.70194e-12</wgt>
  <wgt id="364">7.67534e-12</wgt>
  <wgt id="365">7.65036e-12</wgt>
  <wgt id="366">7.62246e-12</wgt>
  <wgt id="367">7.56576e-12</wgt>
  <wgt id="368">7.53363e-12</wgt>
  <wgt id="369">7.49898e-12</wgt>
  <wgt id="370">7.59126e-12</wgt>
  <wgt id="371">7.62443e-12</wgt>
  <wgt id="372">7.60623e-12</wgt>
  <wgt id="373">7.57911e-12</wgt>
  <wgt id="374">7.57822e-12</wgt>
  <wgt id="375">8.15327e-12</wgt>
  <wgt id="376">8.15405e-12</wgt>
  <wgt id="377">8.15209e-12</wgt>
  <wgt id="378">8.18289e-12</wgt>
  <wgt id="379">8.12417e-12</wgt>
  <wgt id="380">8.17575e-12</wgt>
  <wgt id="381">8.1446e-12</wgt>
  <wgt id="382">8.1926e-12</wgt>
  <wgt id="383">8.11444e-12</wgt>
  <wgt id="384">8.15846e-12</wgt>
  <wgt id="385">8.14809e-12</wgt>
  <wgt id="386">8.1829e-12</wgt>
  <wgt id="387">8.14074e-12</wgt>
  <wgt id="388">8.14591e-12</wgt>
  <wgt id="389">8.1622e-12</wgt>
  <wgt id="390">8.17393e-12</wgt>
  <wgt id="391">8.1317e-12</wgt>
  <wgt id="392">8.09384e-12</wgt>
  <wgt id="393">8.18738e-12</wgt>
  <wgt id="394">8.16357e-12</wgt>
  <wgt id="395">8.13949e-12</wgt>
  <wgt id="396">8.15877e-12</wgt>
  <wgt id="397">8.14955e-12</wgt>
  <wgt id="398">8.12591e-12</wgt>
  <wgt id="399">8.1801e-12</wgt>
  <wgt id="400">8.14148e-12</wgt>
  <wgt id="401">8.1804e-12</wgt>
  <wgt id="402">8.0896e-12</wgt>
  <wgt id="403">8.18265e-12</wgt>
  <wgt id="404">8.33887e-12</wgt>
  <wgt id="405">7.70547e-12</wgt>
  <wgt id="406">8.01912e-12</wgt>
  <wgt id="407">8.44519e-12</wgt>
  <wgt id="408">8.22213e-12</wgt>
  <wgt id="409">8.02179e-12</wgt>
  <wgt id="410">7.93332e-12</wgt>
  <wgt id="411">8.25559e-12</wgt>
  <wgt id="412">8.13879e-12</wgt>
  <wgt id="413">8.17436e-12</wgt>
  <wgt id="414">8.0654e-12</wgt>
  <wgt id="415">8.22167e-12</wgt>
  <wgt id="416">8.36428e-12</wgt>
  <wgt id="417">7.86154e-12</wgt>
  <wgt id="418">8.16451e-12</wgt>
  <wgt id="419">8.09161e-12</wgt>
  <wgt id="420">8.26927e-12</wgt>
  <wgt id="421">8.08652e-12</wgt>
  <wgt id="422">8.14066e-12</wgt>
  <wgt id="423">8.16087e-12</wgt>
  <wgt id="424">8.3132e-12</wgt>
  <wgt id="425">8.05178e-12</wgt>
  <wgt id="426">8.15327e-12</wgt>
  <wgt id="427">8.07487e-12</wgt>
  <wgt id="428">8.37003e-12</wgt>
  <wgt id="429">8.22585e-12</wgt>
  <wgt id="430">8.45088e-12</wgt>
  <wgt id="431">8.40629e-12</wgt>
  <wgt id="432">8.36387e-12</wgt>
  <wgt id="433">8.32287e-12</wgt>
  <wgt id="434">8.27272e-12</wgt>
  <wgt id="435">8.16791e-12</wgt>
  <wgt id="436">8.1143e-12</wgt>
  <wgt id="437">8.06309e-12</wgt>
  <wgt id="438">8.22585e-12</wgt>
  <wgt id="439">8.25249e-12</wgt>
  <wgt id="440">8.23674e-12</wgt>
  <wgt id="441">8.2178e-12</wgt>
  <wgt id="442">8.21122e-12</wgt>
  <wgt id="443">7.90381e-12</wgt>
  <wgt id="444">7.95199e-12</wgt>
  <wgt id="445">7.90137e-12</wgt>
  <wgt id="446">7.85166e-12</wgt>
  <wgt id="447">7.88834e-12</wgt>
  <wgt id="448">7.70851e-12</wgt>
  <wgt id="449">8.02638e-12</wgt>
  <wgt id="450">7.90694e-12</wgt>
  <wgt id="451">7.88971e-12</wgt>
  <wgt id="452">8.06974e-12</wgt>
  <wgt id="453">7.97164e-12</wgt>
  <wgt id="454">7.58148e-12</wgt>
  <wgt id="455">7.92605e-12</wgt>
  <wgt id="456">7.87373e-12</wgt>
  <wgt id="457">7.93052e-12</wgt>
  <wgt id="458">8.00358e-12</wgt>
  <wgt id="459">7.96108e-12</wgt>
  <wgt id="460">7.97306e-12</wgt>
  <wgt id="461">7.75932e-12</wgt>
  <wgt id="462">7.85009e-12</wgt>
  <wgt id="463">7.81257e-12</wgt>
  <wgt id="464">7.86622e-12</wgt>
  <wgt id="465">7.98086e-12</wgt>
  <wgt id="466">7.80378e-12</wgt>
  <wgt id="467">7.83572e-12</wgt>
  <wgt id="468">7.88599e-12</wgt>
  <wgt id="469">7.8879e-12</wgt>
  <wgt id="470">7.82571e-12</wgt>
  <wgt id="471">7.83535e-12</wgt>
  <wgt id="472">7.93861e-12</wgt>
  <wgt id="473">7.67777e-12</wgt>
  <wgt id="474">5.79e-12</wgt>
  <wgt id="475">6.0061e-12</wgt>
  <wgt id="476">5.69399e-12</wgt>
  <wgt id="477">5.63864e-12</wgt>
  <wgt id="478">5.83708e-12</wgt>
  <wgt id="479">5.68141e-12</wgt>
  <wgt id="480">6.01172e-12</wgt>
  <wgt id="481">5.73044e-12</wgt>
  <wgt id="482">5.6607e-12</wgt>
  <wgt id="483">5.65444e-12</wgt>
  <wgt id="484">6.02782e-12</wgt>
  <wgt id="485">5.68941e-12</wgt>
  <wgt id="486">6.00196e-12</wgt>
  <wgt id="487">5.81635e-12</wgt>
  <wgt id="488">5.89417e-12</wgt>
  <wgt id="489">5.50723e-12</wgt>
  <wgt id="490">5.58777e-12</wgt>
  <wgt id="491">5.75854e-12</wgt>
  <wgt id="492">5.66837e-12</wgt>
  <wgt id="493">5.55956e-12</wgt>
  <wgt id="494">5.60264e-12</wgt>
  <wgt id="495">5.82496e-12</wgt>
  <wgt id="496">5.60295e-12</wgt>
  <wgt id="497">5.55839e-12</wgt>
  <wgt id="498">5.92297e-12</wgt>
  <wgt id="499">5.70656e-12</wgt>
  <wgt id="500">5.67166e-12</wgt>
  <wgt id="501">6.01991e-12</wgt>
  <wgt id="502">5.72933e-12</wgt>
  <wgt id="503">5.7923e-12</wgt>
  <wgt id="504">5.87795e-12</wgt>
  <wgt id="505">5.71693e-12</wgt>
  <wgt id="506">5.76941e-12</wgt>
  <wgt id="507">5.77971e-12</wgt>
  <wgt id="508">5.96146e-12</wgt>
  <wgt id="509">5.4752e-12</wgt>
  <wgt id="510">5.91432e-12</wgt>
  <wgt id="511">5.62079e-12</wgt>
  <wgt id="512">5.93957e-12</wgt>
  <wgt id="513">5.97916e-12</wgt>
  <wgt id="514">5.83577e-12</wgt>
  <wgt id="515">5.76351e-12</wgt>
  <wgt id="516">6.06356e-12</wgt>
  <wgt id="517">5.92638e-12</wgt>
  <wgt id="518">5.95109e-12</wgt>
  <wgt id="519">5.63725e-12</wgt>
  <wgt id="520">5.88734e-12</wgt>
  <wgt id="521">5.93998e-12</wgt>
  <wgt id="522">6.03557e-12</wgt>
  <wgt id="523">5.77317e-12</wgt>
  <wgt id="524">5.78575e-12</wgt>
  <wgt id="525">5.93486e-12</wgt>
  <wgt id="526">5.85463e-12</wgt>
  <wgt id="527">5.84597e-12</wgt>
  <wgt id="528">5.81562e-12</wgt>
  <wgt id="529">5.71765e-12</wgt>
  <wgt id="530">5.91241e-12</wgt>
  <wgt id="531">5.69306e-12</wgt>
  <wgt id="532">6.1415e-12</wgt>
  <wgt id="533">5.53194e-12</wgt>
  <wgt id="534">5.76791e-12</wgt>
  <wgt id="535">5.81641e-12</wgt>
  <wgt id="536">5.76036e-12</wgt>
  <wgt id="537">5.77312e-12</wgt>
  <wgt id="538">5.85753e-12</wgt>
  <wgt id="539">5.68492e-12</wgt>
  <wgt id="540">5.76997e-12</wgt>
  <wgt id="541">5.62802e-12</wgt>
  <wgt id="542">5.7159e-12</wgt>
  <wgt id="543">5.76941e-12</wgt>
  <wgt id="544">6.03622e-12</wgt>
  <wgt id="545">5.67495e-12</wgt>
  <wgt id="546">5.62638e-12</wgt>
  <wgt id="547">5.65089e-12</wgt>
  <wgt id="548">5.55921e-12</wgt>
  <wgt id="549">5.70237e-12</wgt>
  <wgt id="550">5.684e-12</wgt>
  <wgt id="551">5.87244e-12</wgt>
  <wgt id="552">5.61729e-12</wgt>
  <wgt id="553">5.72843e-12</wgt>
  <wgt id="554">6.19225e-12</wgt>
  <wgt id="555">5.95268e-12</wgt>
  <wgt id="556">5.58777e-12</wgt>
  <wgt id="557">5.9275e-12</wgt>
  <wgt id="558">5.65194e-12</wgt>
  <wgt id="559">5.66823e-12</wgt>
  <wgt id="560">6.32665e-12</wgt>
  <wgt id="561">5.72167e-12</wgt>
  <wgt id="562">5.94166e-12</wgt>
  <wgt id="563">5.7921e-12</wgt>
  <wgt id="564">5.9159e-12</wgt>
  <wgt id="565">5.66248e-12</wgt>
  <wgt id="566">5.85696e-12</wgt>
  <wgt id="567">5.7393e-12</wgt>
  <wgt id="568">5.76762e-12</wgt>
  <wgt id="569">5.8772e-12</wgt>
  <wgt id="570">5.57554e-12</wgt>
  <wgt id="571">6.39707e-12</wgt>
  <wgt id="572">5.6913e-12</wgt>
  <wgt id="573">5.58545e-12</wgt>
  <wgt id="574">5.61832e-12</wgt>
  <wgt id="575">6.36189e-12</wgt>
  <wgt id="576">6.43214e-12</wgt>
  <wgt id="577">6.56434e-12</wgt>
  <wgt id="578">6.54362e-12</wgt>
  <wgt id="579">6.51249e-12</wgt>
  <wgt id="580">6.56535e-12</wgt>
  <wgt id="581">6.83608e-12</wgt>
  <wgt id="582">6.42205e-12</wgt>
  <wgt id="583">6.4158e-12</wgt>
  <wgt id="584">6.34159e-12</wgt>
  <wgt id="585">6.25648e-12</wgt>
  <wgt id="586">6.16484e-12</wgt>
  <wgt id="587">6.45597e-12</wgt>
  <wgt id="588">6.40047e-12</wgt>
  <wgt id="589">6.55827e-12</wgt>
  <wgt id="590">6.38853e-12</wgt>
  <wgt id="591">6.59785e-12</wgt>
  <wgt id="592">6.07136e-12</wgt>
  <wgt id="593">6.30321e-12</wgt>
  <wgt id="594">6.52524e-12</wgt>
  <wgt id="595">6.39615e-12</wgt>
  <wgt id="596">6.58173e-12</wgt>
  <wgt id="597">6.24182e-12</wgt>
  <wgt id="598">6.1541e-12</wgt>
  <wgt id="599">6.61633e-12</wgt>
  <wgt id="600">6.38015e-12</wgt>
  <wgt id="601">6.1753e-12</wgt>
  <wgt id="602">6.18352e-12</wgt>
  <wgt id="603">6.20238e-12</wgt>
  <wgt id="604">6.46174e-12</wgt>
  <wgt id="605">6.59052e-12</wgt>
  <wgt id="606">6.32743e-12</wgt>
  <wgt id="607">6.36065e-12</wgt>
  <wgt id="608">6.45514e-12</wgt>
  <wgt id="609">6.09369e-12</wgt>
  <wgt id="610">6.13817e-12</wgt>
  <wgt id="611">6.35604e-12</wgt>
  <wgt id="612">6.80227e-12</wgt>
  <wgt id="613">6.30895e-12</wgt>
  <wgt id="614">6.38763e-12</wgt>
  <wgt id="615">6.29069e-12</wgt>
  <wgt id="616">6.62377e-12</wgt>
  <wgt id="617">6.5242e-12</wgt>
  <wgt id="618">6.71264e-12</wgt>
  <wgt id="619">6.29761e-12</wgt>
  <wgt id="620">6.57551e-12</wgt>
  <wgt id="621">6.37904e-12</wgt>
  <wgt id="622">6.45597e-12</wgt>
  <wgt id="623">6.51391e-12</wgt>
  <wgt id="624">6.35674e-12</wgt>
  <wgt id="625">6.24127e-12</wgt>
  <wgt id="626">6.11802e-12</wgt>
  <wgt id="627">6.07139e-12</wgt>
  <wgt id="628">6.50129e-12</wgt>
  <wgt id="629">6.28276e-12</wgt>
  <wgt id="630">6.16046e-12</wgt>
  <wgt id="631">6.40241e-12</wgt>
  <wgt id="632">6.07269e-12</wgt>
  <wgt id="633">6.32025e-12</wgt>
  <wgt id="634">6.28757e-12</wgt>
  <wgt id="635">6.12838e-12</wgt>
  <wgt id="636">6.43699e-12</wgt>
  <wgt id="637">6.37798e-12</wgt>
  <wgt id="638">6.15214e-12</wgt>
  <wgt id="639">6.26517e-12</wgt>
  <wgt id="640">6.35765e-12</wgt>
  <wgt id="641">6.47366e-12</wgt>
  <wgt id="642">6.11775e-12</wgt>
  <wgt id="643">6.31752e-12</wgt>
  <wgt id="644">5.95653e-12</wgt>
  <wgt id="645">6.39391e-12</wgt>
  <wgt id="646">6.32092e-12</wgt>
  <wgt id="647">6.29699e-12</wgt>
  <wgt id="648">6.45945e-12</wgt>
  <wgt id="649">6.42187e-12</wgt>
  <wgt id="650">6.1964e-12</wgt>
  <wgt id="651">6.53027e-12</wgt>
  <wgt id="652">6.28588e-12</wgt>
  <wgt id="653">6.17581e-12</wgt>
  <wgt id="654">6.27265e-12</wgt>
  <wgt id="655">6.25976e-12</wgt>
  <wgt id="656">6.35139e-12</wgt>
  <wgt id="657">6.70945e-12</wgt>
  <wgt id="658">6.38484e-12</wgt>
  <wgt id="659">6.10652e-12</wgt>
  <wgt id="660">6.4271e-12</wgt>
  <wgt id="661">6.27304e-12</wgt>
  <wgt id="662">6.32625e-12</wgt>
  <wgt id="663">6.38853e-12</wgt>
  <wgt id="664">6.31046e-12</wgt>
  <wgt id="665">6.35679e-12</wgt>
  <wgt id="666">6.30497e-12</wgt>
  <wgt id="667">6.59971e-12</wgt>
  <wgt id="668">6.35089e-12</wgt>
  <wgt id="669">6.49659e-12</wgt>
  <wgt id="670">6.52539e-12</wgt>
  <wgt id="671">6.32564e-12</wgt>
  <wgt id="672">6.10806e-12</wgt>
  <wgt id="673">6.4481e-12</wgt>
  <wgt id="674">6.2178e-12</wgt>
  <wgt id="675">6.26891e-12</wgt>
  <wgt id="676">8.0208e-12</wgt>
  <wgt id="677">8.12361e-12</wgt>
  <wgt id="678">8.45527e-12</wgt>
  <wgt id="679">7.66193e-12</wgt>
  <wgt id="680">7.88273e-12</wgt>
  <wgt id="681">8.12665e-12</wgt>
  <wgt id="682">8.24866e-12</wgt>
  <wgt id="683">7.85111e-12</wgt>
  <wgt id="684">8.35062e-12</wgt>
  <wgt id="685">7.74527e-12</wgt>
  <wgt id="686">7.84509e-12</wgt>
  <wgt id="687">8.33162e-12</wgt>
  <wgt id="688">7.90542e-12</wgt>
  <wgt id="689">8.45942e-12</wgt>
  <wgt id="690">8.35516e-12</wgt>
  <wgt id="691">8.39141e-12</wgt>
  <wgt id="692">7.94738e-12</wgt>
  <wgt id="693">9.5039e-12</wgt>
  <wgt id="694">8.5428e-12</wgt>
  <wgt id="695">7.75681e-12</wgt>
  <wgt id="696">7.73244e-12</wgt>
  <wgt id="697">7.68581e-12</wgt>
  <wgt id="698">7.27784e-12</wgt>
  <wgt id="699">7.21829e-12</wgt>
  <wgt id="700">7.09806e-12</wgt>
  <wgt id="701">8.02285e-12</wgt>
  <wgt id="702">7.85195e-12</wgt>
  <wgt id="703">9.2207e-12</wgt>
  <wgt id="704">8.79383e-12</wgt>
  <wgt id="705">8.54981e-12</wgt>
  <wgt id="706">7.59069e-12</wgt>
  <wgt id="707">7.68531e-12</wgt>
  <wgt id="708">7.87594e-12</wgt>
  <wgt id="709">7.85541e-12</wgt>
  <wgt id="710">7.31906e-12</wgt>
  <wgt id="711">8.00924e-12</wgt>
  <wgt id="712">7.79887e-12</wgt>
  <wgt id="713">8.60272e-12</wgt>
  <wgt id="714">7.77392e-12</wgt>
  <wgt id="715">7.89716e-12</wgt>
  <wgt id="716">7.74057e-12</wgt>
  <wgt id="717">7.5395e-12</wgt>
  <wgt id="718">8.06466e-12</wgt>
  <wgt id="719">7.31529e-12</wgt>
  <wgt id="720">7.71802e-12</wgt>
  <wgt id="721">7.3063e-12</wgt>
  <wgt id="722">7.05715e-12</wgt>
  <wgt id="723">8.57675e-12</wgt>
  <wgt id="724">8.42231e-12</wgt>
  <wgt id="725">8.41233e-12</wgt>
  <wgt id="726">8.05435e-12</wgt>
  <wgt id="727">7.88204e-12</wgt>
  <wgt id="728">7.82913e-12</wgt>
  <wgt id="729">7.66084e-12</wgt>
  <wgt id="730">8.57152e-12</wgt>
  <wgt id="731">7.8936e-12</wgt>
  <wgt id="732">8.85984e-12</wgt>
  <wgt id="733">7.8583e-12</wgt>
  <wgt id="734">8.20108e-12</wgt>
  <wgt id="735">8.08453e-12</wgt>
  <wgt id="736">7.79531e-12</wgt>
  <wgt id="737">8.07641e-12</wgt>
  <wgt id="738">7.69686e-12</wgt>
  <wgt id="739">8.24234e-12</wgt>
  <wgt id="740">8.94156e-12</wgt>
  <wgt id="741">7.33615e-12</wgt>
  <wgt id="742">7.92738e-12</wgt>
  <wgt id="743">7.6265e-12</wgt>
  <wgt id="744">7.85446e-12</wgt>
  <wgt id="745">8.38169e-12</wgt>
  <wgt id="746">8.53507e-12</wgt>
  <wgt id="747">7.18758e-12</wgt>
  <wgt id="748">7.90827e-12</wgt>
  <wgt id="749">8.37489e-12</wgt>
  <wgt id="750">8.36145e-12</wgt>
  <wgt id="751">8.19225e-12</wgt>
  <wgt id="752">7.37428e-12</wgt>
  <wgt id="753">7.54007e-12</wgt>
  <wgt id="754">8.30302e-12</wgt>
  <wgt id="755">8.00888e-12</wgt>
  <wgt id="756">7.98463e-12</wgt>
  <wgt id="757">7.35103e-12</wgt>
  <wgt id="758">8.00465e-12</wgt>
  <wgt id="759">8.43352e-12</wgt>
  <wgt id="760">8.03279e-12</wgt>
  <wgt id="761">8.49176e-12</wgt>
  <wgt id="762">8.5161e-12</wgt>
  <wgt id="763">8.01131e-12</wgt>
  <wgt id="764">8.33996e-12</wgt>
  <wgt id="765">8.1045e-12</wgt>
  <wgt id="766">8.01628e-12</wgt>
  <wgt id="767">8.17805e-12</wgt>
  <wgt id="768">7.54061e-12</wgt>
  <wgt id="769">8.48101e-12</wgt>
  <wgt id="770">7.87375e-12</wgt>
  <wgt id="771">9.42981e-12</wgt>
  <wgt id="772">7.64302e-12</wgt>
  <wgt id="773">7.96486e-12</wgt>
  <wgt id="774">6.98762e-12</wgt>
  <wgt id="775">8.37939e-12</wgt>
  <wgt id="776">8.69325e-12</wgt>
  <wgt id="777">7.58208e-12</wgt>
  <wgt id="778">5.8599e-12</wgt>
  <wgt id="779">4.67341e-12</wgt>
  <wgt id="780">3.70023e-12</wgt>
  <wgt id="781">6.43294e-12</wgt>
  <wgt id="782">6.3389e-12</wgt>
  <wgt id="783">4.69297e-12</wgt>
  <wgt id="784">4.99618e-12</wgt>
  <wgt id="785">7.37347e-12</wgt>
  <wgt id="786">4.42808e-12</wgt>
  <wgt id="787">6.75345e-12</wgt>
  <wgt id="788">3.36845e-12</wgt>
  <wgt id="789">4.8371e-12</wgt>
  <wgt id="790">4.34694e-12</wgt>
  <wgt id="791">5.77556e-12</wgt>
  <wgt id="792">7.77859e-12</wgt>
  <wgt id="793">5.77741e-12</wgt>
  <wgt id="794">4.2928e-12</wgt>
  <wgt id="795">6.97685e-12</wgt>
  <wgt id="796">7.68474e-12</wgt>
  <wgt id="797">6.96402e-12</wgt>
  <wgt id="798">5.2231e-12</wgt>
  <wgt id="799">6.69928e-12</wgt>
  <wgt id="800">4.86315e-12</wgt>
  <wgt id="801">5.43449e-12</wgt>
  <wgt id="802">4.28937e-12</wgt>
  <wgt id="803">8.16062e-12</wgt>
  <wgt id="804">6.94389e-12</wgt>
  <wgt id="805">6.97701e-12</wgt>
  <wgt id="806">6.4447e-12</wgt>
  <wgt id="807">5.60438e-12</wgt>
  <wgt id="808">5.64248e-12</wgt>
  <wgt id="809">5.43674e-12</wgt>
  <wgt id="810">6.52745e-12</wgt>
  <wgt id="811">6.30679e-12</wgt>
  <wgt id="812">4.3404e-12</wgt>
  <wgt id="813">4.46743e-12</wgt>
  <wgt id="814">4.7857e-12</wgt>
  <wgt id="815">4.66462e-12</wgt>
  <wgt id="816">4.29584e-12</wgt>
  <wgt id="817">6.05347e-12</wgt>
  <wgt id="818">6.12359e-12</wgt>
  <wgt id="819">4.68716e-12</wgt>
  <wgt id="820">5.80036e-12</wgt>
  <wgt id="821">6.71194e-12</wgt>
  <wgt id="822">4.81546e-12</wgt>
  <wgt id="823">6.82696e-12</wgt>
  <wgt id="824">7.97668e-12</wgt>
  <wgt id="825">4.15489e-12</wgt>
  <wgt id="826">6.34296e-12</wgt>
  <wgt id="827">3.48274e-12</wgt>
  <wgt id="828">7.47538e-12</wgt>
  <wgt id="829">6.04369e-12</wgt>
  <wgt id="830">3.94419e-12</wgt>
  <wgt id="831">6.3716e-12</wgt>
  <wgt id="832">9.61396e-12</wgt>
  <wgt id="833">5.32e-12</wgt>
  <wgt id="834">9.14443e-12</wgt>
  <wgt id="835">4.74404e-12</wgt>
  <wgt id="836">5.59216e-12</wgt>
  <wgt id="837">6.62338e-12</wgt>
  <wgt id="838">5.39222e-12</wgt>
  <wgt id="839">6.33116e-12</wgt>
  <wgt id="840">5.39223e-12</wgt>
  <wgt id="841">7.3294e-12</wgt>
  <wgt id="842">5.41212e-12</wgt>
  <wgt id="843">5.89852e-12</wgt>
  <wgt id="844">6.14521e-12</wgt>
  <wgt id="845">8.62814e-12</wgt>
  <wgt id="846">5.91257e-12</wgt>
  <wgt id="847">5.97785e-12</wgt>
  <wgt id="848">4.84007e-12</wgt>
  <wgt id="849">6.04512e-12</wgt>
  <wgt id="850">7.7572e-12</wgt>
  <wgt id="851">6.48147e-12</wgt>
  <wgt id="852">4.64778e-12</wgt>
  <wgt id="853">6.54522e-12</wgt>
  <wgt id="854">7.25103e-12</wgt>
  <wgt id="855">6.76655e-12</wgt>
  <wgt id="856">4.00798e-12</wgt>
  <wgt id="857">5.72488e-12</wgt>
  <wgt id="858">5.5923e-12</wgt>
  <wgt id="859">5.52531e-12</wgt>
  <wgt id="860">6.51334e-12</wgt>
  <wgt id="861">5.1378e-12</wgt>
  <wgt id="862">5.92506e-12</wgt>
  <wgt id="863">6.27786e-12</wgt>
  <wgt id="864">6.16816e-12</wgt>
  <wgt id="865">8.41533e-12</wgt>
  <wgt id="866">9.27299e-12</wgt>
  <wgt id="867">5.94415e-12</wgt>
  <wgt id="868">5.78541e-12</wgt>
  <wgt id="869">4.39425e-12</wgt>
  <wgt id="870">4.67332e-12</wgt>
  <wgt id="871">4.53876e-12</wgt>
  <wgt id="872">7.15774e-12</wgt>
  <wgt id="873">4.90982e-12</wgt>
  <wgt id="874">6.20726e-12</wgt>
  <wgt id="875">5.02832e-12</wgt>
  <wgt id="876">7.08379e-12</wgt>
  <wgt id="877">6.63501e-12</wgt>
  <wgt id="878">4.92851e-12</wgt>
  <wgt id="879">8.0208e-12</wgt>
  <wgt id="880">8.12361e-12</wgt>
  <wgt id="881">8.45527e-12</wgt>
  <wgt id="882">7.66193e-12</wgt>
  <wgt id="883">7.88273e-12</wgt>
  <wgt id="884">8.12665e-12</wgt>
  <wgt id="885">8.24866e-12</wgt>
  <wgt id="886">7.85111e-12</wgt>
  <wgt id="887">8.35062e-12</wgt>
  <wgt id="888">7.74527e-12</wgt>
  <wgt id="889">7.84509e-12</wgt>
  <wgt id="890">8.33162e-12</wgt>
  <wgt id="891">7.90542e-12</wgt>
  <wgt id="892">8.45942e-12</wgt>
  <wgt id="893">8.35516e-12</wgt>
  <wgt id="894">8.39141e-12</wgt>
  <wgt id="895">7.94738e-12</wgt>
  <wgt id="896">9.5039e-12</wgt>
  <wgt id="897">8.5428e-12</wgt>
  <wgt id="898">7.75681e-12</wgt>
  <wgt id="899">7.73244e-12</wgt>
  <wgt id="900">7.68581e-12</wgt>
  <wgt id="901">7.27784e-12</wgt>
  <wgt id="902">7.21829e-12</wgt>
  <wgt id="903">7.09806e-12</wgt>
  <wgt id="904">8.02285e-12</wgt>
  <wgt id="905">7.85195e-12</wgt>
  <wgt id="906">9.2207e-12</wgt>
  <wgt id="907">8.79383e-12</wgt>
  <wgt id="908">8.54981e-12</wgt>
  <wgt id="909">7.59069e-12</wgt>
  <wgt id="910">7.68531e-12</wgt>
  <wgt id="911">7.87594e-12</wgt>
  <wgt id="912">7.85541e-12</wgt>
  <wgt id="913">7.31906e-12</wgt>
  <wgt id="914">8.00924e-12</wgt>
  <wgt id="915">7.79887e-12</wgt>
  <wgt id="916">8.60272e-12</wgt>
  <wgt id="917">7.77392e-12</wgt>
  <wgt id="918">7.89716e-12</wgt>
  <wgt id="919">7.74057e-12</wgt>
  <wgt id="920">7.5395e-12</wgt>
  <wgt id="921">8.06466e-12</wgt>
  <wgt id="922">7.31529e-12</wgt>
  <wgt id="923">7.71802e-12</wgt>
  <wgt id="924">7.3063e-12</wgt>
  <wgt id="925">7.05715e-12</wgt>
  <wgt id="926">8.57675e-12</wgt>
  <wgt id="927">8.42231e-12</wgt>
  <wgt id="928">8.41233e-12</wgt>
  <wgt id="929">8.05435e-12</wgt>
  <wgt id="930">7.88204e-12</wgt>
  <wgt id="931">7.82913e-12</wgt>
  <wgt id="932">7.66084e-12</wgt>
  <wgt id="933">8.57152e-12</wgt>
  <wgt id="934">7.8936e-12</wgt>
  <wgt id="935">8.85984e-12</wgt>
  <wgt id="936">7.8583e-12</wgt>
  <wgt id="937">8.20108e-12</wgt>
  <wgt id="938">8.08453e-12</wgt>
  <wgt id="939">7.79531e-12</wgt>
  <wgt id="940">8.07641e-12</wgt>
  <wgt id="941">7.69686e-12</wgt>
  <wgt id="942">8.24234e-12</wgt>
  <wgt id="943">8.94156e-12</wgt>
  <wgt id="944">7.33615e-12</wgt>
  <wgt id="945">7.92738e-12</wgt>
  <wgt id="946">7.6265e-12</wgt>
  <wgt id="947">7.85446e-12</wgt>
  <wgt id="948">8.38169e-12</wgt>
  <wgt id="949">8.53507e-12</wgt>
  <wgt id="950">7.18758e-12</wgt>
  <wgt id="951">7.90827e-12</wgt>
  <wgt id="952">8.37489e-12</wgt>
  <wgt id="953">8.36145e-12</wgt>
  <wgt id="954">8.19225e-12</wgt>
  <wgt id="955">7.37428e-12</wgt>
  <wgt id="956">7.54007e-12</wgt>
  <wgt id="957">8.30302e-12</wgt>
  <wgt id="958">8.00888e-12</wgt>
  <wgt id="959">7.98463e-12</wgt>
  <wgt id="960">7.35103e-12</wgt>
  <wgt id="961">8.00465e-12</wgt>
  <wgt id="962">8.43352e-12</wgt>
  <wgt id="963">8.03279e-12</wgt>
  <wgt id="964">8.49176e-12</wgt>
  <wgt id="965">8.5161e-12</wgt>
  <wgt id="966">8.01131e-12</wgt>
  <wgt id="967">8.33996e-12</wgt>
  <wgt id="968">8.1045e-12</wgt>
  <wgt id="969">8.01628e-12</wgt>
  <wgt id="970">8.17805e-12</wgt>
  <wgt id="971">7.54061e-12</wgt>
  <wgt id="972">8.48101e-12</wgt>
  <wgt id="973">7.87375e-12</wgt>
  <wgt id="974">9.42981e-12</wgt>
  <wgt id="975">7.64302e-12</wgt>
  <wgt id="976">7.96486e-12</wgt>
  <wgt id="977">6.98762e-12</wgt>
  <wgt id="978">8.37939e-12</wgt>
  <wgt id="979">8.69325e-12</wgt>
  <wgt id="980">8.00738e-12</wgt>
  <wgt id="981">8.06932e-12</wgt>
  <wgt id="982">7.77799e-12</wgt>
</rwgt>
</event>
<event>
 5   1  0.5790000E-11  0.1953186E+04  0.7818608E-02  0.7848745E-01
       21   -1    0    0  502  501  0.00000000000E+00  0.00000000000E+00  0.91924568301E+03  0.91924568301E+03  0.00000000000E+00 0.  1.
       21   -1    0    0  501  502 -0.00000000000E+00 -0.00000000000E+00 -0.10375176510E+04  0.10375176510E+04  0.00000000000E+00 0. -1.
       39    2    1    2    0    0  0.00000000000E+00  0.00000000000E+00 -0.11827196796E+03  0.19567633340E+04  0.19531857277E+04 0.  0.
       25    1    3    3    0    0  0.94664816895E+03  0.13614936108E+03  0.94210439333E+02  0.96911300227E+03  0.12500000000E+03 0.  0.
       25    1    3    3    0    0 -0.94664816895E+03 -0.13614936108E+03 -0.21248240729E+03  0.98765033170E+03  0.12500000000E+03 0.  0.
<mgrwt>
<rscale>  0 0.19531857E+04</rscale>
<asrwt>0</asrwt>
<pdfrwt beam="1">  1       21 0.14142241E+00 0.19531857E+04</pdfrwt>
<pdfrwt beam="2">  1       21 0.15961810E+00 0.19531857E+04</pdfrwt>
<totfact> 0.41523985E+01</totfact>
</mgrwt>
<rwgt>
  <wgt id="1">5.79e-12</wgt>
  <wgt id="2">5.08753e-12</wgt>
  <wgt id="3">6.65305e-12</wgt>
  <wgt id="4">5.79e-12</wgt>
  <wgt id="5">5.08753e-12</wgt>
  <wgt id="6">6.65305e-12</wgt>
  <wgt id="7">5.79e-12</wgt>
  <wgt id="8">5.08753e-12</wgt>
  <wgt id="9">6.65305e-12</wgt>
  <wgt id="10">5.89681e-12</wgt>
  <wgt id="11">5.89171e-12</wgt>
  <wgt id="12">5.88608e-12</wgt>
  <wgt id="13">5.87743e-12</wgt>
  <wgt id="14">5.91637e-12</wgt>
  <wgt id="15">5.90458e-12</wgt>
  <wgt id="16">5.88259e-12</wgt>
  <wgt id="17">5.90767e-12</wgt>
  <wgt id="18">5.89351e-12</wgt>
  <wgt id="19">5.90675e-12</wgt>
  <wgt id="20">5.88073e-12</wgt>
  <wgt id="21">5.86917e-12</wgt>
  <wgt id="22">5.88106e-12</wgt>
  <wgt id="23">5.84995e-12</wgt>
  <wgt id="24">5.8714e-12</wgt>
  <wgt id="25">5.88122e-12</wgt>
  <wgt id="26">5.91921e-12</wgt>
  <wgt id="27">5.89481e-12</wgt>
  <wgt id="28">5.8677e-12</wgt>
  <wgt id="29">5.90394e-12</wgt>
  <wgt id="30">5.87844e-12</wgt>
  <wgt id="31">5.91317e-12</wgt>
  <wgt id="32">5.87752e-12</wgt>
  <wgt id="33">5.90574e-12</wgt>
  <wgt id="34">5.88035e-12</wgt>
  <wgt id="35">5.88172e-12</wgt>
  <wgt id="36">5.90319e-12</wgt>
  <wgt id="37">5.88182e-12</wgt>
  <wgt id="38">5.88746e-12</wgt>
  <wgt id="39">5.95842e-12</wgt>
  <wgt id="40">5.91387e-12</wgt>
  <wgt id="41">5.89463e-12</wgt>
  <wgt id="42">5.92381e-12</wgt>
  <wgt id="43">5.90783e-12</wgt>
  <wgt id="44">5.86597e-12</wgt>
  <wgt id="45">5.89905e-12</wgt>
  <wgt id="46">5.89714e-12</wgt>
  <wgt id="47">5.87075e-12</wgt>
  <wgt id="48">5.89992e-12</wgt>
  <wgt id="49">5.9318e-12</wgt>
  <wgt id="50">5.93501e-12</wgt>
  <wgt id="51">5.91437e-12</wgt>
  <wgt id="52">5.85776e-12</wgt>
  <wgt id="53">5.8793e-12</wgt>
  <wgt id="54">5.88932e-12</wgt>
  <wgt id="55">5.89375e-12</wgt>
  <wgt id="56">5.9096e-12</wgt>
  <wgt id="57">5.91615e-12</wgt>
  <wgt id="58">5.86153e-12</wgt>
  <wgt id="59">5.88181e-12</wgt>
  <wgt id="60">5.8973e-12</wgt>
  <wgt id="61">5.90191e-12</wgt>
  <wgt id="62">5.90006e-12</wgt>
  <wgt id="63">5.90661e-12</wgt>
  <wgt id="64">5.90316e-12</wgt>
  <wgt id="65">5.89982e-12</wgt>
  <wgt id="66">5.89213e-12</wgt>
  <wgt id="67">5.89601e-12</wgt>
  <wgt id="68">5.89214e-12</wgt>
  <wgt id="69">5.89298e-12</wgt>
  <wgt id="70">5.89411e-12</wgt>
  <wgt id="71">5.88981e-12</wgt>
  <wgt id="72">5.89073e-12</wgt>
  <wgt id="73">5.90255e-12</wgt>
  <wgt id="74">5.89726e-12</wgt>
  <wgt id="75">5.90163e-12</wgt>
  <wgt id="76">5.90745e-12</wgt>
  <wgt id="77">5.89575e-12</wgt>
  <wgt id="78">5.89849e-12</wgt>
  <wgt id="79">5.90406e-12</wgt>
  <wgt id="80">5.87859e-12</wgt>
  <wgt id="81">5.89115e-12</wgt>
  <wgt id="82">5.89719e-12</wgt>
  <wgt id="83">5.88291e-12</wgt>
  <wgt id="84">5.88866e-12</wgt>
  <wgt id="85">5.89166e-12</wgt>
  <wgt id="86">5.90348e-12</wgt>
  <wgt id="87">5.87993e-12</wgt>
  <wgt id="88">5.90025e-12</wgt>
  <wgt id="89">5.90034e-12</wgt>
  <wgt id="90">5.90186e-12</wgt>
  <wgt id="91">5.89995e-12</wgt>
  <wgt id="92">5.90409e-12</wgt>
  <wgt id="93">5.89718e-12</wgt>
  <wgt id="94">5.89447e-12</wgt>
  <wgt id="95">5.89983e-12</wgt>
  <wgt id="96">5.89894e-12</wgt>
  <wgt id="97">5.89162e-12</wgt>
  <wgt id="98">5.89966e-12</wgt>
  <wgt id="99">5.89337e-12</wgt>
  <wgt id="100">5.90206e-12</wgt>
  <wgt id="101">5.89725e-12</wgt>
  <wgt id="102">5.89415e-12</wgt>
  <wgt id="103">5.90123e-12</wgt>
  <wgt id="104">5.89425e-12</wgt>
  <wgt id="105">5.90063e-12</wgt>
  <wgt id="106">5.89199e-12</wgt>
  <wgt id="107">5.9079e-12</wgt>
  <wgt id="108">5.89223e-12</wgt>
  <wgt id="109">5.89962e-12</wgt>
  <wgt id="110">5.89562e-12</wgt>
  <wgt id="111">5.98293e-12</wgt>
  <wgt id="112">5.87195e-12</wgt>
  <wgt id="113">7.51582e-12</wgt>
  <wgt id="114">7.90103e-12</wgt>
  <wgt id="115">7.79524e-12</wgt>
  <wgt id="116">1.02302e-11</wgt>
  <wgt id="117">6.36598e-12</wgt>
  <wgt id="118">6.38364e-12</wgt>
  <wgt id="119">6.35601e-12</wgt>
  <wgt id="120">6.36705e-12</wgt>
  <wgt id="121">6.36557e-12</wgt>
  <wgt id="122">6.35406e-12</wgt>
  <wgt id="123">6.38246e-12</wgt>
  <wgt id="124">6.35643e-12</wgt>
  <wgt id="125">6.37219e-12</wgt>
  <wgt id="126">6.37508e-12</wgt>
  <wgt id="127">6.35996e-12</wgt>
  <wgt id="128">6.38604e-12</wgt>
  <wgt id="129">6.34624e-12</wgt>
  <wgt id="130">6.40177e-12</wgt>
  <wgt id="131">6.32925e-12</wgt>
  <wgt id="132">6.21473e-12</wgt>
  <wgt id="133">6.5428e-12</wgt>
  <wgt id="134">6.30551e-12</wgt>
  <wgt id="135">6.41298e-12</wgt>
  <wgt id="136">6.43466e-12</wgt>
  <wgt id="137">6.28283e-12</wgt>
  <wgt id="138">6.57539e-12</wgt>
  <wgt id="139">6.16091e-12</wgt>
  <wgt id="140">6.32051e-12</wgt>
  <wgt id="141">6.40194e-12</wgt>
  <wgt id="142">6.36716e-12</wgt>
  <wgt id="143">6.37134e-12</wgt>
  <wgt id="144">6.25007e-12</wgt>
  <wgt id="145">6.46889e-12</wgt>
  <wgt id="146">6.40206e-12</wgt>
  <wgt id="147">6.33878e-12</wgt>
  <wgt id="148">6.38199e-12</wgt>
  <wgt id="149">6.36485e-12</wgt>
  <wgt id="150">6.41696e-12</wgt>
  <wgt id="151">6.34232e-12</wgt>
  <wgt id="152">6.36794e-12</wgt>
  <wgt id="153">6.36525e-12</wgt>
  <wgt id="154">6.43069e-12</wgt>
  <wgt id="155">6.29216e-12</wgt>
  <wgt id="156">6.43503e-12</wgt>
  <wgt id="157">6.27603e-12</wgt>
  <wgt id="158">7.66693e-12</wgt>
  <wgt id="159">7.69824e-12</wgt>
  <wgt id="160">7.64136e-12</wgt>
  <wgt id="161">7.65085e-12</wgt>
  <wgt id="162">7.68445e-12</wgt>
  <wgt id="163">7.66002e-12</wgt>
  <wgt id="164">7.67704e-12</wgt>
  <wgt id="165">7.67e-12</wgt>
  <wgt id="166">7.66449e-12</wgt>
  <wgt id="167">7.66115e-12</wgt>
  <wgt id="168">7.67495e-12</wgt>
  <wgt id="169">7.6334e-12</wgt>
  <wgt id="170">7.68757e-12</wgt>
  <wgt id="171">7.65981e-12</wgt>
  <wgt id="172">7.67683e-12</wgt>
  <wgt id="173">7.67084e-12</wgt>
  <wgt id="174">7.6652e-12</wgt>
  <wgt id="175">7.47476e-12</wgt>
  <wgt id="176">7.9149e-12</wgt>
  <wgt id="177">7.70112e-12</wgt>
  <wgt id="178">7.63469e-12</wgt>
  <wgt id="179">7.93245e-12</wgt>
  <wgt id="180">7.24159e-12</wgt>
  <wgt id="181">7.47759e-12</wgt>
  <wgt id="182">7.79093e-12</wgt>
  <wgt id="183">7.55051e-12</wgt>
  <wgt id="184">7.72434e-12</wgt>
  <wgt id="185">7.6137e-12</wgt>
  <wgt id="186">7.72625e-12</wgt>
  <wgt id="187">7.60552e-12</wgt>
  <wgt id="188">7.77664e-12</wgt>
  <wgt id="189">7.62665e-12</wgt>
  <wgt id="190">7.68304e-12</wgt>
  <wgt id="191">7.68372e-12</wgt>
  <wgt id="192">7.65679e-12</wgt>
  <wgt id="193">7.75574e-12</wgt>
  <wgt id="194">7.62265e-12</wgt>
  <wgt id="195">7.56333e-12</wgt>
  <wgt id="196">7.8949e-12</wgt>
  <wgt id="197">7.69966e-12</wgt>
  <wgt id="198">7.65886e-12</wgt>
  <wgt id="199">7.66693e-12</wgt>
  <wgt id="200">7.72424e-12</wgt>
  <wgt id="201">7.70246e-12</wgt>
  <wgt id="202">7.6817e-12</wgt>
  <wgt id="203">7.64937e-12</wgt>
  <wgt id="204">7.63459e-12</wgt>
  <wgt id="205">7.62177e-12</wgt>
  <wgt id="206">7.51277e-12</wgt>
  <wgt id="207">7.55524e-12</wgt>
  <wgt id="208">7.47078e-12</wgt>
  <wgt id="209">7.52913e-12</wgt>
  <wgt id="210">7.50081e-12</wgt>
  <wgt id="211">7.51133e-12</wgt>
  <wgt id="212">7.51375e-12</wgt>
  <wgt id="213">7.51198e-12</wgt>
  <wgt id="214">7.51369e-12</wgt>
  <wgt id="215">7.51674e-12</wgt>
  <wgt id="216">7.51002e-12</wgt>
  <wgt id="217">7.53205e-12</wgt>
  <wgt id="218">7.49814e-12</wgt>
  <wgt id="219">7.50076e-12</wgt>
  <wgt id="220">7.51998e-12</wgt>
  <wgt id="221">7.50849e-12</wgt>
  <wgt id="222">7.52285e-12</wgt>
  <wgt id="223">7.16048e-12</wgt>
  <wgt id="224">7.83094e-12</wgt>
  <wgt id="225">7.43643e-12</wgt>
  <wgt id="226">7.60789e-12</wgt>
  <wgt id="227">7.44976e-12</wgt>
  <wgt id="228">7.54037e-12</wgt>
  <wgt id="229">7.41914e-12</wgt>
  <wgt id="230">7.55915e-12</wgt>
  <wgt id="231">7.6983e-12</wgt>
  <wgt id="232">7.35908e-12</wgt>
  <wgt id="233">7.48006e-12</wgt>
  <wgt id="234">7.55984e-12</wgt>
  <wgt id="235">7.44117e-12</wgt>
  <wgt id="236">7.60055e-12</wgt>
  <wgt id="237">7.45012e-12</wgt>
  <wgt id="238">7.5349e-12</wgt>
  <wgt id="239">7.48305e-12</wgt>
  <wgt id="240">7.56791e-12</wgt>
  <wgt id="241">7.44952e-12</wgt>
  <wgt id="242">7.58838e-12</wgt>
  <wgt id="243">7.55384e-12</wgt>
  <wgt id="244">7.57844e-12</wgt>
  <wgt id="245">7.50477e-12</wgt>
  <wgt id="246">7.57635e-12</wgt>
  <wgt id="247">7.51277e-12</wgt>
  <wgt id="248">7.57008e-12</wgt>
  <wgt id="249">7.54749e-12</wgt>
  <wgt id="250">7.52692e-12</wgt>
  <wgt id="251">7.49531e-12</wgt>
  <wgt id="252">7.48077e-12</wgt>
  <wgt id="253">7.46947e-12</wgt>
  <wgt id="254">7.36071e-12</wgt>
  <wgt id="255">7.36791e-12</wgt>
  <wgt id="256">7.35325e-12</wgt>
  <wgt id="257">7.36703e-12</wgt>
  <wgt id="258">7.35618e-12</wgt>
  <wgt id="259">7.40915e-12</wgt>
  <wgt id="260">7.31398e-12</wgt>
  <wgt id="261">7.36545e-12</wgt>
  <wgt id="262">7.35555e-12</wgt>
  <wgt id="263">7.35916e-12</wgt>
  <wgt id="264">7.36268e-12</wgt>
  <wgt id="265">7.35458e-12</wgt>
  <wgt id="266">7.37332e-12</wgt>
  <wgt id="267">7.36284e-12</wgt>
  <wgt id="268">7.35816e-12</wgt>
  <wgt id="269">7.3793e-12</wgt>
  <wgt id="270">7.34826e-12</wgt>
  <wgt id="271">7.34961e-12</wgt>
  <wgt id="272">7.37341e-12</wgt>
  <wgt id="273">7.34048e-12</wgt>
  <wgt id="274">7.37644e-12</wgt>
  <wgt id="275">7.33793e-12</wgt>
  <wgt id="276">7.38437e-12</wgt>
  <wgt id="277">7.32363e-12</wgt>
  <wgt id="278">7.39536e-12</wgt>
  <wgt id="279">7.23769e-12</wgt>
  <wgt id="280">7.51448e-12</wgt>
  <wgt id="281">7.33441e-12</wgt>
  <wgt id="282">7.35965e-12</wgt>
  <wgt id="283">7.18406e-12</wgt>
  <wgt id="284">7.57639e-12</wgt>
  <wgt id="285">7.06295e-12</wgt>
  <wgt id="286">7.60292e-12</wgt>
  <wgt id="287">7.38042e-12</wgt>
  <wgt id="288">7.33569e-12</wgt>
  <wgt id="289">7.40373e-12</wgt>
  <wgt id="290">7.25672e-12</wgt>
  <wgt id="291">7.34746e-12</wgt>
  <wgt id="292">7.36427e-12</wgt>
  <wgt id="293">7.31373e-12</wgt>
  <wgt id="294">7.40751e-12</wgt>
  <wgt id="295">7.24177e-12</wgt>
  <wgt id="296">7.50528e-12</wgt>
  <wgt id="297">7.37045e-12</wgt>
  <wgt id="298">7.37649e-12</wgt>
  <wgt id="299">7.34137e-12</wgt>
  <wgt id="300">7.41196e-12</wgt>
  <wgt id="301">7.3142e-12</wgt>
  <wgt id="302">7.52059e-12</wgt>
  <wgt id="303">7.32913e-12</wgt>
  <wgt id="304">7.38005e-12</wgt>
  <wgt id="305">7.42174e-12</wgt>
  <wgt id="306">7.42924e-12</wgt>
  <wgt id="307">7.41376e-12</wgt>
  <wgt id="308">7.42858e-12</wgt>
  <wgt id="309">7.41709e-12</wgt>
  <wgt id="310">7.47236e-12</wgt>
  <wgt id="311">7.3747e-12</wgt>
  <wgt id="312">7.4235e-12</wgt>
  <wgt id="313">7.42037e-12</wgt>
  <wgt id="314">7.42013e-12</wgt>
  <wgt id="315">7.42326e-12</wgt>
  <wgt id="316">7.41599e-12</wgt>
  <wgt id="317">7.43444e-12</wgt>
  <wgt id="318">7.42572e-12</wgt>
  <wgt id="319">7.41478e-12</wgt>
  <wgt id="320">7.44078e-12</wgt>
  <wgt id="321">7.41104e-12</wgt>
  <wgt id="322">7.40603e-12</wgt>
  <wgt id="323">7.43996e-12</wgt>
  <wgt id="324">7.40444e-12</wgt>
  <wgt id="325">7.4366e-12</wgt>
  <wgt id="326">7.40312e-12</wgt>
  <wgt id="327">7.44541e-12</wgt>
  <wgt id="328">7.38671e-12</wgt>
  <wgt id="329">7.44209e-12</wgt>
  <wgt id="330">7.61677e-12</wgt>
  <wgt id="331">7.2344e-12</wgt>
  <wgt id="332">7.40023e-12</wgt>
  <wgt id="333">7.42e-12</wgt>
  <wgt id="334">7.2811e-12</wgt>
  <wgt id="335">7.59488e-12</wgt>
  <wgt id="336">7.2032e-12</wgt>
  <wgt id="337">7.68335e-12</wgt>
  <wgt id="338">7.49165e-12</wgt>
  <wgt id="339">7.35659e-12</wgt>
  <wgt id="340">7.46322e-12</wgt>
  <wgt id="341">7.31117e-12</wgt>
  <wgt id="342">7.41366e-12</wgt>
  <wgt id="343">7.41619e-12</wgt>
  <wgt id="344">7.37794e-12</wgt>
  <wgt id="345">7.47236e-12</wgt>
  <wgt id="346">7.29726e-12</wgt>
  <wgt id="347">7.56468e-12</wgt>
  <wgt id="348">7.43642e-12</wgt>
  <wgt id="349">7.4317e-12</wgt>
  <wgt id="350">7.39673e-12</wgt>
  <wgt id="351">7.48508e-12</wgt>
  <wgt id="352">7.36738e-12</wgt>
  <wgt id="353">7.59651e-12</wgt>
  <wgt id="354">7.3718e-12</wgt>
  <wgt id="355">7.45469e-12</wgt>
  <wgt id="356">7.36071e-12</wgt>
  <wgt id="357">7.46287e-12</wgt>
  <wgt id="358">7.42174e-12</wgt>
  <wgt id="359">7.3974e-12</wgt>
  <wgt id="360">7.37215e-12</wgt>
  <wgt id="361">7.37529e-12</wgt>
  <wgt id="362">7.48109e-12</wgt>
  <wgt id="363">7.46612e-12</wgt>
  <wgt id="364">7.44783e-12</wgt>
  <wgt id="365">7.42701e-12</wgt>
  <wgt id="366">7.40242e-12</wgt>
  <wgt id="367">7.34971e-12</wgt>
  <wgt id="368">7.32182e-12</wgt>
  <wgt id="369">7.29195e-12</wgt>
  <wgt id="370">7.37529e-12</wgt>
  <wgt id="371">7.40732e-12</wgt>
  <wgt id="372">7.38972e-12</wgt>
  <wgt id="373">7.36317e-12</wgt>
  <wgt id="374">7.35675e-12</wgt>
  <wgt id="375">7.67541e-12</wgt>
  <wgt id="376">7.67622e-12</wgt>
  <wgt id="377">7.6745e-12</wgt>
  <wgt id="378">7.70241e-12</wgt>
  <wgt id="379">7.64882e-12</wgt>
  <wgt id="380">7.69679e-12</wgt>
  <wgt id="381">7.66687e-12</wgt>
  <wgt id="382">7.70893e-12</wgt>
  <wgt id="383">7.64232e-12</wgt>
  <wgt id="384">7.68042e-12</wgt>
  <wgt id="385">7.67078e-12</wgt>
  <wgt id="386">7.70098e-12</wgt>
  <wgt id="387">7.66441e-12</wgt>
  <wgt id="388">7.66928e-12</wgt>
  <wgt id="389">7.68313e-12</wgt>
  <wgt id="390">7.6936e-12</wgt>
  <wgt id="391">7.65629e-12</wgt>
  <wgt id="392">7.63265e-12</wgt>
  <wgt id="393">7.6996e-12</wgt>
  <wgt id="394">7.68657e-12</wgt>
  <wgt id="395">7.66025e-12</wgt>
  <wgt id="396">7.67347e-12</wgt>
  <wgt id="397">7.67681e-12</wgt>
  <wgt id="398">7.64827e-12</wgt>
  <wgt id="399">7.70164e-12</wgt>
  <wgt id="400">7.66527e-12</wgt>
  <wgt id="401">7.69789e-12</wgt>
  <wgt id="402">7.62503e-12</wgt>
  <wgt id="403">7.69281e-12</wgt>
  <wgt id="404">7.81755e-12</wgt>
  <wgt id="405">7.32929e-12</wgt>
  <wgt id="406">7.5723e-12</wgt>
  <wgt id="407">7.89547e-12</wgt>
  <wgt id="408">7.72812e-12</wgt>
  <wgt id="409">7.5726e-12</wgt>
  <wgt id="410">7.50401e-12</wgt>
  <wgt id="411">7.75219e-12</wgt>
  <wgt id="412">7.66493e-12</wgt>
  <wgt id="413">7.68844e-12</wgt>
  <wgt id="414">7.60721e-12</wgt>
  <wgt id="415">7.72841e-12</wgt>
  <wgt id="416">7.82527e-12</wgt>
  <wgt id="417">7.46744e-12</wgt>
  <wgt id="418">7.68351e-12</wgt>
  <wgt id="419">7.63209e-12</wgt>
  <wgt id="420">7.72516e-12</wgt>
  <wgt id="421">7.65905e-12</wgt>
  <wgt id="422">7.68695e-12</wgt>
  <wgt id="423">7.67273e-12</wgt>
  <wgt id="424">7.76777e-12</wgt>
  <wgt id="425">7.62396e-12</wgt>
  <wgt id="426">7.67541e-12</wgt>
  <wgt id="427">7.6437e-12</wgt>
  <wgt id="428">7.79102e-12</wgt>
  <wgt id="429">7.71876e-12</wgt>
  <wgt id="430">7.89919e-12</wgt>
  <wgt id="431">7.8637e-12</wgt>
  <wgt id="432">7.82916e-12</wgt>
  <wgt id="433">7.79566e-12</wgt>
  <wgt id="434">7.75659e-12</wgt>
  <wgt id="435">7.67117e-12</wgt>
  <wgt id="436">7.62612e-12</wgt>
  <wgt id="437">7.58434e-12</wgt>
  <wgt id="438">7.71876e-12</wgt>
  <wgt id="439">7.74396e-12</wgt>
  <wgt id="440">7.72958e-12</wgt>
  <wgt id="441">7.71019e-12</wgt>
  <wgt id="442">7.70314e-12</wgt>
  <wgt id="443">7.64013e-12</wgt>
  <wgt id="444">7.66319e-12</wgt>
  <wgt id="445">7.61915e-12</wgt>
  <wgt id="446">7.59835e-12</wgt>
  <wgt id="447">7.6183e-12</wgt>
  <wgt id="448">7.47418e-12</wgt>
  <wgt id="449">7.73392e-12</wgt>
  <wgt id="450">7.60683e-12</wgt>
  <wgt id="451">7.63223e-12</wgt>
  <wgt id="452">7.77065e-12</wgt>
  <wgt id="453">7.68115e-12</wgt>
  <wgt id="454">7.37439e-12</wgt>
  <wgt id="455">7.64953e-12</wgt>
  <wgt id="456">7.49271e-12</wgt>
  <wgt id="457">7.66049e-12</wgt>
  <wgt id="458">7.71089e-12</wgt>
  <wgt id="459">7.6809e-12</wgt>
  <wgt id="460">7.6795e-12</wgt>
  <wgt id="461">7.54609e-12</wgt>
  <wgt id="462">7.60142e-12</wgt>
  <wgt id="463">7.58034e-12</wgt>
  <wgt id="464">7.61561e-12</wgt>
  <wgt id="465">7.69182e-12</wgt>
  <wgt id="466">7.5801e-12</wgt>
  <wgt id="467">7.59089e-12</wgt>
  <wgt id="468">7.62603e-12</wgt>
  <wgt id="469">7.62951e-12</wgt>
  <wgt id="470">7.58604e-12</wgt>
  <wgt id="471">7.59639e-12</wgt>
  <wgt id="472">7.66259e-12</wgt>
  <wgt id="473">7.4792e-12</wgt>
  <wgt id="474">5.79e-12</wgt>
  <wgt id="475">6.14201e-12</wgt>
  <wgt id="476">5.70656e-12</wgt>
  <wgt id="477">5.7944e-12</wgt>
  <wgt id="478">5.83069e-12</wgt>
  <wgt id="479">5.771e-12</wgt>
  <wgt id="480">5.9195e-12</wgt>
  <wgt id="481">5.62166e-12</wgt>
  <wgt id="482">5.54881e-12</wgt>
  <wgt id="483">5.65468e-12</wgt>
  <wgt id="484">6.21148e-12</wgt>
  <wgt id="485">5.82086e-12</wgt>
  <wgt id="486">5.81519e-12</wgt>
  <wgt id="487">5.82252e-12</wgt>
  <wgt id="488">5.84146e-12</wgt>
  <wgt id="489">5.55586e-12</wgt>
  <wgt id="490">5.63731e-12</wgt>
  <wgt id="491">5.73629e-12</wgt>
  <wgt id="492">5.61782e-12</wgt>
  <wgt id="493">5.62011e-12</wgt>
  <wgt id="494">5.62238e-12</wgt>
  <wgt id="495">5.84491e-12</wgt>
  <wgt id="496">5.59005e-12</wgt>
  <wgt id="497">5.61727e-12</wgt>
  <wgt id="498">5.84086e-12</wgt>
  <wgt id="499">5.64749e-12</wgt>
  <wgt id="500">5.67302e-12</wgt>
  <wgt id="501">6.00108e-12</wgt>
  <wgt id="502">5.62757e-12</wgt>
  <wgt id="503">5.75378e-12</wgt>
  <wgt id="504">5.74468e-12</wgt>
  <wgt id="505">5.97976e-12</wgt>
  <wgt id="506">5.77248e-12</wgt>
  <wgt id="507">5.71579e-12</wgt>
  <wgt id="508">5.90228e-12</wgt>
  <wgt id="509">5.84323e-12</wgt>
  <wgt id="510">5.88827e-12</wgt>
  <wgt id="511">5.65176e-12</wgt>
  <wgt id="512">5.83404e-12</wgt>
  <wgt id="513">5.91812e-12</wgt>
  <wgt id="514">5.74597e-12</wgt>
  <wgt id="515">5.73449e-12</wgt>
  <wgt id="516">5.93374e-12</wgt>
  <wgt id="517">5.9298e-12</wgt>
  <wgt id="518">5.96336e-12</wgt>
  <wgt id="519">5.70338e-12</wgt>
  <wgt id="520">5.78149e-12</wgt>
  <wgt id="521">6.00521e-12</wgt>
  <wgt id="522">5.99626e-12</wgt>
  <wgt id="523">5.85938e-12</wgt>
  <wgt id="524">5.91843e-12</wgt>
  <wgt id="525">5.87297e-12</wgt>
  <wgt id="526">5.75146e-12</wgt>
  <wgt id="527">5.91563e-12</wgt>
  <wgt id="528">5.74158e-12</wgt>
  <wgt id="529">5.76322e-12</wgt>
  <wgt id="530">5.79593e-12</wgt>
  <wgt id="531">5.69498e-12</wgt>
  <wgt id="532">6.0557e-12</wgt>
  <wgt id="533">5.45706e-12</wgt>
  <wgt id="534">5.76636e-12</wgt>
  <wgt id="535">5.84354e-12</wgt>
  <wgt id="536">5.84079e-12</wgt>
  <wgt id="537">5.80511e-12</wgt>
  <wgt id="538">5.9264e-12</wgt>
  <wgt id="539">5.63265e-12</wgt>
  <wgt id="540">5.81138e-12</wgt>
  <wgt id="541">5.77658e-12</wgt>
  <wgt id="542">5.63049e-12</wgt>
  <wgt id="543">5.77515e-12</wgt>
  <wgt id="544">6.05569e-12</wgt>
  <wgt id="545">5.70621e-12</wgt>
  <wgt id="546">5.74109e-12</wgt>
  <wgt id="547">5.6323e-12</wgt>
  <wgt id="548">5.56007e-12</wgt>
  <wgt id="549">5.72291e-12</wgt>
  <wgt id="550">5.88282e-12</wgt>
  <wgt id="551">5.87855e-12</wgt>
  <wgt id="552">5.72105e-12</wgt>
  <wgt id="553">5.77408e-12</wgt>
  <wgt id="554">6.22181e-12</wgt>
  <wgt id="555">5.96993e-12</wgt>
  <wgt id="556">5.63731e-12</wgt>
  <wgt id="557">5.86733e-12</wgt>
  <wgt id="558">5.60995e-12</wgt>
  <wgt id="559">5.72783e-12</wgt>
  <wgt id="560">6.21121e-12</wgt>
  <wgt id="561">5.63551e-12</wgt>
  <wgt id="562">5.84446e-12</wgt>
  <wgt id="563">5.70196e-12</wgt>
  <wgt id="564">5.79194e-12</wgt>
  <wgt id="565">5.66549e-12</wgt>
  <wgt id="566">5.79947e-12</wgt>
  <wgt id="567">5.69622e-12</wgt>
  <wgt id="568">5.82585e-12</wgt>
  <wgt id="569">5.75447e-12</wgt>
  <wgt id="570">5.71184e-12</wgt>
  <wgt id="571">6.37231e-12</wgt>
  <wgt id="572">5.68071e-12</wgt>
  <wgt id="573">5.54155e-12</wgt>
  <wgt id="574">5.59964e-12</wgt>
  <wgt id="575">6.29315e-12</wgt>
  <wgt id="576">6.15289e-12</wgt>
  <wgt id="577">6.5815e-12</wgt>
  <wgt id="578">6.34357e-12</wgt>
  <wgt id="579">6.29747e-12</wgt>
  <wgt id="580">6.35997e-12</wgt>
  <wgt id="581">6.61876e-12</wgt>
  <wgt id="582">6.13072e-12</wgt>
  <wgt id="583">6.33797e-12</wgt>
  <wgt id="584">6.28832e-12</wgt>
  <wgt id="585">6.32103e-12</wgt>
  <wgt id="586">6.13979e-12</wgt>
  <wgt id="587">6.33492e-12</wgt>
  <wgt id="588">6.25303e-12</wgt>
  <wgt id="589">6.30771e-12</wgt>
  <wgt id="590">6.36571e-12</wgt>
  <wgt id="591">6.55445e-12</wgt>
  <wgt id="592">6.19283e-12</wgt>
  <wgt id="593">6.25384e-12</wgt>
  <wgt id="594">6.62328e-12</wgt>
  <wgt id="595">6.23207e-12</wgt>
  <wgt id="596">6.44646e-12</wgt>
  <wgt id="597">6.02641e-12</wgt>
  <wgt id="598">6.37106e-12</wgt>
  <wgt id="599">6.55279e-12</wgt>
  <wgt id="600">6.24699e-12</wgt>
  <wgt id="601">6.10978e-12</wgt>
  <wgt id="602">6.19962e-12</wgt>
  <wgt id="603">6.25287e-12</wgt>
  <wgt id="604">6.35685e-12</wgt>
  <wgt id="605">6.54005e-12</wgt>
  <wgt id="606">6.132e-12</wgt>
  <wgt id="607">6.20514e-12</wgt>
  <wgt id="608">6.19472e-12</wgt>
  <wgt id="609">5.90517e-12</wgt>
  <wgt id="610">6.0446e-12</wgt>
  <wgt id="611">6.43556e-12</wgt>
  <wgt id="612">6.81675e-12</wgt>
  <wgt id="613">6.3207e-12</wgt>
  <wgt id="614">6.35128e-12</wgt>
  <wgt id="615">6.17916e-12</wgt>
  <wgt id="616">6.76155e-12</wgt>
  <wgt id="617">6.47734e-12</wgt>
  <wgt id="618">6.18389e-12</wgt>
  <wgt id="619">6.31034e-12</wgt>
  <wgt id="620">6.41262e-12</wgt>
  <wgt id="621">6.37827e-12</wgt>
  <wgt id="622">6.33492e-12</wgt>
  <wgt id="623">6.41709e-12</wgt>
  <wgt id="624">6.22976e-12</wgt>
  <wgt id="625">6.21629e-12</wgt>
  <wgt id="626">6.17667e-12</wgt>
  <wgt id="627">6.10393e-12</wgt>
  <wgt id="628">6.56141e-12</wgt>
  <wgt id="629">6.18638e-12</wgt>
  <wgt id="630">6.22632e-12</wgt>
  <wgt id="631">6.25754e-12</wgt>
  <wgt id="632">6.16279e-12</wgt>
  <wgt id="633">6.20505e-12</wgt>
  <wgt id="634">6.37649e-12</wgt>
  <wgt id="635">6.32174e-12</wgt>
  <wgt id="636">6.33645e-12</wgt>
  <wgt id="637">6.37443e-12</wgt>
  <wgt id="638">6.11574e-12</wgt>
  <wgt id="639">6.24973e-12</wgt>
  <wgt id="640">6.32058e-12</wgt>
  <wgt id="641">6.27925e-12</wgt>
  <wgt id="642">6.41771e-12</wgt>
  <wgt id="643">6.29098e-12</wgt>
  <wgt id="644">6.11671e-12</wgt>
  <wgt id="645">6.29748e-12</wgt>
  <wgt id="646">6.44747e-12</wgt>
  <wgt id="647">6.16314e-12</wgt>
  <wgt id="648">6.31249e-12</wgt>
  <wgt id="649">6.37917e-12</wgt>
  <wgt id="650">6.1801e-12</wgt>
  <wgt id="651">6.42465e-12</wgt>
  <wgt id="652">6.3218e-12</wgt>
  <wgt id="653">6.15098e-12</wgt>
  <wgt id="654">6.27471e-12</wgt>
  <wgt id="655">6.11599e-12</wgt>
  <wgt id="656">6.21526e-12</wgt>
  <wgt id="657">6.33418e-12</wgt>
  <wgt id="658">6.50083e-12</wgt>
  <wgt id="659">6.09835e-12</wgt>
  <wgt id="660">6.39312e-12</wgt>
  <wgt id="661">6.2218e-12</wgt>
  <wgt id="662">6.22478e-12</wgt>
  <wgt id="663">6.2542e-12</wgt>
  <wgt id="664">6.18541e-12</wgt>
  <wgt id="665">6.26682e-12</wgt>
  <wgt id="666">6.32204e-12</wgt>
  <wgt id="667">6.49046e-12</wgt>
  <wgt id="668">6.23112e-12</wgt>
  <wgt id="669">6.44755e-12</wgt>
  <wgt id="670">6.30853e-12</wgt>
  <wgt id="671">6.1421e-12</wgt>
  <wgt id="672">6.03407e-12</wgt>
  <wgt id="673">6.23344e-12</wgt>
  <wgt id="674">6.15298e-12</wgt>
  <wgt id="675">6.10193e-12</wgt>
  <wgt id="676">7.6696e-12</wgt>
  <wgt id="677">7.80339e-12</wgt>
  <wgt id="678">7.99308e-12</wgt>
  <wgt id="679">7.47811e-12</wgt>
  <wgt id="680">7.32344e-12</wgt>
  <wgt id="681">7.93877e-12</wgt>
  <wgt id="682">7.65055e-12</wgt>
  <wgt id="683">7.65076e-12</wgt>
  <wgt id="684">7.96718e-12</wgt>
  <wgt id="685">7.30567e-12</wgt>
  <wgt id="686">7.89414e-12</wgt>
  <wgt id="687">7.93445e-12</wgt>
  <wgt id="688">7.58542e-12</wgt>
  <wgt id="689">8.06505e-12</wgt>
  <wgt id="690">8.12744e-12</wgt>
  <wgt id="691">7.96905e-12</wgt>
  <wgt id="692">7.71318e-12</wgt>
  <wgt id="693">8.6032e-12</wgt>
  <wgt id="694">8.06539e-12</wgt>
  <wgt id="695">7.40807e-12</wgt>
  <wgt id="696">7.39936e-12</wgt>
  <wgt id="697">7.37179e-12</wgt>
  <wgt id="698">7.38745e-12</wgt>
  <wgt id="699">7.25971e-12</wgt>
  <wgt id="700">7.02606e-12</wgt>
  <wgt id="701">7.66707e-12</wgt>
  <wgt id="702">7.28807e-12</wgt>
  <wgt id="703">8.51132e-12</wgt>
  <wgt id="704">8.0811e-12</wgt>
  <wgt id="705">7.90826e-12</wgt>
  <wgt id="706">7.21472e-12</wgt>
  <wgt id="707">7.40838e-12</wgt>
  <wgt id="708">7.59013e-12</wgt>
  <wgt id="709">7.55541e-12</wgt>
  <wgt id="710">6.93428e-12</wgt>
  <wgt id="711">7.71535e-12</wgt>
  <wgt id="712">7.60262e-12</wgt>
  <wgt id="713">8.02486e-12</wgt>
  <wgt id="714">7.7235e-12</wgt>
  <wgt id="715">7.58373e-12</wgt>
  <wgt id="716">7.43298e-12</wgt>
  <wgt id="717">7.43252e-12</wgt>
  <wgt id="718">7.43071e-12</wgt>
  <wgt id="719">7.1242e-12</wgt>
  <wgt id="720">7.3825e-12</wgt>
  <wgt id="721">7.53489e-12</wgt>
  <wgt id="722">7.13089e-12</wgt>
  <wgt id="723">7.99941e-12</wgt>
  <wgt id="724">7.89344e-12</wgt>
  <wgt id="725">8.09707e-12</wgt>
  <wgt id="726">7.7599e-12</wgt>
  <wgt id="727">7.51542e-12</wgt>
  <wgt id="728">7.70497e-12</wgt>
  <wgt id="729">7.06088e-12</wgt>
  <wgt id="730">7.95825e-12</wgt>
  <wgt id="731">7.62037e-12</wgt>
  <wgt id="732">8.25595e-12</wgt>
  <wgt id="733">7.63908e-12</wgt>
  <wgt id="734">7.82945e-12</wgt>
  <wgt id="735">7.63776e-12</wgt>
  <wgt id="736">7.62317e-12</wgt>
  <wgt id="737">7.7792e-12</wgt>
  <wgt id="738">7.52208e-12</wgt>
  <wgt id="739">7.52086e-12</wgt>
  <wgt id="740">8.39038e-12</wgt>
  <wgt id="741">6.88697e-12</wgt>
  <wgt id="742">7.58168e-12</wgt>
  <wgt id="743">7.58886e-12</wgt>
  <wgt id="744">7.52982e-12</wgt>
  <wgt id="745">7.85987e-12</wgt>
  <wgt id="746">7.90781e-12</wgt>
  <wgt id="747">7.25467e-12</wgt>
  <wgt id="748">7.51114e-12</wgt>
  <wgt id="749">8.10654e-12</wgt>
  <wgt id="750">7.47236e-12</wgt>
  <wgt id="751">7.96244e-12</wgt>
  <wgt id="752">7.19336e-12</wgt>
  <wgt id="753">7.32848e-12</wgt>
  <wgt id="754">7.68961e-12</wgt>
  <wgt id="755">7.73652e-12</wgt>
  <wgt id="756">7.67851e-12</wgt>
  <wgt id="757">7.25408e-12</wgt>
  <wgt id="758">7.79021e-12</wgt>
  <wgt id="759">7.49238e-12</wgt>
  <wgt id="760">7.85449e-12</wgt>
  <wgt id="761">8.06394e-12</wgt>
  <wgt id="762">8.00248e-12</wgt>
  <wgt id="763">7.75134e-12</wgt>
  <wgt id="764">7.88151e-12</wgt>
  <wgt id="765">7.61435e-12</wgt>
  <wgt id="766">7.62557e-12</wgt>
  <wgt id="767">7.79404e-12</wgt>
  <wgt id="768">7.38516e-12</wgt>
  <wgt id="769">8.04076e-12</wgt>
  <wgt id="770">7.51005e-12</wgt>
  <wgt id="771">8.77385e-12</wgt>
  <wgt id="772">7.22906e-12</wgt>
  <wgt id="773">7.67846e-12</wgt>
  <wgt id="774">7.09683e-12</wgt>
  <wgt id="775">7.88973e-12</wgt>
  <wgt id="776">8.33373e-12</wgt>
  <wgt id="777">7.62882e-12</wgt>
  <wgt id="778">5.93173e-12</wgt>
  <wgt id="779">5.25412e-12</wgt>
  <wgt id="780">4.72183e-12</wgt>
  <wgt id="781">5.85107e-12</wgt>
  <wgt id="782">6.27842e-12</wgt>
  <wgt id="783">5.40557e-12</wgt>
  <wgt id="784">5.43961e-12</wgt>
  <wgt id="785">6.93334e-12</wgt>
  <wgt id="786">4.77866e-12</wgt>
  <wgt id="787">6.42086e-12</wgt>
  <wgt id="788">4.38461e-12</wgt>
  <wgt id="789">4.95999e-12</wgt>
  <wgt id="790">4.82893e-12</wgt>
  <wgt id="791">5.50103e-12</wgt>
  <wgt id="792">7.37715e-12</wgt>
  <wgt id="793">5.67486e-12</wgt>
  <wgt id="794">5.03312e-12</wgt>
  <wgt id="795">6.45625e-12</wgt>
  <wgt id="796">7.44978e-12</wgt>
  <wgt id="797">6.5065e-12</wgt>
  <wgt id="798">5.65824e-12</wgt>
  <wgt id="799">6.48736e-12</wgt>
  <wgt id="800">5.01014e-12</wgt>
  <wgt id="801">5.72398e-12</wgt>
  <wgt id="802">5.09283e-12</wgt>
  <wgt id="803">7.72163e-12</wgt>
  <wgt id="804">6.4314e-12</wgt>
  <wgt id="805">6.54503e-12</wgt>
  <wgt id="806">6.72192e-12</wgt>
  <wgt id="807">5.79098e-12</wgt>
  <wgt id="808">5.83527e-12</wgt>
  <wgt id="809">5.53119e-12</wgt>
  <wgt id="810">6.75786e-12</wgt>
  <wgt id="811">6.32966e-12</wgt>
  <wgt id="812">5.00593e-12</wgt>
  <wgt id="813">4.99284e-12</wgt>
  <wgt id="814">4.93907e-12</wgt>
  <wgt id="815">5.28168e-12</wgt>
  <wgt id="816">4.84275e-12</wgt>
  <wgt id="817">6.25713e-12</wgt>
  <wgt id="818">5.65758e-12</wgt>
  <wgt id="819">5.31368e-12</wgt>
  <wgt id="820">5.96528e-12</wgt>
  <wgt id="821">6.48399e-12</wgt>
  <wgt id="822">5.46494e-12</wgt>
  <wgt id="823">6.45859e-12</wgt>
  <wgt id="824">7.65221e-12</wgt>
  <wgt id="825">4.83372e-12</wgt>
  <wgt id="826">5.97315e-12</wgt>
  <wgt id="827">4.23968e-12</wgt>
  <wgt id="828">7.51154e-12</wgt>
  <wgt id="829">6.00347e-12</wgt>
  <wgt id="830">4.62345e-12</wgt>
  <wgt id="831">6.18833e-12</wgt>
  <wgt id="832">8.96987e-12</wgt>
  <wgt id="833">5.78558e-12</wgt>
  <wgt id="834">8.48041e-12</wgt>
  <wgt id="835">5.00548e-12</wgt>
  <wgt id="836">6.04699e-12</wgt>
  <wgt id="837">6.41042e-12</wgt>
  <wgt id="838">5.72281e-12</wgt>
  <wgt id="839">6.18511e-12</wgt>
  <wgt id="840">5.77907e-12</wgt>
  <wgt id="841">6.73993e-12</wgt>
  <wgt id="842">5.63123e-12</wgt>
  <wgt id="843">5.67994e-12</wgt>
  <wgt id="844">6.01641e-12</wgt>
  <wgt id="845">7.54607e-12</wgt>
  <wgt id="846">5.54409e-12</wgt>
  <wgt id="847">5.68509e-12</wgt>
  <wgt id="848">5.51611e-12</wgt>
  <wgt id="849">6.01647e-12</wgt>
  <wgt id="850">7.12723e-12</wgt>
  <wgt id="851">6.3453e-12</wgt>
  <wgt id="852">5.39477e-12</wgt>
  <wgt id="853">6.26398e-12</wgt>
  <wgt id="854">6.86565e-12</wgt>
  <wgt id="855">6.42417e-12</wgt>
  <wgt id="856">4.72283e-12</wgt>
  <wgt id="857">6.05915e-12</wgt>
  <wgt id="858">5.84626e-12</wgt>
  <wgt id="859">5.60685e-12</wgt>
  <wgt id="860">6.02116e-12</wgt>
  <wgt id="861">5.58871e-12</wgt>
  <wgt id="862">5.96973e-12</wgt>
  <wgt id="863">6.05482e-12</wgt>
  <wgt id="864">6.06633e-12</wgt>
  <wgt id="865">7.75109e-12</wgt>
  <wgt id="866">8.47804e-12</wgt>
  <wgt id="867">5.83998e-12</wgt>
  <wgt id="868">5.74597e-12</wgt>
  <wgt id="869">4.96676e-12</wgt>
  <wgt id="870">5.22714e-12</wgt>
  <wgt id="871">5.10835e-12</wgt>
  <wgt id="872">6.58228e-12</wgt>
  <wgt id="873">5.16725e-12</wgt>
  <wgt id="874">6.0554e-12</wgt>
  <wgt id="875">5.27769e-12</wgt>
  <wgt id="876">6.57228e-12</wgt>
  <wgt id="877">6.41822e-12</wgt>
  <wgt id="878">5.46527e-12</wgt>
  <wgt id="879">7.6696e-12</wgt>
  <wgt id="880">7.80339e-12</wgt>
  <wgt id="881">7.99308e-12</wgt>
  <wgt id="882">7.47811e-12</wgt>
  <wgt id="883">7.32344e-12</wgt>
  <wgt id="884">7.93877e-12</wgt>
  <wgt id="885">7.65055e-12</wgt>
  <wgt id="886">7.65076e-12</wgt>
  <wgt id="887">7.96718e-12</wgt>
  <wgt id="888">7.30567e-12</wgt>
  <wgt id="889">7.89414e-12</wgt>
  <wgt id="890">7.93445e-12</wgt>
  <wgt id="891">7.58542e-12</wgt>
  <wgt id="892">8.06505e-12</wgt>
  <wgt id="893">8.12744e-12</wgt>
  <wgt id="894">7.96905e-12</wgt>
  <wgt id="895">7.71318e-12</wgt>
  <wgt id="896">8.6032e-12</wgt>
  <wgt id="897">8.06539e-12</wgt>
  <wgt id="898">7.40807e-12</wgt>
  <wgt id="899">7.39936e-12</wgt>
  <wgt id="900">7.37179e-12</wgt>
  <wgt id="901">7.38745e-12</wgt>
  <wgt id="902">7.25971e-12</wgt>
  <wgt id="903">7.02606e-12</wgt>
  <wgt id="904">7.66707e-12</wgt>
  <wgt id="905">7.28807e-12</wgt>
  <wgt id="906">8.51132e-12</wgt>
  <wgt id="907">8.0811e-12</wgt>
  <wgt id="908">7.90826e-12</wgt>
  <wgt id="909">7.21472e-12</wgt>
  <wgt id="910">7.40838e-12</wgt>
  <wgt id="911">7.59013e-12</wgt>
  <wgt id="912">7.55541e-12</wgt>
  <wgt id="913">6.93428e-12</wgt>
  <wgt id="914">7.71535e-12</wgt>
  <wgt id="915">7.60262e-12</wgt>
  <wgt id="916">8.02486e-12</wgt>
  <wgt id="917">7.7235e-12</wgt>
  <wgt id="918">7.58373e-12</wgt>
  <wgt id="919">7.43298e-12</wgt>
  <wgt id="920">7.43252e-12</wgt>
  <wgt id="921">7.43071e-12</wgt>
  <wgt id="922">7.1242e-12</wgt>
  <wgt id="923">7.3825e-12</wgt>
  <wgt id="924">7.53489e-12</wgt>
  <wgt id="925">7.13089e-12</wgt>
  <wgt id="926">7.99941e-12</wgt>
  <wgt id="927">7.89344e-12</wgt>
  <wgt id="928">8.09707e-12</wgt>
  <wgt id="929">7.7599e-12</wgt>
  <wgt id="930">7.51542e-12</wgt>
  <wgt id="931">7.70497e-12</wgt>
  <wgt id="932">7.06088e-12</wgt>
  <wgt id="933">7.95825e-12</wgt>
  <wgt id="934">7.62037e-12</wgt>
  <wgt id="935">8.25595e-12</wgt>
  <wgt id="936">7.63908e-12</wgt>
  <wgt id="937">7.82945e-12</wgt>
  <wgt id="938">7.63776e-12</wgt>
  <wgt id="939">7.62317e-12</wgt>
  <wgt id="940">7.7792e-12</wgt>
  <wgt id="941">7.52208e-12</wgt>
  <wgt id="942">7.52086e-12</wgt>
  <wgt id="943">8.39038e-12</wgt>
  <wgt id="944">6.88697e-12</wgt>
  <wgt id="945">7.58168e-12</wgt>
  <wgt id="946">7.58886e-12</wgt>
  <wgt id="947">7.52982e-12</wgt>
  <wgt id="948">7.85987e-12</wgt>
  <wgt id="949">7.90781e-12</wgt>
  <wgt id="950">7.25467e-12</wgt>
  <wgt id="951">7.51114e-12</wgt>
  <wgt id="952">8.10654e-12</wgt>
  <wgt id="953">7.47236e-12</wgt>
  <wgt id="954">7.96244e-12</wgt>
  <wgt id="955">7.19336e-12</wgt>
  <wgt id="956">7.32848e-12</wgt>
  <wgt id="957">7.68961e-12</wgt>
  <wgt id="958">7.73652e-12</wgt>
  <wgt id="959">7.67851e-12</wgt>
  <wgt id="960">7.25408e-12</wgt>
  <wgt id="961">7.79021e-12</wgt>
  <wgt id="962">7.49238e-12</wgt>
  <wgt id="963">7.85449e-12</wgt>
  <wgt id="964">8.06394e-12</wgt>
  <wgt id="965">8.00248e-12</wgt>
  <wgt id="966">7.75134e-12</wgt>
  <wgt id="967">7.88151e-12</wgt>
  <wgt id="968">7.61435e-12</wgt>
  <wgt id="969">7.62557e-12</wgt>
  <wgt id="970">7.79404e-12</wgt>
  <wgt id="971">7.38516e-12</wgt>
  <wgt id="972">8.04076e-12</wgt>
  <wgt id="973">7.51005e-12</wgt>
  <wgt id="974">8.77385e-12</wgt>
  <wgt id="975">7.22906e-12</wgt>
  <wgt id="976">7.67846e-12</wgt>
  <wgt id="977">7.09683e-12</wgt>
  <wgt id="978">7.88973e-12</wgt>
  <wgt id="979">8.33373e-12</wgt>
  <wgt id="980">7.70518e-12</wgt>
  <wgt id="981">7.67004e-12</wgt>
  <wgt id="982">7.47104e-12</wgt>
</rwgt>
</event>
<event>
 5   1  0.5790000E-11  0.2232902E+04  0.7818608E-02  0.7736588E-01
       21   -1    0    0  502  501  0.00000000000E+00  0.00000000000E+00  0.77708669390E+03  0.77708669390E+03  0.00000000000E+00 0. -1.
       21   -1    0    0  501  502 -0.00000000000E+00 -0.00000000000E+00 -0.16040209871E+04  0.16040209871E+04  0.00000000000E+00 0.  1.
       39    2    1    2    0    0  0.00000000000E+00  0.00000000000E+00 -0.82693429323E+03  0.23811076810E+04  0.22329024751E+04 0.  0.
       25    1    3    3    0    0 -0.10817363323E+04 -0.22877959582E+03 -0.31605424915E+03  0.11567233396E+04  0.12500000000E+03 0.  0.
       25    1    3    3    0    0  0.10817363323E+04  0.22877959582E+03 -0.51088004409E+03  0.12243843414E+04  0.12500000000E+03 0.  0.
<mgrwt>
<rscale>  0 0.22329025E+04</rscale>
<asrwt>0</asrwt>
<pdfrwt beam="1">  1       21 0.11955180E+00 0.22329025E+04</pdfrwt>
<pdfrwt beam="2">  1       21 0.24677246E+00 0.22329025E+04</pdfrwt>
<totfact> 0.14052674E+01</totfact>
</mgrwt>
<rwgt>
  <wgt id="1">5.79e-12</wgt>
  <wgt id="2">5.04146e-12</wgt>
  <wgt id="3">6.71872e-12</wgt>
  <wgt id="4">5.79e-12</wgt>
  <wgt id="5">5.04146e-12</wgt>
  <wgt id="6">6.71872e-12</wgt>
  <wgt id="7">5.79e-12</wgt>
  <wgt id="8">5.04146e-12</wgt>
  <wgt id="9">6.71872e-12</wgt>
  <wgt id="10">6.00439e-12</wgt>
  <wgt id="11">6.00052e-12</wgt>
  <wgt id="12">5.99455e-12</wgt>
  <wgt id="13">5.98606e-12</wgt>
  <wgt id="14">6.0262e-12</wgt>
  <wgt id="15">6.01455e-12</wgt>
  <wgt id="16">5.99506e-12</wgt>
  <wgt id="17">6.02222e-12</wgt>
  <wgt id="18">5.99439e-12</wgt>
  <wgt id="19">6.01834e-12</wgt>
  <wgt id="20">5.99112e-12</wgt>
  <wgt id="21">5.96262e-12</wgt>
  <wgt id="22">5.97383e-12</wgt>
  <wgt id="23">5.94036e-12</wgt>
  <wgt id="24">5.97096e-12</wgt>
  <wgt id="25">5.98717e-12</wgt>
  <wgt id="26">6.02411e-12</wgt>
  <wgt id="27">6.00068e-12</wgt>
  <wgt id="28">5.9736e-12</wgt>
  <wgt id="29">6.0084e-12</wgt>
  <wgt id="30">5.97628e-12</wgt>
  <wgt id="31">6.02707e-12</wgt>
  <wgt id="32">5.98471e-12</wgt>
  <wgt id="33">6.01641e-12</wgt>
  <wgt id="34">5.97849e-12</wgt>
  <wgt id="35">5.98998e-12</wgt>
  <wgt id="36">6.02485e-12</wgt>
  <wgt id="37">5.98808e-12</wgt>
  <wgt id="38">5.98641e-12</wgt>
  <wgt id="39">6.07945e-12</wgt>
  <wgt id="40">6.01146e-12</wgt>
  <wgt id="41">6.00161e-12</wgt>
  <wgt id="42">6.01461e-12</wgt>
  <wgt id="43">6.00379e-12</wgt>
  <wgt id="44">6.00079e-12</wgt>
  <wgt id="45">6.0156e-12</wgt>
  <wgt id="46">6.00349e-12</wgt>
  <wgt id="47">6.00479e-12</wgt>
  <wgt id="48">6.00749e-12</wgt>
  <wgt id="49">5.99393e-12</wgt>
  <wgt id="50">6.00798e-12</wgt>
  <wgt id="51">6.00823e-12</wgt>
  <wgt id="52">6.0106e-12</wgt>
  <wgt id="53">5.98271e-12</wgt>
  <wgt id="54">6.00275e-12</wgt>
  <wgt id="55">6.00388e-12</wgt>
  <wgt id="56">6.02559e-12</wgt>
  <wgt id="57">6.01491e-12</wgt>
  <wgt id="58">5.97878e-12</wgt>
  <wgt id="59">5.99102e-12</wgt>
  <wgt id="60">6.00572e-12</wgt>
  <wgt id="61">5.97385e-12</wgt>
  <wgt id="62">5.98721e-12</wgt>
  <wgt id="63">5.99816e-12</wgt>
  <wgt id="64">6.00665e-12</wgt>
  <wgt id="65">6.01143e-12</wgt>
  <wgt id="66">5.99771e-12</wgt>
  <wgt id="67">5.97772e-12</wgt>
  <wgt id="68">6.00172e-12</wgt>
  <wgt id="69">6.00521e-12</wgt>
  <wgt id="70">6.00511e-12</wgt>
  <wgt id="71">6.00162e-12</wgt>
  <wgt id="72">5.98818e-12</wgt>
  <wgt id="73">6.01244e-12</wgt>
  <wgt id="74">6.00748e-12</wgt>
  <wgt id="75">5.99798e-12</wgt>
  <wgt id="76">6.02042e-12</wgt>
  <wgt id="77">6.00146e-12</wgt>
  <wgt id="78">6.00259e-12</wgt>
  <wgt id="79">6.01981e-12</wgt>
  <wgt id="80">5.97933e-12</wgt>
  <wgt id="81">6.00144e-12</wgt>
  <wgt id="82">6.00494e-12</wgt>
  <wgt id="83">5.98142e-12</wgt>
  <wgt id="84">5.99705e-12</wgt>
  <wgt id="85">5.98961e-12</wgt>
  <wgt id="86">6.02324e-12</wgt>
  <wgt id="87">5.97063e-12</wgt>
  <wgt id="88">6.01084e-12</wgt>
  <wgt id="89">6.00913e-12</wgt>
  <wgt id="90">6.01919e-12</wgt>
  <wgt id="91">6.01107e-12</wgt>
  <wgt id="92">6.01671e-12</wgt>
  <wgt id="93">6.00905e-12</wgt>
  <wgt id="94">5.99844e-12</wgt>
  <wgt id="95">6.01639e-12</wgt>
  <wgt id="96">6.00975e-12</wgt>
  <wgt id="97">5.99122e-12</wgt>
  <wgt id="98">6.00686e-12</wgt>
  <wgt id="99">5.99252e-12</wgt>
  <wgt id="100">6.01253e-12</wgt>
  <wgt id="101">6.00632e-12</wgt>
  <wgt id="102">6.00047e-12</wgt>
  <wgt id="103">6.0137e-12</wgt>
  <wgt id="104">6.00155e-12</wgt>
  <wgt id="105">6.0138e-12</wgt>
  <wgt id="106">5.99451e-12</wgt>
  <wgt id="107">6.0237e-12</wgt>
  <wgt id="108">5.99713e-12</wgt>
  <wgt id="109">6.00611e-12</wgt>
  <wgt id="110">6.00452e-12</wgt>
  <wgt id="111">6.05266e-12</wgt>
  <wgt id="112">6.02361e-12</wgt>
  <wgt id="113">8.14654e-12</wgt>
  <wgt id="114">8.21749e-12</wgt>
  <wgt id="115">8.08934e-12</wgt>
  <wgt id="116">1.11241e-11</wgt>
  <wgt id="117">6.64557e-12</wgt>
  <wgt id="118">6.66805e-12</wgt>
  <wgt id="119">6.63266e-12</wgt>
  <wgt id="120">6.64621e-12</wgt>
  <wgt id="121">6.6452e-12</wgt>
  <wgt id="122">6.63395e-12</wgt>
  <wgt id="123">6.66144e-12</wgt>
  <wgt id="124">6.6361e-12</wgt>
  <wgt id="125">6.65156e-12</wgt>
  <wgt id="126">6.65636e-12</wgt>
  <wgt id="127">6.63828e-12</wgt>
  <wgt id="128">6.66622e-12</wgt>
  <wgt id="129">6.62503e-12</wgt>
  <wgt id="130">6.68223e-12</wgt>
  <wgt id="131">6.60775e-12</wgt>
  <wgt id="132">6.47292e-12</wgt>
  <wgt id="133">6.84967e-12</wgt>
  <wgt id="134">6.57558e-12</wgt>
  <wgt id="135">6.70022e-12</wgt>
  <wgt id="136">6.73224e-12</wgt>
  <wgt id="137">6.54079e-12</wgt>
  <wgt id="138">6.90656e-12</wgt>
  <wgt id="139">6.39398e-12</wgt>
  <wgt id="140">6.60396e-12</wgt>
  <wgt id="141">6.67794e-12</wgt>
  <wgt id="142">6.64578e-12</wgt>
  <wgt id="143">6.65737e-12</wgt>
  <wgt id="144">6.44852e-12</wgt>
  <wgt id="145">6.8297e-12</wgt>
  <wgt id="146">6.70772e-12</wgt>
  <wgt id="147">6.596e-12</wgt>
  <wgt id="148">6.66653e-12</wgt>
  <wgt id="149">6.64408e-12</wgt>
  <wgt id="150">6.70183e-12</wgt>
  <wgt id="151">6.61921e-12</wgt>
  <wgt id="152">6.64813e-12</wgt>
  <wgt id="153">6.64466e-12</wgt>
  <wgt id="154">6.69175e-12</wgt>
  <wgt id="155">6.58762e-12</wgt>
  <wgt id="156">6.78889e-12</wgt>
  <wgt id="157">6.49849e-12</wgt>
  <wgt id="158">7.99242e-12</wgt>
  <wgt id="159">8.02574e-12</wgt>
  <wgt id="160">7.9654e-12</wgt>
  <wgt id="161">7.97289e-12</wgt>
  <wgt id="162">8.01358e-12</wgt>
  <wgt id="163">7.98351e-12</wgt>
  <wgt id="164">8.00436e-12</wgt>
  <wgt id="165">7.99516e-12</wgt>
  <wgt id="166">7.98968e-12</wgt>
  <wgt id="167">7.9865e-12</wgt>
  <wgt id="168">8.0003e-12</wgt>
  <wgt id="169">7.95805e-12</wgt>
  <wgt id="170">8.01349e-12</wgt>
  <wgt id="171">7.98411e-12</wgt>
  <wgt id="172">8.00284e-12</wgt>
  <wgt id="173">7.98864e-12</wgt>
  <wgt id="174">7.9933e-12</wgt>
  <wgt id="175">7.77061e-12</wgt>
  <wgt id="176">8.28031e-12</wgt>
  <wgt id="177">8.03246e-12</wgt>
  <wgt id="178">7.95537e-12</wgt>
  <wgt id="179">8.33332e-12</wgt>
  <wgt id="180">7.45538e-12</wgt>
  <wgt id="181">7.75814e-12</wgt>
  <wgt id="182">8.14711e-12</wgt>
  <wgt id="183">7.84944e-12</wgt>
  <wgt id="184">8.06277e-12</wgt>
  <wgt id="185">7.92275e-12</wgt>
  <wgt id="186">8.07528e-12</wgt>
  <wgt id="187">7.91702e-12</wgt>
  <wgt id="188">8.12662e-12</wgt>
  <wgt id="189">7.93934e-12</wgt>
  <wgt id="190">8.01363e-12</wgt>
  <wgt id="191">8.01489e-12</wgt>
  <wgt id="192">7.97826e-12</wgt>
  <wgt id="193">8.10655e-12</wgt>
  <wgt id="194">7.93531e-12</wgt>
  <wgt id="195">7.78943e-12</wgt>
  <wgt id="196">8.34963e-12</wgt>
  <wgt id="197">8.03202e-12</wgt>
  <wgt id="198">7.98273e-12</wgt>
  <wgt id="199">7.99242e-12</wgt>
  <wgt id="200">8.06142e-12</wgt>
  <wgt id="201">8.0364e-12</wgt>
  <wgt id="202">8.01273e-12</wgt>
  <wgt id="203">7.97645e-12</wgt>
  <wgt id="204">7.95934e-12</wgt>
  <wgt id="205">7.94486e-12</wgt>
  <wgt id="206">7.78483e-12</wgt>
  <wgt id="207">7.83053e-12</wgt>
  <wgt id="208">7.74e-12</wgt>
  <wgt id="209">7.8073e-12</wgt>
  <wgt id="210">7.76865e-12</wgt>
  <wgt id="211">7.78247e-12</wgt>
  <wgt id="212">7.78674e-12</wgt>
  <wgt id="213">7.78411e-12</wgt>
  <wgt id="214">7.78589e-12</wgt>
  <wgt id="215">7.79022e-12</wgt>
  <wgt id="216">7.781e-12</wgt>
  <wgt id="217">7.80545e-12</wgt>
  <wgt id="218">7.76909e-12</wgt>
  <wgt id="219">7.77531e-12</wgt>
  <wgt id="220">7.79068e-12</wgt>
  <wgt id="221">7.78305e-12</wgt>
  <wgt id="222">7.78849e-12</wgt>
  <wgt id="223">7.37649e-12</wgt>
  <wgt id="224">8.15726e-12</wgt>
  <wgt id="225">7.69362e-12</wgt>
  <wgt id="226">7.90003e-12</wgt>
  <wgt id="227">7.71285e-12</wgt>
  <wgt id="228">7.81662e-12</wgt>
  <wgt id="229">7.67866e-12</wgt>
  <wgt id="230">7.83765e-12</wgt>
  <wgt id="231">8.01109e-12</wgt>
  <wgt id="232">7.59878e-12</wgt>
  <wgt id="233">7.74379e-12</wgt>
  <wgt id="234">7.85063e-12</wgt>
  <wgt id="235">7.60149e-12</wgt>
  <wgt id="236">7.94934e-12</wgt>
  <wgt id="237">7.6658e-12</wgt>
  <wgt id="238">7.82523e-12</wgt>
  <wgt id="239">7.73414e-12</wgt>
  <wgt id="240">7.87656e-12</wgt>
  <wgt id="241">7.70482e-12</wgt>
  <wgt id="242">7.88082e-12</wgt>
  <wgt id="243">7.88e-12</wgt>
  <wgt id="244">7.81919e-12</wgt>
  <wgt id="245">7.77956e-12</wgt>
  <wgt id="246">7.83943e-12</wgt>
  <wgt id="247">7.78483e-12</wgt>
  <wgt id="248">7.85457e-12</wgt>
  <wgt id="249">7.82899e-12</wgt>
  <wgt id="250">7.80403e-12</wgt>
  <wgt id="251">7.76759e-12</wgt>
  <wgt id="252">7.75025e-12</wgt>
  <wgt id="253">7.7376e-12</wgt>
  <wgt id="254">7.593e-12</wgt>
  <wgt id="255">7.60008e-12</wgt>
  <wgt id="256">7.58528e-12</wgt>
  <wgt id="257">7.59887e-12</wgt>
  <wgt id="258">7.58867e-12</wgt>
  <wgt id="259">7.64348e-12</wgt>
  <wgt id="260">7.54415e-12</wgt>
  <wgt id="261">7.60276e-12</wgt>
  <wgt id="262">7.5814e-12</wgt>
  <wgt id="263">7.58925e-12</wgt>
  <wgt id="264">7.59717e-12</wgt>
  <wgt id="265">7.58455e-12</wgt>
  <wgt id="266">7.60989e-12</wgt>
  <wgt id="267">7.59537e-12</wgt>
  <wgt id="268">7.58963e-12</wgt>
  <wgt id="269">7.61594e-12</wgt>
  <wgt id="270">7.57743e-12</wgt>
  <wgt id="271">7.57828e-12</wgt>
  <wgt id="272">7.60933e-12</wgt>
  <wgt id="273">7.57104e-12</wgt>
  <wgt id="274">7.60963e-12</wgt>
  <wgt id="275">7.5594e-12</wgt>
  <wgt id="276">7.62773e-12</wgt>
  <wgt id="277">7.55013e-12</wgt>
  <wgt id="278">7.63243e-12</wgt>
  <wgt id="279">7.45338e-12</wgt>
  <wgt id="280">7.76831e-12</wgt>
  <wgt id="281">7.56071e-12</wgt>
  <wgt id="282">7.59563e-12</wgt>
  <wgt id="283">7.37634e-12</wgt>
  <wgt id="284">7.85982e-12</wgt>
  <wgt id="285">7.23253e-12</wgt>
  <wgt id="286">7.89167e-12</wgt>
  <wgt id="287">7.6169e-12</wgt>
  <wgt id="288">7.56236e-12</wgt>
  <wgt id="289">7.64628e-12</wgt>
  <wgt id="290">7.47008e-12</wgt>
  <wgt id="291">7.57119e-12</wgt>
  <wgt id="292">7.59703e-12</wgt>
  <wgt id="293">7.53468e-12</wgt>
  <wgt id="294">7.65092e-12</wgt>
  <wgt id="295">7.44989e-12</wgt>
  <wgt id="296">7.76768e-12</wgt>
  <wgt id="297">7.59037e-12</wgt>
  <wgt id="298">7.62131e-12</wgt>
  <wgt id="299">7.56921e-12</wgt>
  <wgt id="300">7.6558e-12</wgt>
  <wgt id="301">7.48825e-12</wgt>
  <wgt id="302">7.8574e-12</wgt>
  <wgt id="303">7.53442e-12</wgt>
  <wgt id="304">7.62648e-12</wgt>
  <wgt id="305">7.60174e-12</wgt>
  <wgt id="306">7.60911e-12</wgt>
  <wgt id="307">7.59349e-12</wgt>
  <wgt id="308">7.60822e-12</wgt>
  <wgt id="309">7.59726e-12</wgt>
  <wgt id="310">7.65393e-12</wgt>
  <wgt id="311">7.55314e-12</wgt>
  <wgt id="312">7.60929e-12</wgt>
  <wgt id="313">7.59362e-12</wgt>
  <wgt id="314">7.5979e-12</wgt>
  <wgt id="315">7.60505e-12</wgt>
  <wgt id="316">7.59348e-12</wgt>
  <wgt id="317">7.61938e-12</wgt>
  <wgt id="318">7.60681e-12</wgt>
  <wgt id="319">7.59241e-12</wgt>
  <wgt id="320">7.62579e-12</wgt>
  <wgt id="321">7.58813e-12</wgt>
  <wgt id="322">7.58333e-12</wgt>
  <wgt id="323">7.62279e-12</wgt>
  <wgt id="324">7.58368e-12</wgt>
  <wgt id="325">7.61712e-12</wgt>
  <wgt id="326">7.57445e-12</wgt>
  <wgt id="327">7.63641e-12</wgt>
  <wgt id="328">7.56244e-12</wgt>
  <wgt id="329">7.62387e-12</wgt>
  <wgt id="330">7.81763e-12</wgt>
  <wgt id="331">7.3955e-12</wgt>
  <wgt id="332">7.57479e-12</wgt>
  <wgt id="333">7.6026e-12</wgt>
  <wgt id="334">7.43247e-12</wgt>
  <wgt id="335">7.81192e-12</wgt>
  <wgt id="336">7.34083e-12</wgt>
  <wgt id="337">7.91934e-12</wgt>
  <wgt id="338">7.68565e-12</wgt>
  <wgt id="339">7.52375e-12</wgt>
  <wgt id="340">7.65149e-12</wgt>
  <wgt id="341">7.47389e-12</wgt>
  <wgt id="342">7.58628e-12</wgt>
  <wgt id="343">7.59352e-12</wgt>
  <wgt id="344">7.54899e-12</wgt>
  <wgt id="345">7.66262e-12</wgt>
  <wgt id="346">7.45317e-12</wgt>
  <wgt id="347">7.7722e-12</wgt>
  <wgt id="348">7.60218e-12</wgt>
  <wgt id="349">7.6251e-12</wgt>
  <wgt id="350">7.57173e-12</wgt>
  <wgt id="351">7.67739e-12</wgt>
  <wgt id="352">7.48856e-12</wgt>
  <wgt id="353">7.87394e-12</wgt>
  <wgt id="354">7.51378e-12</wgt>
  <wgt id="355">7.65532e-12</wgt>
  <wgt id="356">7.593e-12</wgt>
  <wgt id="357">7.62867e-12</wgt>
  <wgt id="358">7.60174e-12</wgt>
  <wgt id="359">7.61511e-12</wgt>
  <wgt id="360">7.65564e-12</wgt>
  <wgt id="361">7.61901e-12</wgt>
  <wgt id="362">7.75049e-12</wgt>
  <wgt id="363">7.73251e-12</wgt>
  <wgt id="364">7.70472e-12</wgt>
  <wgt id="365">7.67911e-12</wgt>
  <wgt id="366">7.65085e-12</wgt>
  <wgt id="367">7.59327e-12</wgt>
  <wgt id="368">7.56051e-12</wgt>
  <wgt id="369">7.5253e-12</wgt>
  <wgt id="370">7.61901e-12</wgt>
  <wgt id="371">7.65219e-12</wgt>
  <wgt id="372">7.6339e-12</wgt>
  <wgt id="373">7.60683e-12</wgt>
  <wgt id="374">7.60664e-12</wgt>
  <wgt id="375">8.22097e-12</wgt>
  <wgt id="376">8.22175e-12</wgt>
  <wgt id="377">8.21983e-12</wgt>
  <wgt id="378">8.25093e-12</wgt>
  <wgt id="379">8.19168e-12</wgt>
  <wgt id="380">8.2437e-12</wgt>
  <wgt id="381">8.21227e-12</wgt>
  <wgt id="382">8.26128e-12</wgt>
  <wgt id="383">8.18135e-12</wgt>
  <wgt id="384">8.22619e-12</wgt>
  <wgt id="385">8.21566e-12</wgt>
  <wgt id="386">8.25123e-12</wgt>
  <wgt id="387">8.20835e-12</wgt>
  <wgt id="388">8.21353e-12</wgt>
  <wgt id="389">8.23024e-12</wgt>
  <wgt id="390">8.24217e-12</wgt>
  <wgt id="391">8.19899e-12</wgt>
  <wgt id="392">8.15908e-12</wgt>
  <wgt id="393">8.25664e-12</wgt>
  <wgt id="394">8.23117e-12</wgt>
  <wgt id="395">8.2075e-12</wgt>
  <wgt id="396">8.22751e-12</wgt>
  <wgt id="397">8.21666e-12</wgt>
  <wgt id="398">8.19348e-12</wgt>
  <wgt id="399">8.24806e-12</wgt>
  <wgt id="400">8.20883e-12</wgt>
  <wgt id="401">8.24924e-12</wgt>
  <wgt id="402">8.15536e-12</wgt>
  <wgt id="403">8.25236e-12</wgt>
  <wgt id="404">8.41342e-12</wgt>
  <wgt id="405">7.75758e-12</wgt>
  <wgt id="406">8.08236e-12</wgt>
  <wgt id="407">8.52369e-12</wgt>
  <wgt id="408">8.29242e-12</wgt>
  <wgt id="409">8.08501e-12</wgt>
  <wgt id="410">7.99359e-12</wgt>
  <wgt id="411">8.32711e-12</wgt>
  <wgt id="412">8.20613e-12</wgt>
  <wgt id="413">8.24328e-12</wgt>
  <wgt id="414">8.13016e-12</wgt>
  <wgt id="415">8.2916e-12</wgt>
  <wgt id="416">8.44113e-12</wgt>
  <wgt id="417">7.91682e-12</wgt>
  <wgt id="418">8.23274e-12</wgt>
  <wgt id="419">8.15663e-12</wgt>
  <wgt id="420">8.34693e-12</wgt>
  <wgt id="421">8.14675e-12</wgt>
  <wgt id="422">8.20483e-12</wgt>
  <wgt id="423">8.23021e-12</wgt>
  <wgt id="424">8.39111e-12</wgt>
  <wgt id="425">8.11214e-12</wgt>
  <wgt id="426">8.22097e-12</wgt>
  <wgt id="427">8.13516e-12</wgt>
  <wgt id="428">8.45347e-12</wgt>
  <wgt id="429">8.29804e-12</wgt>
  <wgt id="430">8.53005e-12</wgt>
  <wgt id="431">8.48411e-12</wgt>
  <wgt id="432">8.44036e-12</wgt>
  <wgt id="433">8.39812e-12</wgt>
  <wgt id="434">8.34628e-12</wgt>
  <wgt id="435">8.23848e-12</wgt>
  <wgt id="436">8.18358e-12</wgt>
  <wgt id="437">8.13088e-12</wgt>
  <wgt id="438">8.29804e-12</wgt>
  <wgt id="439">8.32488e-12</wgt>
  <wgt id="440">8.30884e-12</wgt>
  <wgt id="441">8.29003e-12</wgt>
  <wgt id="442">8.28353e-12</wgt>
  <wgt id="443">7.93617e-12</wgt>
  <wgt id="444">7.98759e-12</wgt>
  <wgt id="445">7.9372e-12</wgt>
  <wgt id="446">7.88293e-12</wgt>
  <wgt id="447">7.92141e-12</wgt>
  <wgt id="448">7.73734e-12</wgt>
  <wgt id="449">8.06297e-12</wgt>
  <wgt id="450">7.94495e-12</wgt>
  <wgt id="451">7.92117e-12</wgt>
  <wgt id="452">8.10646e-12</wgt>
  <wgt id="453">8.00748e-12</wgt>
  <wgt id="454">7.60453e-12</wgt>
  <wgt id="455">7.96082e-12</wgt>
  <wgt id="456">7.92066e-12</wgt>
  <wgt id="457">7.96385e-12</wgt>
  <wgt id="458">8.03967e-12</wgt>
  <wgt id="459">7.9954e-12</wgt>
  <wgt id="460">8.01061e-12</wgt>
  <wgt id="461">7.78516e-12</wgt>
  <wgt id="462">7.88027e-12</wgt>
  <wgt id="463">7.84083e-12</wgt>
  <wgt id="464">7.89723e-12</wgt>
  <wgt id="465">8.01619e-12</wgt>
  <wgt id="466">7.8292e-12</wgt>
  <wgt id="467">7.8662e-12</wgt>
  <wgt id="468">7.91823e-12</wgt>
  <wgt id="469">7.91924e-12</wgt>
  <wgt id="470">7.85413e-12</wgt>
  <wgt id="471">7.86415e-12</wgt>
  <wgt id="472">7.97298e-12</wgt>
  <wgt id="473">7.7009e-12</wgt>
  <wgt id="474">5.79e-12</wgt>
  <wgt id="475">5.98775e-12</wgt>
  <wgt id="476">5.69712e-12</wgt>
  <wgt id="477">5.65425e-12</wgt>
  <wgt id="478">5.83719e-12</wgt>
  <wgt id="479">5.66821e-12</wgt>
  <wgt id="480">6.01977e-12</wgt>
  <wgt id="481">5.74169e-12</wgt>
  <wgt id="482">5.6711e-12</wgt>
  <wgt id="483">5.65777e-12</wgt>
  <wgt id="484">6.01705e-12</wgt>
  <wgt id="485">5.6652e-12</wgt>
  <wgt id="486">6.01508e-12</wgt>
  <wgt id="487">5.81057e-12</wgt>
  <wgt id="488">5.89529e-12</wgt>
  <wgt id="489">5.49117e-12</wgt>
  <wgt id="490">5.57838e-12</wgt>
  <wgt id="491">5.75654e-12</wgt>
  <wgt id="492">5.671e-12</wgt>
  <wgt id="493">5.54737e-12</wgt>
  <wgt id="494">5.59249e-12</wgt>
  <wgt id="495">5.82512e-12</wgt>
  <wgt id="496">5.59993e-12</wgt>
  <wgt id="497">5.54737e-12</wgt>
  <wgt id="498">5.9298e-12</wgt>
  <wgt id="499">5.71434e-12</wgt>
  <wgt id="500">5.66951e-12</wgt>
  <wgt id="501">6.0239e-12</wgt>
  <wgt id="502">5.74514e-12</wgt>
  <wgt id="503">5.78858e-12</wgt>
  <wgt id="504">5.89084e-12</wgt>
  <wgt id="505">5.74077e-12</wgt>
  <wgt id="506">5.74783e-12</wgt>
  <wgt id="507">5.78307e-12</wgt>
  <wgt id="508">5.97085e-12</wgt>
  <wgt id="509">5.46037e-12</wgt>
  <wgt id="510">5.91803e-12</wgt>
  <wgt id="511">5.61455e-12</wgt>
  <wgt id="512">5.95651e-12</wgt>
  <wgt id="513">5.9897e-12</wgt>
  <wgt id="514">5.85112e-12</wgt>
  <wgt id="515">5.77057e-12</wgt>
  <wgt id="516">6.08532e-12</wgt>
  <wgt id="517">5.92637e-12</wgt>
  <wgt id="518">5.9513e-12</wgt>
  <wgt id="519">5.6276e-12</wgt>
  <wgt id="520">5.89464e-12</wgt>
  <wgt id="521">5.92533e-12</wgt>
  <wgt id="522">6.03864e-12</wgt>
  <wgt id="523">5.75667e-12</wgt>
  <wgt id="524">5.78227e-12</wgt>
  <wgt id="525">5.93075e-12</wgt>
  <wgt id="526">5.87077e-12</wgt>
  <wgt id="527">5.83657e-12</wgt>
  <wgt id="528">5.81984e-12</wgt>
  <wgt id="529">5.70767e-12</wgt>
  <wgt id="530">5.92655e-12</wgt>
  <wgt id="531">5.68619e-12</wgt>
  <wgt id="532">6.15468e-12</wgt>
  <wgt id="533">5.54322e-12</wgt>
  <wgt id="534">5.76027e-12</wgt>
  <wgt id="535">5.8097e-12</wgt>
  <wgt id="536">5.77001e-12</wgt>
  <wgt id="537">5.75914e-12</wgt>
  <wgt id="538">5.84801e-12</wgt>
  <wgt id="539">5.68446e-12</wgt>
  <wgt id="540">5.78767e-12</wgt>
  <wgt id="541">5.63055e-12</wgt>
  <wgt id="542">5.71972e-12</wgt>
  <wgt id="543">5.75983e-12</wgt>
  <wgt id="544">6.02668e-12</wgt>
  <wgt id="545">5.66512e-12</wgt>
  <wgt id="546">5.60914e-12</wgt>
  <wgt id="547">5.64867e-12</wgt>
  <wgt id="548">5.55881e-12</wgt>
  <wgt id="549">5.69887e-12</wgt>
  <wgt id="550">5.67705e-12</wgt>
  <wgt id="551">5.87058e-12</wgt>
  <wgt id="552">5.59652e-12</wgt>
  <wgt id="553">5.71398e-12</wgt>
  <wgt id="554">6.18832e-12</wgt>
  <wgt id="555">5.95103e-12</wgt>
  <wgt id="556">5.57838e-12</wgt>
  <wgt id="557">5.93224e-12</wgt>
  <wgt id="558">5.65644e-12</wgt>
  <wgt id="559">5.66912e-12</wgt>
  <wgt id="560">6.34019e-12</wgt>
  <wgt id="561">5.73375e-12</wgt>
  <wgt id="562">5.94907e-12</wgt>
  <wgt id="563">5.8284e-12</wgt>
  <wgt id="564">5.93054e-12</wgt>
  <wgt id="565">5.67203e-12</wgt>
  <wgt id="566">5.85058e-12</wgt>
  <wgt id="567">5.74248e-12</wgt>
  <wgt id="568">5.75631e-12</wgt>
  <wgt id="569">5.876e-12</wgt>
  <wgt id="570">5.56419e-12</wgt>
  <wgt id="571">6.4016e-12</wgt>
  <wgt id="572">5.68648e-12</wgt>
  <wgt id="573">5.58855e-12</wgt>
  <wgt id="574">5.61874e-12</wgt>
  <wgt id="575">6.3718e-12</wgt>
  <wgt id="576">6.47498e-12</wgt>
  <wgt id="577">6.57255e-12</wgt>
  <wgt id="578">6.55744e-12</wgt>
  <wgt id="579">6.5355e-12</wgt>
  <wgt id="580">6.59356e-12</wgt>
  <wgt id="581">6.86377e-12</wgt>
  <wgt id="582">6.45952e-12</wgt>
  <wgt id="583">6.42891e-12</wgt>
  <wgt id="584">6.34847e-12</wgt>
  <wgt id="585">6.24209e-12</wgt>
  <wgt id="586">6.16287e-12</wgt>
  <wgt id="587">6.46923e-12</wgt>
  <wgt id="588">6.43585e-12</wgt>
  <wgt id="589">6.59537e-12</wgt>
  <wgt id="590">6.39238e-12</wgt>
  <wgt id="591">6.60288e-12</wgt>
  <wgt id="592">6.05443e-12</wgt>
  <wgt id="593">6.30603e-12</wgt>
  <wgt id="594">6.51056e-12</wgt>
  <wgt id="595">6.42144e-12</wgt>
  <wgt id="596">6.63957e-12</wgt>
  <wgt id="597">6.26867e-12</wgt>
  <wgt id="598">6.15531e-12</wgt>
  <wgt id="599">6.63546e-12</wgt>
  <wgt id="600">6.40613e-12</wgt>
  <wgt id="601">6.17995e-12</wgt>
  <wgt id="602">6.18798e-12</wgt>
  <wgt id="603">6.19441e-12</wgt>
  <wgt id="604">6.47523e-12</wgt>
  <wgt id="605">6.59263e-12</wgt>
  <wgt id="606">6.35119e-12</wgt>
  <wgt id="607">6.38637e-12</wgt>
  <wgt id="608">6.48308e-12</wgt>
  <wgt id="609">6.11686e-12</wgt>
  <wgt id="610">6.14752e-12</wgt>
  <wgt id="611">6.34608e-12</wgt>
  <wgt id="612">6.80088e-12</wgt>
  <wgt id="613">6.29904e-12</wgt>
  <wgt id="614">6.39281e-12</wgt>
  <wgt id="615">6.30793e-12</wgt>
  <wgt id="616">6.59943e-12</wgt>
  <wgt id="617">6.54516e-12</wgt>
  <wgt id="618">6.75593e-12</wgt>
  <wgt id="619">6.2975e-12</wgt>
  <wgt id="620">6.59371e-12</wgt>
  <wgt id="621">6.38107e-12</wgt>
  <wgt id="622">6.46923e-12</wgt>
  <wgt id="623">6.51942e-12</wgt>
  <wgt id="624">6.37472e-12</wgt>
  <wgt id="625">6.23882e-12</wgt>
  <wgt id="626">6.10327e-12</wgt>
  <wgt id="627">6.05934e-12</wgt>
  <wgt id="628">6.50763e-12</wgt>
  <wgt id="629">6.29657e-12</wgt>
  <wgt id="630">6.1724e-12</wgt>
  <wgt id="631">6.42128e-12</wgt>
  <wgt id="632">6.05771e-12</wgt>
  <wgt id="633">6.33194e-12</wgt>
  <wgt id="634">6.2799e-12</wgt>
  <wgt id="635">6.10622e-12</wgt>
  <wgt id="636">6.44886e-12</wgt>
  <wgt id="637">6.38731e-12</wgt>
  <wgt id="638">6.15454e-12</wgt>
  <wgt id="639">6.2629e-12</wgt>
  <wgt id="640">6.35842e-12</wgt>
  <wgt id="641">6.49913e-12</wgt>
  <wgt id="642">6.14168e-12</wgt>
  <wgt id="643">6.31879e-12</wgt>
  <wgt id="644">5.93417e-12</wgt>
  <wgt id="645">6.40308e-12</wgt>
  <wgt id="646">6.30121e-12</wgt>
  <wgt id="647">6.31414e-12</wgt>
  <wgt id="648">6.48132e-12</wgt>
  <wgt id="649">6.4294e-12</wgt>
  <wgt id="650">6.19348e-12</wgt>
  <wgt id="651">6.55902e-12</wgt>
  <wgt id="652">6.28004e-12</wgt>
  <wgt id="653">6.18058e-12</wgt>
  <wgt id="654">6.28415e-12</wgt>
  <wgt id="655">6.26468e-12</wgt>
  <wgt id="656">6.36616e-12</wgt>
  <wgt id="657">6.74546e-12</wgt>
  <wgt id="658">6.39757e-12</wgt>
  <wgt id="659">6.11446e-12</wgt>
  <wgt id="660">6.42293e-12</wgt>
  <wgt id="661">6.27709e-12</wgt>
  <wgt id="662">6.33013e-12</wgt>
  <wgt id="663">6.40507e-12</wgt>
  <wgt id="664">6.32632e-12</wgt>
  <wgt id="665">6.36439e-12</wgt>
  <wgt id="666">6.30526e-12</wgt>
  <wgt id="667">6.61682e-12</wgt>
  <wgt id="668">6.36012e-12</wgt>
  <wgt id="669">6.49886e-12</wgt>
  <wgt id="670">6.55073e-12</wgt>
  <wgt id="671">6.34469e-12</wgt>
  <wgt id="672">6.11683e-12</wgt>
  <wgt id="673">6.47952e-12</wgt>
  <wgt id="674">6.22484e-12</wgt>
  <wgt id="675">6.27516e-12</wgt>
  <wgt id="676">8.06357e-12</wgt>
  <wgt id="677">8.16406e-12</wgt>
  <wgt id="678">8.52353e-12</wgt>
  <wgt id="679">7.711e-12</wgt>
  <wgt id="680">7.94756e-12</wgt>
  <wgt id="681">8.14588e-12</wgt>
  <wgt id="682">8.31346e-12</wgt>
  <wgt id="683">7.86678e-12</wgt>
  <wgt id="684">8.40279e-12</wgt>
  <wgt id="685">7.80006e-12</wgt>
  <wgt id="686">7.87029e-12</wgt>
  <wgt id="687">8.38501e-12</wgt>
  <wgt id="688">7.93372e-12</wgt>
  <wgt id="689">8.51219e-12</wgt>
  <wgt id="690">8.38829e-12</wgt>
  <wgt id="691">8.4269e-12</wgt>
  <wgt id="692">7.97695e-12</wgt>
  <wgt id="693">9.64288e-12</wgt>
  <wgt id="694">8.61026e-12</wgt>
  <wgt id="695">7.78593e-12</wgt>
  <wgt id="696">7.76531e-12</wgt>
  <wgt id="697">7.69819e-12</wgt>
  <wgt id="698">7.25766e-12</wgt>
  <wgt id="699">7.21123e-12</wgt>
  <wgt id="700">7.11506e-12</wgt>
  <wgt id="701">8.06721e-12</wgt>
  <wgt id="702">7.8986e-12</wgt>
  <wgt id="703">9.32908e-12</wgt>
  <wgt id="704">8.87441e-12</wgt>
  <wgt id="705">8.63628e-12</wgt>
  <wgt id="706">7.62318e-12</wgt>
  <wgt id="707">7.71321e-12</wgt>
  <wgt id="708">7.9098e-12</wgt>
  <wgt id="709">7.89286e-12</wgt>
  <wgt id="710">7.33459e-12</wgt>
  <wgt id="711">8.06602e-12</wgt>
  <wgt id="712">7.81861e-12</wgt>
  <wgt id="713">8.66189e-12</wgt>
  <wgt id="714">7.77319e-12</wgt>
  <wgt id="715">7.92386e-12</wgt>
  <wgt id="716">7.78248e-12</wgt>
  <wgt id="717">7.5373e-12</wgt>
  <wgt id="718">8.1256e-12</wgt>
  <wgt id="719">7.34144e-12</wgt>
  <wgt id="720">7.77806e-12</wgt>
  <wgt id="721">7.28597e-12</wgt>
  <wgt id="722">7.03305e-12</wgt>
  <wgt id="723">8.65853e-12</wgt>
  <wgt id="724">8.49216e-12</wgt>
  <wgt id="725">8.45642e-12</wgt>
  <wgt id="726">8.09264e-12</wgt>
  <wgt id="727">7.93306e-12</wgt>
  <wgt id="728">7.85507e-12</wgt>
  <wgt id="729">7.71643e-12</wgt>
  <wgt id="730">8.65657e-12</wgt>
  <wgt id="731">7.93213e-12</wgt>
  <wgt id="732">8.94864e-12</wgt>
  <wgt id="733">7.87414e-12</wgt>
  <wgt id="734">8.25323e-12</wgt>
  <wgt id="735">8.12821e-12</wgt>
  <wgt id="736">7.80951e-12</wgt>
  <wgt id="737">8.09894e-12</wgt>
  <wgt id="738">7.72284e-12</wgt>
  <wgt id="739">8.33815e-12</wgt>
  <wgt id="740">9.02921e-12</wgt>
  <wgt id="741">7.42187e-12</wgt>
  <wgt id="742">7.96823e-12</wgt>
  <wgt id="743">7.6294e-12</wgt>
  <wgt id="744">7.89767e-12</wgt>
  <wgt id="745">8.45844e-12</wgt>
  <wgt id="746">8.62441e-12</wgt>
  <wgt id="747">7.17519e-12</wgt>
  <wgt id="748">7.94228e-12</wgt>
  <wgt id="749">8.41501e-12</wgt>
  <wgt id="750">8.43883e-12</wgt>
  <wgt id="751">8.22514e-12</wgt>
  <wgt id="752">7.39525e-12</wgt>
  <wgt id="753">7.55242e-12</wgt>
  <wgt id="754">8.36381e-12</wgt>
  <wgt id="755">8.04101e-12</wgt>
  <wgt id="756">8.01657e-12</wgt>
  <wgt id="757">7.35687e-12</wgt>
  <wgt id="758">8.03242e-12</wgt>
  <wgt id="759">8.5278e-12</wgt>
  <wgt id="760">8.05222e-12</wgt>
  <wgt id="761">8.5607e-12</wgt>
  <wgt id="762">8.5919e-12</wgt>
  <wgt id="763">8.05454e-12</wgt>
  <wgt id="764">8.40287e-12</wgt>
  <wgt id="765">8.14819e-12</wgt>
  <wgt id="766">8.06663e-12</wgt>
  <wgt id="767">8.22522e-12</wgt>
  <wgt id="768">7.55879e-12</wgt>
  <wgt id="769">8.53327e-12</wgt>
  <wgt id="770">7.89453e-12</wgt>
  <wgt id="771">9.52542e-12</wgt>
  <wgt id="772">7.69591e-12</wgt>
  <wgt id="773">8.00584e-12</wgt>
  <wgt id="774">6.95925e-12</wgt>
  <wgt id="775">8.43239e-12</wgt>
  <wgt id="776">8.77146e-12</wgt>
  <wgt id="777">7.57995e-12</wgt>
  <wgt id="778">5.84225e-12</wgt>
  <wgt id="779">4.57841e-12</wgt>
  <wgt id="780">3.55511e-12</wgt>
  <wgt id="781">6.48583e-12</wgt>
  <wgt id="782">6.37884e-12</wgt>
  <wgt id="783">4.57721e-12</wgt>
  <wgt id="784">4.92001e-12</wgt>
  <wgt id="785">7.46832e-12</wgt>
  <wgt id="786">4.34439e-12</wgt>
  <wgt id="787">6.79785e-12</wgt>
  <wgt id="788">3.20505e-12</wgt>
  <wgt id="789">4.76945e-12</wgt>
  <wgt id="790">4.25958e-12</wgt>
  <wgt id="791">5.82179e-12</wgt>
  <wgt id="792">7.76532e-12</wgt>
  <wgt id="793">5.75627e-12</wgt>
  <wgt id="794">4.18274e-12</wgt>
  <wgt id="795">7.04917e-12</wgt>
  <wgt id="796">7.71165e-12</wgt>
  <wgt id="797">7.01992e-12</wgt>
  <wgt id="798">5.15318e-12</wgt>
  <wgt id="799">6.73049e-12</wgt>
  <wgt id="800">4.82208e-12</wgt>
  <wgt id="801">5.40454e-12</wgt>
  <wgt id="802">4.16576e-12</wgt>
  <wgt id="803">8.2907e-12</wgt>
  <wgt id="804">7.01302e-12</wgt>
  <wgt id="805">7.03644e-12</wgt>
  <wgt id="806">6.40844e-12</wgt>
  <wgt id="807">5.58291e-12</wgt>
  <wgt id="808">5.61455e-12</wgt>
  <wgt id="809">5.40569e-12</wgt>
  <wgt id="810">6.49958e-12</wgt>
  <wgt id="811">6.28683e-12</wgt>
  <wgt id="812">4.24868e-12</wgt>
  <wgt id="813">4.40266e-12</wgt>
  <wgt id="814">4.72716e-12</wgt>
  <wgt id="815">4.55847e-12</wgt>
  <wgt id="816">4.22589e-12</wgt>
  <wgt id="817">6.02069e-12</wgt>
  <wgt id="818">6.21069e-12</wgt>
  <wgt id="819">4.58594e-12</wgt>
  <wgt id="820">5.76536e-12</wgt>
  <wgt id="821">6.73732e-12</wgt>
  <wgt id="822">4.75769e-12</wgt>
  <wgt id="823">6.86793e-12</wgt>
  <wgt id="824">8.07046e-12</wgt>
  <wgt id="825">4.04328e-12</wgt>
  <wgt id="826">6.39672e-12</wgt>
  <wgt id="827">3.38162e-12</wgt>
  <wgt id="828">7.46011e-12</wgt>
  <wgt id="829">6.03404e-12</wgt>
  <wgt id="830">3.83211e-12</wgt>
  <wgt id="831">6.39469e-12</wgt>
  <wgt id="832">9.68337e-12</wgt>
  <wgt id="833">5.24724e-12</wgt>
  <wgt id="834">9.22338e-12</wgt>
  <wgt id="835">4.68126e-12</wgt>
  <wgt id="836">5.52009e-12</wgt>
  <wgt id="837">6.6411e-12</wgt>
  <wgt id="838">5.33162e-12</wgt>
  <wgt id="839">6.35054e-12</wgt>
  <wgt id="840">5.33343e-12</wgt>
  <wgt id="841">7.40439e-12</wgt>
  <wgt id="842">5.4005e-12</wgt>
  <wgt id="843">5.92152e-12</wgt>
  <wgt id="844">6.15756e-12</wgt>
  <wgt id="845">8.74986e-12</wgt>
  <wgt id="846">5.94489e-12</wgt>
  <wgt id="847">5.98369e-12</wgt>
  <wgt id="848">4.7293e-12</wgt>
  <wgt id="849">6.04831e-12</wgt>
  <wgt id="850">7.84887e-12</wgt>
  <wgt id="851">6.4987e-12</wgt>
  <wgt id="852">4.52108e-12</wgt>
  <wgt id="853">6.58424e-12</wgt>
  <wgt id="854">7.307e-12</wgt>
  <wgt id="855">6.80597e-12</wgt>
  <wgt id="856">3.88904e-12</wgt>
  <wgt id="857">5.66555e-12</wgt>
  <wgt id="858">5.54989e-12</wgt>
  <wgt id="859">5.51114e-12</wgt>
  <wgt id="860">6.58451e-12</wgt>
  <wgt id="861">5.08988e-12</wgt>
  <wgt id="862">5.91331e-12</wgt>
  <wgt id="863">6.30437e-12</wgt>
  <wgt id="864">6.15261e-12</wgt>
  <wgt id="865">8.50949e-12</wgt>
  <wgt id="866">9.37943e-12</wgt>
  <wgt id="867">5.9417e-12</wgt>
  <wgt id="868">5.79247e-12</wgt>
  <wgt id="869">4.29737e-12</wgt>
  <wgt id="870">4.59337e-12</wgt>
  <wgt id="871">4.4596e-12</wgt>
  <wgt id="872">7.24303e-12</wgt>
  <wgt id="873">4.87154e-12</wgt>
  <wgt id="874">6.2184e-12</wgt>
  <wgt id="875">4.9771e-12</wgt>
  <wgt id="876">7.15408e-12</wgt>
  <wgt id="877">6.64222e-12</wgt>
  <wgt id="878">4.86294e-12</wgt>
  <wgt id="879">8.06357e-12</wgt>
  <wgt id="880">8.16406e-12</wgt>
  <wgt id="881">8.52353e-12</wgt>
  <wgt id="882">7.711e-12</wgt>
  <wgt id="883">7.94756e-12</wgt>
  <wgt id="884">8.14588e-12</wgt>
  <wgt id="885">8.31346e-12</wgt>
  <wgt id="886">7.86678e-12</wgt>
  <wgt id="887">8.40279e-12</wgt>
  <wgt id="888">7.80006e-12</wgt>
  <wgt id="889">7.87029e-12</wgt>
  <wgt id="890">8.38501e-12</wgt>
  <wgt id="891">7.93372e-12</wgt>
  <wgt id="892">8.51219e-12</wgt>
  <wgt id="893">8.38829e-12</wgt>
  <wgt id="894">8.4269e-12</wgt>
  <wgt id="895">7.97695e-12</wgt>
  <wgt id="896">9.64288e-12</wgt>
  <wgt id="897">8.61026e-12</wgt>
  <wgt id="898">7.78593e-12</wgt>
  <wgt id="899">7.76531e-12</wgt>
  <wgt id="900">7.69819e-12</wgt>
  <wgt id="901">7.25766e-12</wgt>
  <wgt id="902">7.21123e-12</wgt>
  <wgt id="903">7.11506e-12</wgt>
  <wgt id="904">8.06721e-12</wgt>
  <wgt id="905">7.8986e-12</wgt>
  <wgt id="906">9.32908e-12</wgt>
  <wgt id="907">8.87441e-12</wgt>
  <wgt id="908">8.63628e-12</wgt>
  <wgt id="909">7.62318e-12</wgt>
  <wgt id="910">7.71321e-12</wgt>
  <wgt id="911">7.9098e-12</wgt>
  <wgt id="912">7.89286e-12</wgt>
  <wgt id="913">7.33459e-12</wgt>
  <wgt id="914">8.06602e-12</wgt>
  <wgt id="915">7.81861e-12</wgt>
  <wgt id="916">8.66189e-12</wgt>
  <wgt id="917">7.77319e-12</wgt>
  <wgt id="918">7.92386e-12</wgt>
  <wgt id="919">7.78248e-12</wgt>
  <wgt id="920">7.5373e-12</wgt>
  <wgt id="921">8.1256e-12</wgt>
  <wgt id="922">7.34144e-12</wgt>
  <wgt id="923">7.77806e-12</wgt>
  <wgt id="924">7.28597e-12</wgt>
  <wgt id="925">7.03305e-12</wgt>
  <wgt id="926">8.65853e-12</wgt>
  <wgt id="927">8.49216e-12</wgt>
  <wgt id="928">8.45642e-12</wgt>
  <wgt id="929">8.09264e-12</wgt>
  <wgt id="930">7.93306e-12</wgt>
  <wgt id="931">7.85507e-12</wgt>
  <wgt id="932">7.71643e-12</wgt>
  <wgt id="933">8.65657e-12</wgt>
  <wgt id="934">7.93213e-12</wgt>
  <wgt id="935">8.94864e-12</wgt>
  <wgt id="936">7.87414e-12</wgt>
  <wgt id="937">8.25323e-12</wgt>
  <wgt id="938">8.12821e-12</wgt>
  <wgt id="939">7.80951e-12</wgt>
  <wgt id="940">8.09894e-12</wgt>
  <wgt id="941">7.72284e-12</wgt>
  <wgt id="942">8.33815e-12</wgt>
  <wgt id="943">9.02921e-12</wgt>
  <wgt id="944">7.42187e-12</wgt>
  <wgt id="945">7.96823e-12</wgt>
  <wgt id="946">7.6294e-12</wgt>
  <wgt id="947">7.89767e-12</wgt>
  <wgt id="948">8.45844e-12</wgt>
  <wgt id="949">8.62441e-12</wgt>
  <wgt id="950">7.17519e-12</wgt>
  <wgt id="951">7.94228e-12</wgt>
  <wgt id="952">8.41501e-12</wgt>
  <wgt id="953">8.43883e-12</wgt>
  <wgt id="954">8.22514e-12</wgt>
  <wgt id="955">7.39525e-12</wgt>
  <wgt id="956">7.55242e-12</wgt>
  <wgt id="957">8.36381e-12</wgt>
  <wgt id="958">8.04101e-12</wgt>
  <wgt id="959">8.01657e-12</wgt>
  <wgt id="960">7.35687e-12</wgt>
  <wgt id="961">8.03242e-12</wgt>
  <wgt id="962">8.5278e-12</wgt>
  <wgt id="963">8.05222e-12</wgt>
  <wgt id="964">8.5607e-12</wgt>
  <wgt id="965">8.5919e-12</wgt>
  <wgt id="966">8.05454e-12</wgt>
  <wgt id="967">8.40287e-12</wgt>
  <wgt id="968">8.14819e-12</wgt>
  <wgt id="969">8.06663e-12</wgt>
  <wgt id="970">8.22522e-12</wgt>
  <wgt id="971">7.55879e-12</wgt>
  <wgt id="972">8.53327e-12</wgt>
  <wgt id="973">7.89453e-12</wgt>
  <wgt id="974">9.52542e-12</wgt>
  <wgt id="975">7.69591e-12</wgt>
  <wgt id="976">8.00584e-12</wgt>
  <wgt id="977">6.95925e-12</wgt>
  <wgt id="978">8.43239e-12</wgt>
  <wgt id="979">8.77146e-12</wgt>
  <wgt id="980">8.04537e-12</wgt>
  <wgt id="981">8.12175e-12</wgt>
  <wgt id="982">7.8173e-12</wgt>
</rwgt>
</event>
<event>
 5   1  0.5790000E-11  0.2072253E+04  0.7818608E-02  0.7798766E-01
       21   -1    0    0  502  501  0.00000000000E+00  0.00000000000E+00  0.11352792368E+04  0.11352792368E+04  0.00000000000E+00 0.  1.
       21   -1    0    0  501  502 -0.00000000000E+00 -0.00000000000E+00 -0.94563375507E+03  0.94563375507E+03  0.00000000000E+00 0. -1.
       39    2    1    2    0    0  0.00000000000E+00  0.00000000000E+00  0.18964548174E+03  0.20809129919E+04  0.20722532353E+04 0.  0.
       25    1    3    3    0    0  0.47116280340E+03  0.90004405164E+03 -0.66658736958E+02  0.10257397669E+04  0.12500000000E+03 0.  0.
       25    1    3    3    0    0 -0.47116280340E+03 -0.90004405164E+03  0.25630421870E+03  0.10551732250E+04  0.12500000000E+03 0.  0.
<mgrwt>
<rscale>  0 0.20722532E+04</rscale>
<asrwt>0</asrwt>
<pdfrwt beam="1">  1       21 0.17465834E+00 0.20722532E+04</pdfrwt>
<pdfrwt beam="2">  1       21 0.14548212E+00 0.20722532E+04</pdfrwt>
<totfact> 0.28080317E+01</totfact>
</mgrwt>
<rwgt>
  <wgt id="1">5.79e-12</wgt>
  <wgt id="2">5.07156e-12</wgt>
  <wgt id="3">6.67578e-12</wgt>
  <wgt id="4">5.79e-12</wgt>
  <wgt id="5">5.07156e-12</wgt>
  <wgt id="6">6.67578e-12</wgt>
  <wgt id="7">5.79e-12</wgt>
  <wgt id="8">5.07156e-12</wgt>
  <wgt id="9">6.67578e-12</wgt>
  <wgt id="10">5.92498e-12</wgt>
  <wgt id="11">5.91934e-12</wgt>
  <wgt id="12">5.91372e-12</wgt>
  <wgt id="13">5.90496e-12</wgt>
  <wgt id="14">5.94536e-12</wgt>
  <wgt id="15">5.93298e-12</wgt>
  <wgt id="16">5.91105e-12</wgt>
  <wgt id="17">5.93478e-12</wgt>
  <wgt id="18">5.91924e-12</wgt>
  <wgt id="19">5.93614e-12</wgt>
  <wgt id="20">5.90783e-12</wgt>
  <wgt id="21">5.89604e-12</wgt>
  <wgt id="22">5.90888e-12</wgt>
  <wgt id="23">5.87713e-12</wgt>
  <wgt id="24">5.89983e-12</wgt>
  <wgt id="25">5.91005e-12</wgt>
  <wgt id="26">5.9489e-12</wgt>
  <wgt id="27">5.92391e-12</wgt>
  <wgt id="28">5.8966e-12</wgt>
  <wgt id="29">5.93183e-12</wgt>
  <wgt id="30">5.90932e-12</wgt>
  <wgt id="31">5.94038e-12</wgt>
  <wgt id="32">5.9098e-12</wgt>
  <wgt id="33">5.93601e-12</wgt>
  <wgt id="34">5.90863e-12</wgt>
  <wgt id="35">5.91459e-12</wgt>
  <wgt id="36">5.93507e-12</wgt>
  <wgt id="37">5.90994e-12</wgt>
  <wgt id="38">5.91313e-12</wgt>
  <wgt id="39">5.98497e-12</wgt>
  <wgt id="40">5.9414e-12</wgt>
  <wgt id="41">5.9233e-12</wgt>
  <wgt id="42">5.94834e-12</wgt>
  <wgt id="43">5.93347e-12</wgt>
  <wgt id="44">5.89639e-12</wgt>
  <wgt id="45">5.93082e-12</wgt>
  <wgt id="46">5.92923e-12</wgt>
  <wgt id="47">5.89765e-12</wgt>
  <wgt id="48">5.92691e-12</wgt>
  <wgt id="49">5.95556e-12</wgt>
  <wgt id="50">5.96496e-12</wgt>
  <wgt id="51">5.94746e-12</wgt>
  <wgt id="52">5.89383e-12</wgt>
  <wgt id="53">5.89749e-12</wgt>
  <wgt id="54">5.91482e-12</wgt>
  <wgt id="55">5.92263e-12</wgt>
  <wgt id="56">5.93992e-12</wgt>
  <wgt id="57">5.94517e-12</wgt>
  <wgt id="58">5.88619e-12</wgt>
  <wgt id="59">5.90732e-12</wgt>
  <wgt id="60">5.92556e-12</wgt>
  <wgt id="61">5.92593e-12</wgt>
  <wgt id="62">5.92779e-12</wgt>
  <wgt id="63">5.93481e-12</wgt>
  <wgt id="64">5.93177e-12</wgt>
  <wgt id="65">5.92872e-12</wgt>
  <wgt id="66">5.91913e-12</wgt>
  <wgt id="67">5.92266e-12</wgt>
  <wgt id="68">5.91945e-12</wgt>
  <wgt id="69">5.92179e-12</wgt>
  <wgt id="70">5.92118e-12</wgt>
  <wgt id="71">5.9197e-12</wgt>
  <wgt id="72">5.91926e-12</wgt>
  <wgt id="73">5.93015e-12</wgt>
  <wgt id="74">5.92674e-12</wgt>
  <wgt id="75">5.92776e-12</wgt>
  <wgt id="76">5.93771e-12</wgt>
  <wgt id="77">5.92401e-12</wgt>
  <wgt id="78">5.92679e-12</wgt>
  <wgt id="79">5.93304e-12</wgt>
  <wgt id="80">5.90437e-12</wgt>
  <wgt id="81">5.91843e-12</wgt>
  <wgt id="82">5.92524e-12</wgt>
  <wgt id="83">5.90819e-12</wgt>
  <wgt id="84">5.91487e-12</wgt>
  <wgt id="85">5.91843e-12</wgt>
  <wgt id="86">5.93329e-12</wgt>
  <wgt id="87">5.90432e-12</wgt>
  <wgt id="88">5.92967e-12</wgt>
  <wgt id="89">5.92917e-12</wgt>
  <wgt id="90">5.93042e-12</wgt>
  <wgt id="91">5.92822e-12</wgt>
  <wgt id="92">5.93337e-12</wgt>
  <wgt id="93">5.92459e-12</wgt>
  <wgt id="94">5.92172e-12</wgt>
  <wgt id="95">5.92779e-12</wgt>
  <wgt id="96">5.92781e-12</wgt>
  <wgt id="97">5.91927e-12</wgt>
  <wgt id="98">5.92785e-12</wgt>
  <wgt id="99">5.92254e-12</wgt>
  <wgt id="100">5.93037e-12</wgt>
  <wgt id="101">5.92428e-12</wgt>
  <wgt id="102">5.92105e-12</wgt>
  <wgt id="103">5.93067e-12</wgt>
  <wgt id="104">5.92144e-12</wgt>
  <wgt id="105">5.92899e-12</wgt>
  <wgt id="106">5.91951e-12</wgt>
  <wgt id="107">5.9372e-12</wgt>
  <wgt id="108">5.92015e-12</wgt>
  <wgt id="109">5.92781e-12</wgt>
  <wgt id="110">5.92363e-12</wgt>
  <wgt id="111">6.00382e-12</wgt>
  <wgt id="112">5.9044e-12</wgt>
  <wgt id="113">7.67551e-12</wgt>
  <wgt id="114">8.03769e-12</wgt>
  <wgt id="115">7.9301e-12</wgt>
  <wgt id="116">1.06422e-11</wgt>
  <wgt id="117">6.46804e-12</wgt>
  <wgt id="118">6.4875e-12</wgt>
  <wgt id="119">6.45711e-12</wgt>
  <wgt id="120">6.46897e-12</wgt>
  <wgt id="121">6.46758e-12</wgt>
  <wgt id="122">6.45618e-12</wgt>
  <wgt id="123">6.48449e-12</wgt>
  <wgt id="124">6.45854e-12</wgt>
  <wgt id="125">6.47435e-12</wgt>
  <wgt id="126">6.47823e-12</wgt>
  <wgt id="127">6.46141e-12</wgt>
  <wgt id="128">6.48845e-12</wgt>
  <wgt id="129">6.4479e-12</wgt>
  <wgt id="130">6.50502e-12</wgt>
  <wgt id="131">6.43024e-12</wgt>
  <wgt id="132">6.30984e-12</wgt>
  <wgt id="133">6.65374e-12</wgt>
  <wgt id="134">6.40399e-12</wgt>
  <wgt id="135">6.51792e-12</wgt>
  <wgt id="136">6.54179e-12</wgt>
  <wgt id="137">6.37874e-12</wgt>
  <wgt id="138">6.69231e-12</wgt>
  <wgt id="139">6.24928e-12</wgt>
  <wgt id="140">6.42268e-12</wgt>
  <wgt id="141">6.50387e-12</wgt>
  <wgt id="142">6.46931e-12</wgt>
  <wgt id="143">6.47438e-12</wgt>
  <wgt id="144">6.33118e-12</wgt>
  <wgt id="145">6.59166e-12</wgt>
  <wgt id="146">6.51118e-12</wgt>
  <wgt id="147">6.435e-12</wgt>
  <wgt id="148">6.4854e-12</wgt>
  <wgt id="149">6.46691e-12</wgt>
  <wgt id="150">6.52133e-12</wgt>
  <wgt id="151">6.44328e-12</wgt>
  <wgt id="152">6.47036e-12</wgt>
  <wgt id="153">6.46725e-12</wgt>
  <wgt id="154">6.53005e-12</wgt>
  <wgt id="155">6.39653e-12</wgt>
  <wgt id="156">6.55531e-12</wgt>
  <wgt id="157">6.3638e-12</wgt>
  <wgt id="158">7.78704e-12</wgt>
  <wgt id="159">7.81905e-12</wgt>
  <wgt id="160">7.76106e-12</wgt>
  <wgt id="161">7.76967e-12</wgt>
  <wgt id="162">7.80624e-12</wgt>
  <wgt id="163">7.77967e-12</wgt>
  <wgt id="164">7.79815e-12</wgt>
  <wgt id="165">7.79025e-12</wgt>
  <wgt id="166">7.78477e-12</wgt>
  <wgt id="167">7.78131e-12</wgt>
  <wgt id="168">7.79518e-12</wgt>
  <wgt id="169">7.75325e-12</wgt>
  <wgt id="170">7.80811e-12</wgt>
  <wgt id="171">7.77935e-12</wgt>
  <wgt id="172">7.79792e-12</wgt>
  <wgt id="173">7.78988e-12</wgt>
  <wgt id="174">7.78573e-12</wgt>
  <wgt id="175">7.5843e-12</wgt>
  <wgt id="176">8.04969e-12</wgt>
  <wgt id="177">7.82419e-12</wgt>
  <wgt id="178">7.75238e-12</wgt>
  <wgt id="179">8.07373e-12</wgt>
  <wgt id="180">7.33007e-12</wgt>
  <wgt id="181">7.58437e-12</wgt>
  <wgt id="182">7.92025e-12</wgt>
  <wgt id="183">7.66265e-12</wgt>
  <wgt id="184">7.84872e-12</wgt>
  <wgt id="185">7.73073e-12</wgt>
  <wgt id="186">7.85197e-12</wgt>
  <wgt id="187">7.72265e-12</wgt>
  <wgt id="188">7.90293e-12</wgt>
  <wgt id="189">7.74346e-12</wgt>
  <wgt id="190">7.80484e-12</wgt>
  <wgt id="191">7.80543e-12</wgt>
  <wgt id="192">7.77621e-12</wgt>
  <wgt id="193">7.88375e-12</wgt>
  <wgt id="194">7.73913e-12</wgt>
  <wgt id="195">7.65514e-12</wgt>
  <wgt id="196">8.05241e-12</wgt>
  <wgt id="197">7.82207e-12</wgt>
  <wgt id="198">7.77865e-12</wgt>
  <wgt id="199">7.78704e-12</wgt>
  <wgt id="200">7.84798e-12</wgt>
  <wgt id="201">7.82497e-12</wgt>
  <wgt id="202">7.80316e-12</wgt>
  <wgt id="203">7.76942e-12</wgt>
  <wgt id="204">7.75375e-12</wgt>
  <wgt id="205">7.7405e-12</wgt>
  <wgt id="206">7.60343e-12</wgt>
  <wgt id="207">7.64687e-12</wgt>
  <wgt id="208">7.56049e-12</wgt>
  <wgt id="209">7.62225e-12</wgt>
  <wgt id="210">7.58966e-12</wgt>
  <wgt id="211">7.60154e-12</wgt>
  <wgt id="212">7.60485e-12</wgt>
  <wgt id="213">7.60265e-12</wgt>
  <wgt id="214">7.60444e-12</wgt>
  <wgt id="215">7.60798e-12</wgt>
  <wgt id="216">7.60027e-12</wgt>
  <wgt id="217">7.62378e-12</wgt>
  <wgt id="218">7.58791e-12</wgt>
  <wgt id="219">7.59268e-12</wgt>
  <wgt id="220">7.60986e-12</wgt>
  <wgt id="221">7.59939e-12</wgt>
  <wgt id="222">7.61314e-12</wgt>
  <wgt id="223">7.23313e-12</wgt>
  <wgt id="224">7.93887e-12</wgt>
  <wgt id="225">7.52193e-12</wgt>
  <wgt id="226">7.70529e-12</wgt>
  <wgt id="227">7.53722e-12</wgt>
  <wgt id="228">7.63246e-12</wgt>
  <wgt id="229">7.50527e-12</wgt>
  <wgt id="230">7.65212e-12</wgt>
  <wgt id="231">7.79967e-12</wgt>
  <wgt id="232">7.4414e-12</wgt>
  <wgt id="233">7.56836e-12</wgt>
  <wgt id="234">7.65538e-12</wgt>
  <wgt id="235">7.5078e-12</wgt>
  <wgt id="236">7.70773e-12</wgt>
  <wgt id="237">7.52822e-12</wgt>
  <wgt id="238">7.62963e-12</wgt>
  <wgt id="239">7.56903e-12</wgt>
  <wgt id="240">7.66663e-12</wgt>
  <wgt id="241">7.53559e-12</wgt>
  <wgt id="242">7.68489e-12</wgt>
  <wgt id="243">7.66115e-12</wgt>
  <wgt id="244">7.6621e-12</wgt>
  <wgt id="245">7.59621e-12</wgt>
  <wgt id="246">7.66535e-12</wgt>
  <wgt id="247">7.60343e-12</wgt>
  <wgt id="248">7.66338e-12</wgt>
  <wgt id="249">7.63994e-12</wgt>
  <wgt id="250">7.61851e-12</wgt>
  <wgt id="251">7.58564e-12</wgt>
  <wgt id="252">7.57045e-12</wgt>
  <wgt id="253">7.559e-12</wgt>
  <wgt id="254">7.45208e-12</wgt>
  <wgt id="255">7.45947e-12</wgt>
  <wgt id="256">7.44447e-12</wgt>
  <wgt id="257">7.4582e-12</wgt>
  <wgt id="258">7.4477e-12</wgt>
  <wgt id="259">7.50151e-12</wgt>
  <wgt id="260">7.40462e-12</wgt>
  <wgt id="261">7.45879e-12</wgt>
  <wgt id="262">7.44451e-12</wgt>
  <wgt id="263">7.45005e-12</wgt>
  <wgt id="264">7.45462e-12</wgt>
  <wgt id="265">7.44506e-12</wgt>
  <wgt id="266">7.46618e-12</wgt>
  <wgt id="267">7.45435e-12</wgt>
  <wgt id="268">7.44936e-12</wgt>
  <wgt id="269">7.47258e-12</wgt>
  <wgt id="270">7.43834e-12</wgt>
  <wgt id="271">7.4406e-12</wgt>
  <wgt id="272">7.46523e-12</wgt>
  <wgt id="273">7.43071e-12</wgt>
  <wgt id="274">7.46873e-12</wgt>
  <wgt id="275">7.42696e-12</wgt>
  <wgt id="276">7.47811e-12</wgt>
  <wgt id="277">7.41306e-12</wgt>
  <wgt id="278">7.48833e-12</wgt>
  <wgt id="279">7.32153e-12</wgt>
  <wgt id="280">7.6154e-12</wgt>
  <wgt id="281">7.42365e-12</wgt>
  <wgt id="282">7.45182e-12</wgt>
  <wgt id="283">7.26352e-12</wgt>
  <wgt id="284">7.68301e-12</wgt>
  <wgt id="285">7.13588e-12</wgt>
  <wgt id="286">7.71056e-12</wgt>
  <wgt id="287">7.47294e-12</wgt>
  <wgt id="288">7.42549e-12</wgt>
  <wgt id="289">7.49798e-12</wgt>
  <wgt id="290">7.34227e-12</wgt>
  <wgt id="291">7.43695e-12</wgt>
  <wgt id="292">7.45609e-12</wgt>
  <wgt id="293">7.4018e-12</wgt>
  <wgt id="294">7.50216e-12</wgt>
  <wgt id="295">7.32612e-12</wgt>
  <wgt id="296">7.60549e-12</wgt>
  <wgt id="297">7.45922e-12</wgt>
  <wgt id="298">7.47156e-12</wgt>
  <wgt id="299">7.43123e-12</wgt>
  <wgt id="300">7.50723e-12</wgt>
  <wgt id="301">7.38861e-12</wgt>
  <wgt id="302">7.64244e-12</wgt>
  <wgt id="303">7.41333e-12</wgt>
  <wgt id="304">7.47541e-12</wgt>
  <wgt id="305">7.50407e-12</wgt>
  <wgt id="306">7.51172e-12</wgt>
  <wgt id="307">7.49605e-12</wgt>
  <wgt id="308">7.51091e-12</wgt>
  <wgt id="309">7.49953e-12</wgt>
  <wgt id="310">7.55552e-12</wgt>
  <wgt id="311">7.45645e-12</wgt>
  <wgt id="312">7.50807e-12</wgt>
  <wgt id="313">7.5005e-12</wgt>
  <wgt id="314">7.50204e-12</wgt>
  <wgt id="315">7.5061e-12</wgt>
  <wgt id="316">7.4975e-12</wgt>
  <wgt id="317">7.51866e-12</wgt>
  <wgt id="318">7.50861e-12</wgt>
  <wgt id="319">7.49643e-12</wgt>
  <wgt id="320">7.52524e-12</wgt>
  <wgt id="321">7.49228e-12</wgt>
  <wgt id="322">7.48812e-12</wgt>
  <wgt id="323">7.52278e-12</wgt>
  <wgt id="324">7.48607e-12</wgt>
  <wgt id="325">7.51983e-12</wgt>
  <wgt id="326">7.48375e-12</wgt>
  <wgt id="327">7.53004e-12</wgt>
  <wgt id="328">7.46786e-12</wgt>
  <wgt id="329">7.52501e-12</wgt>
  <wgt id="330">7.70913e-12</wgt>
  <wgt id="331">7.30772e-12</wgt>
  <wgt id="332">7.48061e-12</wgt>
  <wgt id="333">7.5029e-12</wgt>
  <wgt id="334">7.35434e-12</wgt>
  <wgt id="335">7.68885e-12</wgt>
  <wgt id="336">7.27268e-12</wgt>
  <wgt id="337">7.78255e-12</wgt>
  <wgt id="338">7.5782e-12</wgt>
  <wgt id="339">7.43515e-12</wgt>
  <wgt id="340">7.54828e-12</wgt>
  <wgt id="341">7.38791e-12</wgt>
  <wgt id="342">7.49425e-12</wgt>
  <wgt id="343">7.49818e-12</wgt>
  <wgt id="344">7.45766e-12</wgt>
  <wgt id="345">7.55793e-12</wgt>
  <wgt id="346">7.37247e-12</wgt>
  <wgt id="347">7.65559e-12</wgt>
  <wgt id="348">7.5156e-12</wgt>
  <wgt id="349">7.51793e-12</wgt>
  <wgt id="350">7.47742e-12</wgt>
  <wgt id="351">7.57192e-12</wgt>
  <wgt id="352">7.43147e-12</wgt>
  <wgt id="353">7.70914e-12</wgt>
  <wgt id="354">7.44313e-12</wgt>
  <wgt id="355">7.54309e-12</wgt>
  <wgt id="356">7.45208e-12</wgt>
  <wgt id="357">7.54307e-12</wgt>
  <wgt id="358">7.50407e-12</wgt>
  <wgt id="359">7.48653e-12</wgt>
  <wgt id="360">7.47358e-12</wgt>
  <wgt id="361">7.46919e-12</wgt>
  <wgt id="362">7.58271e-12</wgt>
  <wgt id="363">7.56656e-12</wgt>
  <wgt id="364">7.546e-12</wgt>
  <wgt id="365">7.52366e-12</wgt>
  <wgt id="366">7.49779e-12</wgt>
  <wgt id="367">7.44282e-12</wgt>
  <wgt id="368">7.41346e-12</wgt>
  <wgt id="369">7.38194e-12</wgt>
  <wgt id="370">7.46919e-12</wgt>
  <wgt id="371">7.50197e-12</wgt>
  <wgt id="372">7.484e-12</wgt>
  <wgt id="373">7.45696e-12</wgt>
  <wgt id="374">7.45139e-12</wgt>
  <wgt id="375">7.82116e-12</wgt>
  <wgt id="376">7.82202e-12</wgt>
  <wgt id="377">7.82002e-12</wgt>
  <wgt id="378">7.84884e-12</wgt>
  <wgt id="379">7.79373e-12</wgt>
  <wgt id="380">7.84262e-12</wgt>
  <wgt id="381">7.81254e-12</wgt>
  <wgt id="382">7.85737e-12</wgt>
  <wgt id="383">7.78525e-12</wgt>
  <wgt id="384">7.82624e-12</wgt>
  <wgt id="385">7.8163e-12</wgt>
  <wgt id="386">7.84897e-12</wgt>
  <wgt id="387">7.80909e-12</wgt>
  <wgt id="388">7.81446e-12</wgt>
  <wgt id="389">7.8293e-12</wgt>
  <wgt id="390">7.84051e-12</wgt>
  <wgt id="391">7.80066e-12</wgt>
  <wgt id="392">7.77268e-12</wgt>
  <wgt id="393">7.84846e-12</wgt>
  <wgt id="394">7.83238e-12</wgt>
  <wgt id="395">7.80549e-12</wgt>
  <wgt id="396">7.8211e-12</wgt>
  <wgt id="397">7.82099e-12</wgt>
  <wgt id="398">7.79087e-12</wgt>
  <wgt id="399">7.85033e-12</wgt>
  <wgt id="400">7.80978e-12</wgt>
  <wgt id="401">7.84628e-12</wgt>
  <wgt id="402">7.76606e-12</wgt>
  <wgt id="403">7.84155e-12</wgt>
  <wgt id="404">7.97571e-12</wgt>
  <wgt id="405">7.44569e-12</wgt>
  <wgt id="406">7.70942e-12</wgt>
  <wgt id="407">8.06062e-12</wgt>
  <wgt id="408">7.87834e-12</wgt>
  <wgt id="409">7.71013e-12</wgt>
  <wgt id="410">7.63609e-12</wgt>
  <wgt id="411">7.90467e-12</wgt>
  <wgt id="412">7.80958e-12</wgt>
  <wgt id="413">7.8362e-12</wgt>
  <wgt id="414">7.74748e-12</wgt>
  <wgt id="415">7.87832e-12</wgt>
  <wgt id="416">7.98866e-12</wgt>
  <wgt id="417">7.58883e-12</wgt>
  <wgt id="418">7.82983e-12</wgt>
  <wgt id="419">7.77404e-12</wgt>
  <wgt id="420">7.89031e-12</wgt>
  <wgt id="421">7.79035e-12</wgt>
  <wgt id="422">7.8262e-12</wgt>
  <wgt id="423">7.82115e-12</wgt>
  <wgt id="424">7.93303e-12</wgt>
  <wgt id="425">7.75558e-12</wgt>
  <wgt id="426">7.82116e-12</wgt>
  <wgt id="427">7.77943e-12</wgt>
  <wgt id="428">7.96157e-12</wgt>
  <wgt id="429">7.87244e-12</wgt>
  <wgt id="430">8.06631e-12</wgt>
  <wgt id="431">8.02805e-12</wgt>
  <wgt id="432">7.99107e-12</wgt>
  <wgt id="433">7.95515e-12</wgt>
  <wgt id="434">7.91299e-12</wgt>
  <wgt id="435">7.8216e-12</wgt>
  <wgt id="436">7.77389e-12</wgt>
  <wgt id="437">7.7293e-12</wgt>
  <wgt id="438">7.87244e-12</wgt>
  <wgt id="439">7.89823e-12</wgt>
  <wgt id="440">7.8834e-12</wgt>
  <wgt id="441">7.864e-12</wgt>
  <wgt id="442">7.85678e-12</wgt>
  <wgt id="443">7.7485e-12</wgt>
  <wgt id="444">7.77675e-12</wgt>
  <wgt id="445">7.72137e-12</wgt>
  <wgt id="446">7.70432e-12</wgt>
  <wgt id="447">7.72345e-12</wgt>
  <wgt id="448">7.56905e-12</wgt>
  <wgt id="449">7.85008e-12</wgt>
  <wgt id="450">7.71301e-12</wgt>
  <wgt id="451">7.73932e-12</wgt>
  <wgt id="452">7.89328e-12</wgt>
  <wgt id="453">7.79968e-12</wgt>
  <wgt id="454">7.46988e-12</wgt>
  <wgt id="455">7.75671e-12</wgt>
  <wgt id="456">7.61418e-12</wgt>
  <wgt id="457">7.77279e-12</wgt>
  <wgt id="458">7.82364e-12</wgt>
  <wgt id="459">7.79202e-12</wgt>
  <wgt id="460">7.78669e-12</wgt>
  <wgt id="461">7.64035e-12</wgt>
  <wgt id="462">7.70148e-12</wgt>
  <wgt id="463">7.68224e-12</wgt>
  <wgt id="464">7.71754e-12</wgt>
  <wgt id="465">7.80924e-12</wgt>
  <wgt id="466">7.68101e-12</wgt>
  <wgt id="467">7.69087e-12</wgt>
  <wgt id="468">7.73197e-12</wgt>
  <wgt id="469">7.73394e-12</wgt>
  <wgt id="470">7.69091e-12</wgt>
  <wgt id="471">7.69747e-12</wgt>
  <wgt id="472">7.775e-12</wgt>
  <wgt id="473">7.55851e-12</wgt>
  <wgt id="474">5.79e-12</wgt>
  <wgt id="475">6.15594e-12</wgt>
  <wgt id="476">5.68933e-12</wgt>
  <wgt id="477">5.73645e-12</wgt>
  <wgt id="478">5.8253e-12</wgt>
  <wgt id="479">5.74471e-12</wgt>
  <wgt id="480">5.94085e-12</wgt>
  <wgt id="481">5.62861e-12</wgt>
  <wgt id="482">5.5484e-12</wgt>
  <wgt id="483">5.64802e-12</wgt>
  <wgt id="484">6.21961e-12</wgt>
  <wgt id="485">5.82022e-12</wgt>
  <wgt id="486">5.84469e-12</wgt>
  <wgt id="487">5.85282e-12</wgt>
  <wgt id="488">5.84809e-12</wgt>
  <wgt id="489">5.57713e-12</wgt>
  <wgt id="490">5.63311e-12</wgt>
  <wgt id="491">5.72972e-12</wgt>
  <wgt id="492">5.61102e-12</wgt>
  <wgt id="493">5.60832e-12</wgt>
  <wgt id="494">5.62123e-12</wgt>
  <wgt id="495">5.87351e-12</wgt>
  <wgt id="496">5.59146e-12</wgt>
  <wgt id="497">5.60215e-12</wgt>
  <wgt id="498">5.84505e-12</wgt>
  <wgt id="499">5.6417e-12</wgt>
  <wgt id="500">5.68265e-12</wgt>
  <wgt id="501">6.01858e-12</wgt>
  <wgt id="502">5.6248e-12</wgt>
  <wgt id="503">5.76107e-12</wgt>
  <wgt id="504">5.76619e-12</wgt>
  <wgt id="505">5.93429e-12</wgt>
  <wgt id="506">5.8281e-12</wgt>
  <wgt id="507">5.71698e-12</wgt>
  <wgt id="508">5.8863e-12</wgt>
  <wgt id="509">5.81227e-12</wgt>
  <wgt id="510">5.9054e-12</wgt>
  <wgt id="511">5.66234e-12</wgt>
  <wgt id="512">5.84055e-12</wgt>
  <wgt id="513">5.9588e-12</wgt>
  <wgt id="514">5.7389e-12</wgt>
  <wgt id="515">5.72379e-12</wgt>
  <wgt id="516">5.92971e-12</wgt>
  <wgt id="517">5.92253e-12</wgt>
  <wgt id="518">5.94969e-12</wgt>
  <wgt id="519">5.67981e-12</wgt>
  <wgt id="520">5.79539e-12</wgt>
  <wgt id="521">6.00434e-12</wgt>
  <wgt id="522">5.99841e-12</wgt>
  <wgt id="523">5.89131e-12</wgt>
  <wgt id="524">5.9168e-12</wgt>
  <wgt id="525">5.90249e-12</wgt>
  <wgt id="526">5.76384e-12</wgt>
  <wgt id="527">5.90726e-12</wgt>
  <wgt id="528">5.763e-12</wgt>
  <wgt id="529">5.73909e-12</wgt>
  <wgt id="530">5.80391e-12</wgt>
  <wgt id="531">5.70749e-12</wgt>
  <wgt id="532">6.06931e-12</wgt>
  <wgt id="533">5.44635e-12</wgt>
  <wgt id="534">5.78395e-12</wgt>
  <wgt id="535">5.87099e-12</wgt>
  <wgt id="536">5.82198e-12</wgt>
  <wgt id="537">5.80917e-12</wgt>
  <wgt id="538">5.90701e-12</wgt>
  <wgt id="539">5.64583e-12</wgt>
  <wgt id="540">5.7683e-12</wgt>
  <wgt id="541">5.73907e-12</wgt>
  <wgt id="542">5.64441e-12</wgt>
  <wgt id="543">5.77793e-12</wgt>
  <wgt id="544">6.06344e-12</wgt>
  <wgt id="545">5.71204e-12</wgt>
  <wgt id="546">5.74151e-12</wgt>
  <wgt id="547">5.62332e-12</wgt>
  <wgt id="548">5.55748e-12</wgt>
  <wgt id="549">5.7121e-12</wgt>
  <wgt id="550">5.85781e-12</wgt>
  <wgt id="551">5.86686e-12</wgt>
  <wgt id="552">5.73549e-12</wgt>
  <wgt id="553">5.77711e-12</wgt>
  <wgt id="554">6.22194e-12</wgt>
  <wgt id="555">5.95875e-12</wgt>
  <wgt id="556">5.63311e-12</wgt>
  <wgt id="557">5.8683e-12</wgt>
  <wgt id="558">5.60335e-12</wgt>
  <wgt id="559">5.72775e-12</wgt>
  <wgt id="560">6.22283e-12</wgt>
  <wgt id="561">5.6427e-12</wgt>
  <wgt id="562">5.84985e-12</wgt>
  <wgt id="563">5.66692e-12</wgt>
  <wgt id="564">5.78103e-12</wgt>
  <wgt id="565">5.63189e-12</wgt>
  <wgt id="566">5.82424e-12</wgt>
  <wgt id="567">5.69658e-12</wgt>
  <wgt id="568">5.80949e-12</wgt>
  <wgt id="569">5.79751e-12</wgt>
  <wgt id="570">5.68681e-12</wgt>
  <wgt id="571">6.38534e-12</wgt>
  <wgt id="572">5.67018e-12</wgt>
  <wgt id="573">5.53423e-12</wgt>
  <wgt id="574">5.59196e-12</wgt>
  <wgt id="575">6.31621e-12</wgt>
  <wgt id="576">6.18861e-12</wgt>
  <wgt id="577">6.57236e-12</wgt>
  <wgt id="578">6.39676e-12</wgt>
  <wgt id="579">6.34457e-12</wgt>
  <wgt id="580">6.39141e-12</wgt>
  <wgt id="581">6.65942e-12</wgt>
  <wgt id="582">6.16769e-12</wgt>
  <wgt id="583">6.36916e-12</wgt>
  <wgt id="584">6.3177e-12</wgt>
  <wgt id="585">6.36279e-12</wgt>
  <wgt id="586">6.17068e-12</wgt>
  <wgt id="587">6.37134e-12</wgt>
  <wgt id="588">6.27275e-12</wgt>
  <wgt id="589">6.35359e-12</wgt>
  <wgt id="590">6.40589e-12</wgt>
  <wgt id="591">6.57237e-12</wgt>
  <wgt id="592">6.21899e-12</wgt>
  <wgt id="593">6.2825e-12</wgt>
  <wgt id="594">6.61171e-12</wgt>
  <wgt id="595">6.26e-12</wgt>
  <wgt id="596">6.43313e-12</wgt>
  <wgt id="597">6.06265e-12</wgt>
  <wgt id="598">6.33189e-12</wgt>
  <wgt id="599">6.61304e-12</wgt>
  <wgt id="600">6.25914e-12</wgt>
  <wgt id="601">6.13507e-12</wgt>
  <wgt id="602">6.21645e-12</wgt>
  <wgt id="603">6.25792e-12</wgt>
  <wgt id="604">6.38759e-12</wgt>
  <wgt id="605">6.56833e-12</wgt>
  <wgt id="606">6.15095e-12</wgt>
  <wgt id="607">6.22359e-12</wgt>
  <wgt id="608">6.25203e-12</wgt>
  <wgt id="609">5.93322e-12</wgt>
  <wgt id="610">6.06835e-12</wgt>
  <wgt id="611">6.44269e-12</wgt>
  <wgt id="612">6.81063e-12</wgt>
  <wgt id="613">6.3367e-12</wgt>
  <wgt id="614">6.38682e-12</wgt>
  <wgt id="615">6.19326e-12</wgt>
  <wgt id="616">6.76384e-12</wgt>
  <wgt id="617">6.5202e-12</wgt>
  <wgt id="618">6.23815e-12</wgt>
  <wgt id="619">6.30805e-12</wgt>
  <wgt id="620">6.48358e-12</wgt>
  <wgt id="621">6.40997e-12</wgt>
  <wgt id="622">6.37134e-12</wgt>
  <wgt id="623">6.45887e-12</wgt>
  <wgt id="624">6.26309e-12</wgt>
  <wgt id="625">6.24459e-12</wgt>
  <wgt id="626">6.19595e-12</wgt>
  <wgt id="627">6.11338e-12</wgt>
  <wgt id="628">6.62779e-12</wgt>
  <wgt id="629">6.19258e-12</wgt>
  <wgt id="630">6.19832e-12</wgt>
  <wgt id="631">6.29783e-12</wgt>
  <wgt id="632">6.16787e-12</wgt>
  <wgt id="633">6.2302e-12</wgt>
  <wgt id="634">6.37879e-12</wgt>
  <wgt id="635">6.31146e-12</wgt>
  <wgt id="636">6.35466e-12</wgt>
  <wgt id="637">6.36487e-12</wgt>
  <wgt id="638">6.11718e-12</wgt>
  <wgt id="639">6.26235e-12</wgt>
  <wgt id="640">6.3378e-12</wgt>
  <wgt id="641">6.31014e-12</wgt>
  <wgt id="642">6.3266e-12</wgt>
  <wgt id="643">6.30501e-12</wgt>
  <wgt id="644">6.13519e-12</wgt>
  <wgt id="645">6.33757e-12</wgt>
  <wgt id="646">6.46428e-12</wgt>
  <wgt id="647">6.19829e-12</wgt>
  <wgt id="648">6.33482e-12</wgt>
  <wgt id="649">6.40869e-12</wgt>
  <wgt id="650">6.20575e-12</wgt>
  <wgt id="651">6.40888e-12</wgt>
  <wgt id="652">6.3283e-12</wgt>
  <wgt id="653">6.16451e-12</wgt>
  <wgt id="654">6.29847e-12</wgt>
  <wgt id="655">6.15946e-12</wgt>
  <wgt id="656">6.27496e-12</wgt>
  <wgt id="657">6.39763e-12</wgt>
  <wgt id="658">6.47587e-12</wgt>
  <wgt id="659">6.10729e-12</wgt>
  <wgt id="660">6.42794e-12</wgt>
  <wgt id="661">6.23424e-12</wgt>
  <wgt id="662">6.27049e-12</wgt>
  <wgt id="663">6.28535e-12</wgt>
  <wgt id="664">6.20911e-12</wgt>
  <wgt id="665">6.28994e-12</wgt>
  <wgt id="666">6.32416e-12</wgt>
  <wgt id="667">6.51046e-12</wgt>
  <wgt id="668">6.26803e-12</wgt>
  <wgt id="669">6.47211e-12</wgt>
  <wgt id="670">6.35722e-12</wgt>
  <wgt id="671">6.18827e-12</wgt>
  <wgt id="672">6.05449e-12</wgt>
  <wgt id="673">6.27005e-12</wgt>
  <wgt id="674">6.18309e-12</wgt>
  <wgt id="675">6.15302e-12</wgt>
  <wgt id="676">7.76938e-12</wgt>
  <wgt id="677">7.89084e-12</wgt>
  <wgt id="678">8.10372e-12</wgt>
  <wgt id="679">7.48229e-12</wgt>
  <wgt id="680">7.45624e-12</wgt>
  <wgt id="681">8.02262e-12</wgt>
  <wgt id="682">7.81711e-12</wgt>
  <wgt id="683">7.73271e-12</wgt>
  <wgt id="684">8.08754e-12</wgt>
  <wgt id="685">7.37596e-12</wgt>
  <wgt id="686">7.90442e-12</wgt>
  <wgt id="687">8.07566e-12</wgt>
  <wgt id="688">7.71491e-12</wgt>
  <wgt id="689">8.25092e-12</wgt>
  <wgt id="690">8.22251e-12</wgt>
  <wgt id="691">8.13706e-12</wgt>
  <wgt id="692">7.77792e-12</wgt>
  <wgt id="693">8.80996e-12</wgt>
  <wgt id="694">8.18198e-12</wgt>
  <wgt id="695">7.51282e-12</wgt>
  <wgt id="696">7.445e-12</wgt>
  <wgt id="697">7.51123e-12</wgt>
  <wgt id="698">7.39935e-12</wgt>
  <wgt id="699">7.28952e-12</wgt>
  <wgt id="700">7.02e-12</wgt>
  <wgt id="701">7.77755e-12</wgt>
  <wgt id="702">7.40506e-12</wgt>
  <wgt id="703">8.69589e-12</wgt>
  <wgt id="704">8.25447e-12</wgt>
  <wgt id="705">8.01993e-12</wgt>
  <wgt id="706">7.27967e-12</wgt>
  <wgt id="707">7.4942e-12</wgt>
  <wgt id="708">7.68629e-12</wgt>
  <wgt id="709">7.65043e-12</wgt>
  <wgt id="710">6.99776e-12</wgt>
  <wgt id="711">7.78907e-12</wgt>
  <wgt id="712">7.6925e-12</wgt>
  <wgt id="713">8.21439e-12</wgt>
  <wgt id="714">7.7889e-12</wgt>
  <wgt id="715">7.68979e-12</wgt>
  <wgt id="716">7.51e-12</wgt>
  <wgt id="717">7.51062e-12</wgt>
  <wgt id="718">7.5768e-12</wgt>
  <wgt id="719">7.17104e-12</wgt>
  <wgt id="720">7.41879e-12</wgt>
  <wgt id="721">7.51552e-12</wgt>
  <wgt id="722">7.14215e-12</wgt>
  <wgt id="723">8.1486e-12</wgt>
  <wgt id="724">8.03055e-12</wgt>
  <wgt id="725">8.20668e-12</wgt>
  <wgt id="726">7.86094e-12</wgt>
  <wgt id="727">7.60194e-12</wgt>
  <wgt id="728">7.75389e-12</wgt>
  <wgt id="729">7.08868e-12</wgt>
  <wgt id="730">8.15414e-12</wgt>
  <wgt id="731">7.71016e-12</wgt>
  <wgt id="732">8.40348e-12</wgt>
  <wgt id="733">7.76104e-12</wgt>
  <wgt id="734">7.93977e-12</wgt>
  <wgt id="735">7.72735e-12</wgt>
  <wgt id="736">7.70251e-12</wgt>
  <wgt id="737">7.89178e-12</wgt>
  <wgt id="738">7.54666e-12</wgt>
  <wgt id="739">7.67515e-12</wgt>
  <wgt id="740">8.53155e-12</wgt>
  <wgt id="741">6.9459e-12</wgt>
  <wgt id="742">7.66706e-12</wgt>
  <wgt id="743">7.61887e-12</wgt>
  <wgt id="744">7.62373e-12</wgt>
  <wgt id="745">8.00543e-12</wgt>
  <wgt id="746">8.07465e-12</wgt>
  <wgt id="747">7.27367e-12</wgt>
  <wgt id="748">7.62842e-12</wgt>
  <wgt id="749">8.21009e-12</wgt>
  <wgt id="750">7.62404e-12</wgt>
  <wgt id="751">8.06208e-12</wgt>
  <wgt id="752">7.2397e-12</wgt>
  <wgt id="753">7.42591e-12</wgt>
  <wgt id="754">7.89647e-12</wgt>
  <wgt id="755">7.8306e-12</wgt>
  <wgt id="756">7.79915e-12</wgt>
  <wgt id="757">7.2973e-12</wgt>
  <wgt id="758">7.88532e-12</wgt>
  <wgt id="759">7.64981e-12</wgt>
  <wgt id="760">7.93979e-12</wgt>
  <wgt id="761">8.16917e-12</wgt>
  <wgt id="762">8.1395e-12</wgt>
  <wgt id="763">7.82022e-12</wgt>
  <wgt id="764">8.00965e-12</wgt>
  <wgt id="765">7.78291e-12</wgt>
  <wgt id="766">7.73213e-12</wgt>
  <wgt id="767">7.92076e-12</wgt>
  <wgt id="768">7.44293e-12</wgt>
  <wgt id="769">8.17384e-12</wgt>
  <wgt id="770">7.57474e-12</wgt>
  <wgt id="771">8.97242e-12</wgt>
  <wgt id="772">7.31888e-12</wgt>
  <wgt id="773">7.76022e-12</wgt>
  <wgt id="774">7.12693e-12</wgt>
  <wgt id="775">8.06006e-12</wgt>
  <wgt id="776">8.45746e-12</wgt>
  <wgt id="777">7.63975e-12</wgt>
  <wgt id="778">5.93248e-12</wgt>
  <wgt id="779">5.18012e-12</wgt>
  <wgt id="780">4.53487e-12</wgt>
  <wgt id="781">5.86268e-12</wgt>
  <wgt id="782">6.27467e-12</wgt>
  <wgt id="783">5.30683e-12</wgt>
  <wgt id="784">5.3767e-12</wgt>
  <wgt id="785">6.99607e-12</wgt>
  <wgt id="786">4.72689e-12</wgt>
  <wgt id="787">6.51037e-12</wgt>
  <wgt id="788">4.21468e-12</wgt>
  <wgt id="789">4.87557e-12</wgt>
  <wgt id="790">4.74724e-12</wgt>
  <wgt id="791">5.49228e-12</wgt>
  <wgt id="792">7.43932e-12</wgt>
  <wgt id="793">5.69714e-12</wgt>
  <wgt id="794">4.89988e-12</wgt>
  <wgt id="795">6.58925e-12</wgt>
  <wgt id="796">7.55496e-12</wgt>
  <wgt id="797">6.59929e-12</wgt>
  <wgt id="798">5.61703e-12</wgt>
  <wgt id="799">6.56399e-12</wgt>
  <wgt id="800">4.93333e-12</wgt>
  <wgt id="801">5.67406e-12</wgt>
  <wgt id="802">4.95383e-12</wgt>
  <wgt id="803">7.67872e-12</wgt>
  <wgt id="804">6.55514e-12</wgt>
  <wgt id="805">6.68011e-12</wgt>
  <wgt id="806">6.71873e-12</wgt>
  <wgt id="807">5.74857e-12</wgt>
  <wgt id="808">5.82282e-12</wgt>
  <wgt id="809">5.50859e-12</wgt>
  <wgt id="810">6.77002e-12</wgt>
  <wgt id="811">6.38132e-12</wgt>
  <wgt id="812">4.86447e-12</wgt>
  <wgt id="813">4.885e-12</wgt>
  <wgt id="814">4.99827e-12</wgt>
  <wgt id="815">5.2037e-12</wgt>
  <wgt id="816">4.69385e-12</wgt>
  <wgt id="817">6.2592e-12</wgt>
  <wgt id="818">5.6974e-12</wgt>
  <wgt id="819">5.21857e-12</wgt>
  <wgt id="820">5.96495e-12</wgt>
  <wgt id="821">6.58887e-12</wgt>
  <wgt id="822">5.31145e-12</wgt>
  <wgt id="823">6.57688e-12</wgt>
  <wgt id="824">7.74544e-12</wgt>
  <wgt id="825">4.71132e-12</wgt>
  <wgt id="826">6.04852e-12</wgt>
  <wgt id="827">4.0534e-12</wgt>
  <wgt id="828">7.54774e-12</wgt>
  <wgt id="829">6.059e-12</wgt>
  <wgt id="830">4.49464e-12</wgt>
  <wgt id="831">6.24453e-12</wgt>
  <wgt id="832">9.19518e-12</wgt>
  <wgt id="833">5.72163e-12</wgt>
  <wgt id="834">8.64465e-12</wgt>
  <wgt id="835">4.9467e-12</wgt>
  <wgt id="836">6.02327e-12</wgt>
  <wgt id="837">6.51141e-12</wgt>
  <wgt id="838">5.72172e-12</wgt>
  <wgt id="839">6.23015e-12</wgt>
  <wgt id="840">5.71735e-12</wgt>
  <wgt id="841">6.89678e-12</wgt>
  <wgt id="842">5.54707e-12</wgt>
  <wgt id="843">5.71416e-12</wgt>
  <wgt id="844">6.06892e-12</wgt>
  <wgt id="845">7.73159e-12</wgt>
  <wgt id="846">5.49484e-12</wgt>
  <wgt id="847">5.77131e-12</wgt>
  <wgt id="848">5.41737e-12</wgt>
  <wgt id="849">6.03602e-12</wgt>
  <wgt id="850">7.29693e-12</wgt>
  <wgt id="851">6.39034e-12</wgt>
  <wgt id="852">5.33267e-12</wgt>
  <wgt id="853">6.32774e-12</wgt>
  <wgt id="854">6.9645e-12</wgt>
  <wgt id="855">6.56253e-12</wgt>
  <wgt id="856">4.60171e-12</wgt>
  <wgt id="857">6.03845e-12</wgt>
  <wgt id="858">5.88262e-12</wgt>
  <wgt id="859">5.57226e-12</wgt>
  <wgt id="860">6.11162e-12</wgt>
  <wgt id="861">5.47919e-12</wgt>
  <wgt id="862">5.99918e-12</wgt>
  <wgt id="863">6.11704e-12</wgt>
  <wgt id="864">6.14717e-12</wgt>
  <wgt id="865">7.97429e-12</wgt>
  <wgt id="866">8.71726e-12</wgt>
  <wgt id="867">5.90824e-12</wgt>
  <wgt id="868">5.79025e-12</wgt>
  <wgt id="869">4.87016e-12</wgt>
  <wgt id="870">5.12007e-12</wgt>
  <wgt id="871">4.99301e-12</wgt>
  <wgt id="872">6.71797e-12</wgt>
  <wgt id="873">5.06909e-12</wgt>
  <wgt id="874">6.11028e-12</wgt>
  <wgt id="875">5.24692e-12</wgt>
  <wgt id="876">6.72286e-12</wgt>
  <wgt id="877">6.54181e-12</wgt>
  <wgt id="878">5.3626e-12</wgt>
  <wgt id="879">7.76938e-12</wgt>
  <wgt id="880">7.89084e-12</wgt>
  <wgt id="881">8.10372e-12</wgt>
  <wgt id="882">7.48229e-12</wgt>
  <wgt id="883">7.45624e-12</wgt>
  <wgt id="884">8.02262e-12</wgt>
  <wgt id="885">7.81711e-12</wgt>
  <wgt id="886">7.73271e-12</wgt>
  <wgt id="887">8.08754e-12</wgt>
  <wgt id="888">7.37596e-12</wgt>
  <wgt id="889">7.90442e-12</wgt>
  <wgt id="890">8.07566e-12</wgt>
  <wgt id="891">7.71491e-12</wgt>
  <wgt id="892">8.25092e-12</wgt>
  <wgt id="893">8.22251e-12</wgt>
  <wgt id="894">8.13706e-12</wgt>
  <wgt id="895">7.77792e-12</wgt>
  <wgt id="896">8.80996e-12</wgt>
  <wgt id="897">8.18198e-12</wgt>
  <wgt id="898">7.51282e-12</wgt>
  <wgt id="899">7.445e-12</wgt>
  <wgt id="900">7.51123e-12</wgt>
  <wgt id="901">7.39935e-12</wgt>
  <wgt id="902">7.28952e-12</wgt>
  <wgt id="903">7.02e-12</wgt>
  <wgt id="904">7.77755e-12</wgt>
  <wgt id="905">7.40506e-12</wgt>
  <wgt id="906">8.69589e-12</wgt>
  <wgt id="907">8.25447e-12</wgt>
  <wgt id="908">8.01993e-12</wgt>
  <wgt id="909">7.27967e-12</wgt>
  <wgt id="910">7.4942e-12</wgt>
  <wgt id="911">7.68629e-12</wgt>
  <wgt id="912">7.65043e-12</wgt>
  <wgt id="913">6.99776e-12</wgt>
  <wgt id="914">7.78907e-12</wgt>
  <wgt id="915">7.6925e-12</wgt>
  <wgt id="916">8.21439e-12</wgt>
  <wgt id="917">7.7889e-12</wgt>
  <wgt id="918">7.68979e-12</wgt>
  <wgt id="919">7.51e-12</wgt>
  <wgt id="920">7.51062e-12</wgt>
  <wgt id="921">7.5768e-12</wgt>
  <wgt id="922">7.17104e-12</wgt>
  <wgt id="923">7.41879e-12</wgt>
  <wgt id="924">7.51552e-12</wgt>
  <wgt id="925">7.14215e-12</wgt>
  <wgt id="926">8.1486e-12</wgt>
  <wgt id="927">8.03055e-12</wgt>
  <wgt id="928">8.20668e-12</wgt>
  <wgt id="929">7.86094e-12</wgt>
  <wgt id="930">7.60194e-12</wgt>
  <wgt id="931">7.75389e-12</wgt>
  <wgt id="932">7.08868e-12</wgt>
  <wgt id="933">8.15414e-12</wgt>
  <wgt id="934">7.71016e-12</wgt>
  <wgt id="935">8.40348e-12</wgt>
  <wgt id="936">7.76104e-12</wgt>
  <wgt id="937">7.93977e-12</wgt>
  <wgt id="938">7.72735e-12</wgt>
  <wgt id="939">7.70251e-12</wgt>
  <wgt id="940">7.89178e-12</wgt>
  <wgt id="941">7.54666e-12</wgt>
  <wgt id="942">7.67515e-12</wgt>
  <wgt id="943">8.53155e-12</wgt>
  <wgt id="944">6.9459e-12</wgt>
  <wgt id="945">7.66706e-12</wgt>
  <wgt id="946">7.61887e-12</wgt>
  <wgt id="947">7.62373e-12</wgt>
  <wgt id="948">8.00543e-12</wgt>
  <wgt id="949">8.07465e-12</wgt>
  <wgt id="950">7.27367e-12</wgt>
  <wgt id="951">7.62842e-12</wgt>
  <wgt id="952">8.21009e-12</wgt>
  <wgt id="953">7.62404e-12</wgt>
  <wgt id="954">8.06208e-12</wgt>
  <wgt id="955">7.2397e-12</wgt>
  <wgt id="956">7.42591e-12</wgt>
  <wgt id="957">7.89647e-12</wgt>
  <wgt id="958">7.8306e-12</wgt>
  <wgt id="959">7.79915e-12</wgt>
  <wgt id="960">7.2973e-12</wgt>
  <wgt id="961">7.88532e-12</wgt>
  <wgt id="962">7.64981e-12</wgt>
  <wgt id="963">7.93979e-12</wgt>
  <wgt id="964">8.16917e-12</wgt>
  <wgt id="965">8.1395e-12</wgt>
  <wgt id="966">7.82022e-12</wgt>
  <wgt id="967">8.00965e-12</wgt>
  <wgt id="968">7.78291e-12</wgt>
  <wgt id="969">7.73213e-12</wgt>
  <wgt id="970">7.92076e-12</wgt>
  <wgt id="971">7.44293e-12</wgt>
  <wgt id="972">8.17384e-12</wgt>
  <wgt id="973">7.57474e-12</wgt>
  <wgt id="974">8.97242e-12</wgt>
  <wgt id="975">7.31888e-12</wgt>
  <wgt id="976">7.76022e-12</wgt>
  <wgt id="977">7.12693e-12</wgt>
  <wgt id="978">8.06006e-12</wgt>
  <wgt id="979">8.45746e-12</wgt>
  <wgt id="980">7.79579e-12</wgt>
  <wgt id="981">7.78237e-12</wgt>
  <wgt id="982">7.56328e-12</wgt>
</rwgt>
</event>
<event>
 5   1  0.5790000E-11  0.2115109E+04  0.7818608E-02  0.7781621E-01
       21   -1    0    0  502  501  0.00000000000E+00  0.00000000000E+00  0.17361234256E+04  0.17361234256E+04  0.00000000000E+00 0. -1.
       21   -1    0    0  501  502 -0.00000000000E+00 -0.00000000000E+00 -0.64420648448E+03  0.64420648448E+03  0.00000000000E+00 0.  1.
       39    2    1    2    0    0  0.00000000000E+00  0.00000000000E+00  0.10919169411E+04  0.23803299101E+04  0.21151094238E+04 0.  0.
       25    1    3    3    0    0  0.53395211231E+03  0.88221662799E+03  0.32261416954E+03  0.10877113309E+04  0.12500000000E+03 0.  0.
       25    1    3    3    0    0 -0.53395211231E+03 -0.88221662799E+03  0.76930277160E+03  0.12926185792E+04  0.12500000000E+03 0.  0.
<mgrwt>
<rscale>  0 0.21151094E+04</rscale>
<asrwt>0</asrwt>
<pdfrwt beam="1">  1       21 0.26709591E+00 0.21151094E+04</pdfrwt>
<pdfrwt beam="2">  1       21 0.99108691E-01 0.21151094E+04</pdfrwt>
<totfact> 0.17294201E+01</totfact>
</mgrwt>
<rwgt>
  <wgt id="1">5.79e-12</wgt>
  <wgt id="2">5.04504e-12</wgt>
  <wgt id="3">6.7135e-12</wgt>
  <wgt id="4">5.79e-12</wgt>
  <wgt id="5">5.04504e-12</wgt>
  <wgt id="6">6.7135e-12</wgt>
  <wgt id="7">5.79e-12</wgt>
  <wgt id="8">5.04504e-12</wgt>
  <wgt id="9">6.7135e-12</wgt>
  <wgt id="10">6.00395e-12</wgt>
  <wgt id="11">6.00064e-12</wgt>
  <wgt id="12">5.99474e-12</wgt>
  <wgt id="13">5.98783e-12</wgt>
  <wgt id="14">6.02585e-12</wgt>
  <wgt id="15">6.01422e-12</wgt>
  <wgt id="16">5.99536e-12</wgt>
  <wgt id="17">6.02536e-12</wgt>
  <wgt id="18">5.99424e-12</wgt>
  <wgt id="19">6.01934e-12</wgt>
  <wgt id="20">5.99415e-12</wgt>
  <wgt id="21">5.9589e-12</wgt>
  <wgt id="22">5.96789e-12</wgt>
  <wgt id="23">5.93155e-12</wgt>
  <wgt id="24">5.96663e-12</wgt>
  <wgt id="25">5.9843e-12</wgt>
  <wgt id="26">6.02204e-12</wgt>
  <wgt id="27">5.99779e-12</wgt>
  <wgt id="28">5.97024e-12</wgt>
  <wgt id="29">6.00736e-12</wgt>
  <wgt id="30">5.96786e-12</wgt>
  <wgt id="31">6.02931e-12</wgt>
  <wgt id="32">5.97757e-12</wgt>
  <wgt id="33">6.01435e-12</wgt>
  <wgt id="34">5.9728e-12</wgt>
  <wgt id="35">5.98362e-12</wgt>
  <wgt id="36">6.02769e-12</wgt>
  <wgt id="37">5.98712e-12</wgt>
  <wgt id="38">5.98362e-12</wgt>
  <wgt id="39">6.08749e-12</wgt>
  <wgt id="40">6.00727e-12</wgt>
  <wgt id="41">6.00121e-12</wgt>
  <wgt id="42">6.01073e-12</wgt>
  <wgt id="43">6.00236e-12</wgt>
  <wgt id="44">6.01551e-12</wgt>
  <wgt id="45">6.01425e-12</wgt>
  <wgt id="46">5.99689e-12</wgt>
  <wgt id="47">6.02292e-12</wgt>
  <wgt id="48">6.01099e-12</wgt>
  <wgt id="49">5.9776e-12</wgt>
  <wgt id="50">5.98742e-12</wgt>
  <wgt id="51">5.994e-12</wgt>
  <wgt id="52">6.02043e-12</wgt>
  <wgt id="53">5.99667e-12</wgt>
  <wgt id="54">6.01161e-12</wgt>
  <wgt id="55">6.00345e-12</wgt>
  <wgt id="56">6.02002e-12</wgt>
  <wgt id="57">6.00557e-12</wgt>
  <wgt id="58">5.98701e-12</wgt>
  <wgt id="59">5.99612e-12</wgt>
  <wgt id="60">5.99884e-12</wgt>
  <wgt id="61">5.9676e-12</wgt>
  <wgt id="62">5.98216e-12</wgt>
  <wgt id="63">5.99485e-12</wgt>
  <wgt id="64">6.00401e-12</wgt>
  <wgt id="65">6.00661e-12</wgt>
  <wgt id="66">5.99882e-12</wgt>
  <wgt id="67">5.97529e-12</wgt>
  <wgt id="68">6.00292e-12</wgt>
  <wgt id="69">6.00305e-12</wgt>
  <wgt id="70">6.00361e-12</wgt>
  <wgt id="71">6.00019e-12</wgt>
  <wgt id="72">5.98231e-12</wgt>
  <wgt id="73">6.01662e-12</wgt>
  <wgt id="74">6.0098e-12</wgt>
  <wgt id="75">6.00004e-12</wgt>
  <wgt id="76">6.02422e-12</wgt>
  <wgt id="77">5.99957e-12</wgt>
  <wgt id="78">6.00045e-12</wgt>
  <wgt id="79">6.01992e-12</wgt>
  <wgt id="80">5.9747e-12</wgt>
  <wgt id="81">6.0025e-12</wgt>
  <wgt id="82">6.0055e-12</wgt>
  <wgt id="83">5.97954e-12</wgt>
  <wgt id="84">5.99552e-12</wgt>
  <wgt id="85">5.98807e-12</wgt>
  <wgt id="86">6.0222e-12</wgt>
  <wgt id="87">5.96706e-12</wgt>
  <wgt id="88">6.01179e-12</wgt>
  <wgt id="89">6.00877e-12</wgt>
  <wgt id="90">6.02008e-12</wgt>
  <wgt id="91">6.01057e-12</wgt>
  <wgt id="92">6.01626e-12</wgt>
  <wgt id="93">6.01023e-12</wgt>
  <wgt id="94">5.99661e-12</wgt>
  <wgt id="95">6.01912e-12</wgt>
  <wgt id="96">6.01151e-12</wgt>
  <wgt id="97">5.98883e-12</wgt>
  <wgt id="98">6.00559e-12</wgt>
  <wgt id="99">5.99106e-12</wgt>
  <wgt id="100">6.01512e-12</wgt>
  <wgt id="101">6.00526e-12</wgt>
  <wgt id="102">6.00022e-12</wgt>
  <wgt id="103">6.01599e-12</wgt>
  <wgt id="104">5.99822e-12</wgt>
  <wgt id="105">6.01311e-12</wgt>
  <wgt id="106">5.99329e-12</wgt>
  <wgt id="107">6.02649e-12</wgt>
  <wgt id="108">5.9954e-12</wgt>
  <wgt id="109">6.00897e-12</wgt>
  <wgt id="110">6.00243e-12</wgt>
  <wgt id="111">6.03825e-12</wgt>
  <wgt id="112">6.03866e-12</wgt>
  <wgt id="113">8.17199e-12</wgt>
  <wgt id="114">8.1086e-12</wgt>
  <wgt id="115">7.97028e-12</wgt>
  <wgt id="116">1.07396e-11</wgt>
  <wgt id="117">6.57772e-12</wgt>
  <wgt id="118">6.59909e-12</wgt>
  <wgt id="119">6.56552e-12</wgt>
  <wgt id="120">6.57828e-12</wgt>
  <wgt id="121">6.57734e-12</wgt>
  <wgt id="122">6.56635e-12</wgt>
  <wgt id="123">6.59328e-12</wgt>
  <wgt id="124">6.56833e-12</wgt>
  <wgt id="125">6.58365e-12</wgt>
  <wgt id="126">6.58718e-12</wgt>
  <wgt id="127">6.57138e-12</wgt>
  <wgt id="128">6.59797e-12</wgt>
  <wgt id="129">6.55754e-12</wgt>
  <wgt id="130">6.61216e-12</wgt>
  <wgt id="131">6.54206e-12</wgt>
  <wgt id="132">6.40774e-12</wgt>
  <wgt id="133">6.77838e-12</wgt>
  <wgt id="134">6.51011e-12</wgt>
  <wgt id="135">6.63055e-12</wgt>
  <wgt id="136">6.66431e-12</wgt>
  <wgt id="137">6.4732e-12</wgt>
  <wgt id="138">6.83766e-12</wgt>
  <wgt id="139">6.32752e-12</wgt>
  <wgt id="140">6.53854e-12</wgt>
  <wgt id="141">6.60795e-12</wgt>
  <wgt id="142">6.57738e-12</wgt>
  <wgt id="143">6.59119e-12</wgt>
  <wgt id="144">6.37545e-12</wgt>
  <wgt id="145">6.76757e-12</wgt>
  <wgt id="146">6.64099e-12</wgt>
  <wgt id="147">6.5269e-12</wgt>
  <wgt id="148">6.59857e-12</wgt>
  <wgt id="149">6.57621e-12</wgt>
  <wgt id="150">6.63217e-12</wgt>
  <wgt id="151">6.55216e-12</wgt>
  <wgt id="152">6.57979e-12</wgt>
  <wgt id="153">6.57693e-12</wgt>
  <wgt id="154">6.61741e-12</wgt>
  <wgt id="155">6.52517e-12</wgt>
  <wgt id="156">6.72802e-12</wgt>
  <wgt id="157">6.42604e-12</wgt>
  <wgt id="158">7.90921e-12</wgt>
  <wgt id="159">7.94238e-12</wgt>
  <wgt id="160">7.88245e-12</wgt>
  <wgt id="161">7.8909e-12</wgt>
  <wgt id="162">7.92948e-12</wgt>
  <wgt id="163">7.9011e-12</wgt>
  <wgt id="164">7.92092e-12</wgt>
  <wgt id="165">7.91234e-12</wgt>
  <wgt id="166">7.90684e-12</wgt>
  <wgt id="167">7.90342e-12</wgt>
  <wgt id="168">7.91721e-12</wgt>
  <wgt id="169">7.87535e-12</wgt>
  <wgt id="170">7.93024e-12</wgt>
  <wgt id="171">7.90258e-12</wgt>
  <wgt id="172">7.91832e-12</wgt>
  <wgt id="173">7.9032e-12</wgt>
  <wgt id="174">7.9112e-12</wgt>
  <wgt id="175">7.69456e-12</wgt>
  <wgt id="176">8.18861e-12</wgt>
  <wgt id="177">7.94644e-12</wgt>
  <wgt id="178">7.87495e-12</wgt>
  <wgt id="179">8.2506e-12</wgt>
  <wgt id="180">7.37347e-12</wgt>
  <wgt id="181">7.67725e-12</wgt>
  <wgt id="182">8.06277e-12</wgt>
  <wgt id="183">7.76784e-12</wgt>
  <wgt id="184">7.97917e-12</wgt>
  <wgt id="185">7.83713e-12</wgt>
  <wgt id="186">7.99468e-12</wgt>
  <wgt id="187">7.83204e-12</wgt>
  <wgt id="188">8.04606e-12</wgt>
  <wgt id="189">7.8565e-12</wgt>
  <wgt id="190">7.93057e-12</wgt>
  <wgt id="191">7.93271e-12</wgt>
  <wgt id="192">7.89514e-12</wgt>
  <wgt id="193">8.02262e-12</wgt>
  <wgt id="194">7.85248e-12</wgt>
  <wgt id="195">7.70537e-12</wgt>
  <wgt id="196">8.26512e-12</wgt>
  <wgt id="197">7.94791e-12</wgt>
  <wgt id="198">7.8998e-12</wgt>
  <wgt id="199">7.90921e-12</wgt>
  <wgt id="200">7.97809e-12</wgt>
  <wgt id="201">7.95364e-12</wgt>
  <wgt id="202">7.93014e-12</wgt>
  <wgt id="203">7.89521e-12</wgt>
  <wgt id="204">7.87833e-12</wgt>
  <wgt id="205">7.86409e-12</wgt>
  <wgt id="206">7.73117e-12</wgt>
  <wgt id="207">7.77632e-12</wgt>
  <wgt id="208">7.68656e-12</wgt>
  <wgt id="209">7.75141e-12</wgt>
  <wgt id="210">7.71647e-12</wgt>
  <wgt id="211">7.729e-12</wgt>
  <wgt id="212">7.73276e-12</wgt>
  <wgt id="213">7.73043e-12</wgt>
  <wgt id="214">7.73218e-12</wgt>
  <wgt id="215">7.73604e-12</wgt>
  <wgt id="216">7.7277e-12</wgt>
  <wgt id="217">7.74993e-12</wgt>
  <wgt id="218">7.71673e-12</wgt>
  <wgt id="219">7.71984e-12</wgt>
  <wgt id="220">7.73796e-12</wgt>
  <wgt id="221">7.73087e-12</wgt>
  <wgt id="222">7.73095e-12</wgt>
  <wgt id="223">7.32949e-12</wgt>
  <wgt id="224">8.09743e-12</wgt>
  <wgt id="225">7.64243e-12</wgt>
  <wgt id="226">7.84326e-12</wgt>
  <wgt id="227">7.66109e-12</wgt>
  <wgt id="228">7.76194e-12</wgt>
  <wgt id="229">7.62743e-12</wgt>
  <wgt id="230">7.78259e-12</wgt>
  <wgt id="231">7.95896e-12</wgt>
  <wgt id="232">7.54383e-12</wgt>
  <wgt id="233">7.68961e-12</wgt>
  <wgt id="234">7.79817e-12</wgt>
  <wgt id="235">7.5277e-12</wgt>
  <wgt id="236">7.909e-12</wgt>
  <wgt id="237">7.60317e-12</wgt>
  <wgt id="238">7.77427e-12</wgt>
  <wgt id="239">7.67717e-12</wgt>
  <wgt id="240">7.82841e-12</wgt>
  <wgt id="241">7.65085e-12</wgt>
  <wgt id="242">7.82674e-12</wgt>
  <wgt id="243">7.82489e-12</wgt>
  <wgt id="244">7.75837e-12</wgt>
  <wgt id="245">7.72624e-12</wgt>
  <wgt id="246">7.78185e-12</wgt>
  <wgt id="247">7.73117e-12</wgt>
  <wgt id="248">7.8024e-12</wgt>
  <wgt id="249">7.77672e-12</wgt>
  <wgt id="250">7.75136e-12</wgt>
  <wgt id="251">7.71495e-12</wgt>
  <wgt id="252">7.69732e-12</wgt>
  <wgt id="253">7.68462e-12</wgt>
  <wgt id="254">7.515e-12</wgt>
  <wgt id="255">7.52169e-12</wgt>
  <wgt id="256">7.50754e-12</wgt>
  <wgt id="257">7.52098e-12</wgt>
  <wgt id="258">7.51056e-12</wgt>
  <wgt id="259">7.56474e-12</wgt>
  <wgt id="260">7.46683e-12</wgt>
  <wgt id="261">7.52349e-12</wgt>
  <wgt id="262">7.50491e-12</wgt>
  <wgt id="263">7.51118e-12</wgt>
  <wgt id="264">7.51922e-12</wgt>
  <wgt id="265">7.50701e-12</wgt>
  <wgt id="266">7.53073e-12</wgt>
  <wgt id="267">7.51728e-12</wgt>
  <wgt id="268">7.51164e-12</wgt>
  <wgt id="269">7.53636e-12</wgt>
  <wgt id="270">7.50046e-12</wgt>
  <wgt id="271">7.49871e-12</wgt>
  <wgt id="272">7.53298e-12</wgt>
  <wgt id="273">7.49464e-12</wgt>
  <wgt id="274">7.53029e-12</wgt>
  <wgt id="275">7.47975e-12</wgt>
  <wgt id="276">7.55138e-12</wgt>
  <wgt id="277">7.47278e-12</wgt>
  <wgt id="278">7.55383e-12</wgt>
  <wgt id="279">7.38261e-12</wgt>
  <wgt id="280">7.68104e-12</wgt>
  <wgt id="281">7.48397e-12</wgt>
  <wgt id="282">7.51861e-12</wgt>
  <wgt id="283">7.30033e-12</wgt>
  <wgt id="284">7.77998e-12</wgt>
  <wgt id="285">7.15649e-12</wgt>
  <wgt id="286">7.81295e-12</wgt>
  <wgt id="287">7.53898e-12</wgt>
  <wgt id="288">7.4842e-12</wgt>
  <wgt id="289">7.56821e-12</wgt>
  <wgt id="290">7.39363e-12</wgt>
  <wgt id="291">7.49236e-12</wgt>
  <wgt id="292">7.5183e-12</wgt>
  <wgt id="293">7.45682e-12</wgt>
  <wgt id="294">7.57256e-12</wgt>
  <wgt id="295">7.37227e-12</wgt>
  <wgt id="296">7.6891e-12</wgt>
  <wgt id="297">7.51047e-12</wgt>
  <wgt id="298">7.54316e-12</wgt>
  <wgt id="299">7.49176e-12</wgt>
  <wgt id="300">7.57622e-12</wgt>
  <wgt id="301">7.4096e-12</wgt>
  <wgt id="302">7.77812e-12</wgt>
  <wgt id="303">7.45528e-12</wgt>
  <wgt id="304">7.54896e-12</wgt>
  <wgt id="305">7.50905e-12</wgt>
  <wgt id="306">7.51607e-12</wgt>
  <wgt id="307">7.5013e-12</wgt>
  <wgt id="308">7.5156e-12</wgt>
  <wgt id="309">7.50446e-12</wgt>
  <wgt id="310">7.56033e-12</wgt>
  <wgt id="311">7.46136e-12</wgt>
  <wgt id="312">7.51549e-12</wgt>
  <wgt id="313">7.50204e-12</wgt>
  <wgt id="314">7.5051e-12</wgt>
  <wgt id="315">7.51255e-12</wgt>
  <wgt id="316">7.50133e-12</wgt>
  <wgt id="317">7.52576e-12</wgt>
  <wgt id="318">7.51392e-12</wgt>
  <wgt id="319">7.5001e-12</wgt>
  <wgt id="320">7.53154e-12</wgt>
  <wgt id="321">7.49636e-12</wgt>
  <wgt id="322">7.48965e-12</wgt>
  <wgt id="323">7.53144e-12</wgt>
  <wgt id="324">7.49304e-12</wgt>
  <wgt id="325">7.52268e-12</wgt>
  <wgt id="326">7.48019e-12</wgt>
  <wgt id="327">7.54573e-12</wgt>
  <wgt id="328">7.46988e-12</wgt>
  <wgt id="329">7.53126e-12</wgt>
  <wgt id="330">7.71487e-12</wgt>
  <wgt id="331">7.31255e-12</wgt>
  <wgt id="332">7.48329e-12</wgt>
  <wgt id="333">7.51077e-12</wgt>
  <wgt id="334">7.34239e-12</wgt>
  <wgt id="335">7.71632e-12</wgt>
  <wgt id="336">7.25085e-12</wgt>
  <wgt id="337">7.82433e-12</wgt>
  <wgt id="338">7.59263e-12</wgt>
  <wgt id="339">7.43141e-12</wgt>
  <wgt id="340">7.55844e-12</wgt>
  <wgt id="341">7.38373e-12</wgt>
  <wgt id="342">7.49301e-12</wgt>
  <wgt id="343">7.50004e-12</wgt>
  <wgt id="344">7.45681e-12</wgt>
  <wgt id="345">7.5694e-12</wgt>
  <wgt id="346">7.36164e-12</wgt>
  <wgt id="347">7.67804e-12</wgt>
  <wgt id="348">7.5076e-12</wgt>
  <wgt id="349">7.53231e-12</wgt>
  <wgt id="350">7.47979e-12</wgt>
  <wgt id="351">7.58274e-12</wgt>
  <wgt id="352">7.39805e-12</wgt>
  <wgt id="353">7.77604e-12</wgt>
  <wgt id="354">7.42123e-12</wgt>
  <wgt id="355">7.56227e-12</wgt>
  <wgt id="356">7.515e-12</wgt>
  <wgt id="357">7.53141e-12</wgt>
  <wgt id="358">7.50905e-12</wgt>
  <wgt id="359">7.5324e-12</wgt>
  <wgt id="360">7.58849e-12</wgt>
  <wgt id="361">7.54276e-12</wgt>
  <wgt id="362">7.67285e-12</wgt>
  <wgt id="363">7.65545e-12</wgt>
  <wgt id="364">7.62684e-12</wgt>
  <wgt id="365">7.60145e-12</wgt>
  <wgt id="366">7.57409e-12</wgt>
  <wgt id="367">7.51896e-12</wgt>
  <wgt id="368">7.48672e-12</wgt>
  <wgt id="369">7.45197e-12</wgt>
  <wgt id="370">7.54276e-12</wgt>
  <wgt id="371">7.57464e-12</wgt>
  <wgt id="372">7.55693e-12</wgt>
  <wgt id="373">7.53114e-12</wgt>
  <wgt id="374">7.53304e-12</wgt>
  <wgt id="375">8.22409e-12</wgt>
  <wgt id="376">8.22456e-12</wgt>
  <wgt id="377">8.22333e-12</wgt>
  <wgt id="378">8.25406e-12</wgt>
  <wgt id="379">8.19435e-12</wgt>
  <wgt id="380">8.24723e-12</wgt>
  <wgt id="381">8.21488e-12</wgt>
  <wgt id="382">8.2616e-12</wgt>
  <wgt id="383">8.18695e-12</wgt>
  <wgt id="384">8.22924e-12</wgt>
  <wgt id="385">8.21899e-12</wgt>
  <wgt id="386">8.2516e-12</wgt>
  <wgt id="387">8.21232e-12</wgt>
  <wgt id="388">8.2171e-12</wgt>
  <wgt id="389">8.23266e-12</wgt>
  <wgt id="390">8.24349e-12</wgt>
  <wgt id="391">8.20342e-12</wgt>
  <wgt id="392">8.16279e-12</wgt>
  <wgt id="393">8.25887e-12</wgt>
  <wgt id="394">8.23266e-12</wgt>
  <wgt id="395">8.2122e-12</wgt>
  <wgt id="396">8.2316e-12</wgt>
  <wgt id="397">8.21868e-12</wgt>
  <wgt id="398">8.20359e-12</wgt>
  <wgt id="399">8.24387e-12</wgt>
  <wgt id="400">8.21313e-12</wgt>
  <wgt id="401">8.24839e-12</wgt>
  <wgt id="402">8.15924e-12</wgt>
  <wgt id="403">8.25691e-12</wgt>
  <wgt id="404">8.42016e-12</wgt>
  <wgt id="405">7.75281e-12</wgt>
  <wgt id="406">8.08161e-12</wgt>
  <wgt id="407">8.5357e-12</wgt>
  <wgt id="408">8.29748e-12</wgt>
  <wgt id="409">8.0857e-12</wgt>
  <wgt id="410">7.99164e-12</wgt>
  <wgt id="411">8.33319e-12</wgt>
  <wgt id="412">8.20833e-12</wgt>
  <wgt id="413">8.24683e-12</wgt>
  <wgt id="414">8.13103e-12</wgt>
  <wgt id="415">8.29624e-12</wgt>
  <wgt id="416">8.44905e-12</wgt>
  <wgt id="417">7.9129e-12</wgt>
  <wgt id="418">8.23699e-12</wgt>
  <wgt id="419">8.15402e-12</wgt>
  <wgt id="420">8.35537e-12</wgt>
  <wgt id="421">8.14348e-12</wgt>
  <wgt id="422">8.20345e-12</wgt>
  <wgt id="423">8.23488e-12</wgt>
  <wgt id="424">8.40038e-12</wgt>
  <wgt id="425">8.10867e-12</wgt>
  <wgt id="426">8.22409e-12</wgt>
  <wgt id="427">8.12534e-12</wgt>
  <wgt id="428">8.47603e-12</wgt>
  <wgt id="429">8.30514e-12</wgt>
  <wgt id="430">8.53868e-12</wgt>
  <wgt id="431">8.49226e-12</wgt>
  <wgt id="432">8.44856e-12</wgt>
  <wgt id="433">8.40597e-12</wgt>
  <wgt id="434">8.35318e-12</wgt>
  <wgt id="435">8.24513e-12</wgt>
  <wgt id="436">8.18976e-12</wgt>
  <wgt id="437">8.13678e-12</wgt>
  <wgt id="438">8.30514e-12</wgt>
  <wgt id="439">8.33127e-12</wgt>
  <wgt id="440">8.31548e-12</wgt>
  <wgt id="441">8.29731e-12</wgt>
  <wgt id="442">8.29113e-12</wgt>
  <wgt id="443">7.86121e-12</wgt>
  <wgt id="444">7.91974e-12</wgt>
  <wgt id="445">7.88906e-12</wgt>
  <wgt id="446">7.80543e-12</wgt>
  <wgt id="447">7.85638e-12</wgt>
  <wgt id="448">7.67166e-12</wgt>
  <wgt id="449">7.99165e-12</wgt>
  <wgt id="450">7.90086e-12</wgt>
  <wgt id="451">7.84435e-12</wgt>
  <wgt id="452">8.02485e-12</wgt>
  <wgt id="453">7.93288e-12</wgt>
  <wgt id="454">7.52078e-12</wgt>
  <wgt id="455">7.89711e-12</wgt>
  <wgt id="456">7.89701e-12</wgt>
  <wgt id="457">7.88508e-12</wgt>
  <wgt id="458">7.97641e-12</wgt>
  <wgt id="459">7.92477e-12</wgt>
  <wgt id="460">7.95955e-12</wgt>
  <wgt id="461">7.70552e-12</wgt>
  <wgt id="462">7.8122e-12</wgt>
  <wgt id="463">7.75872e-12</wgt>
  <wgt id="464">7.82556e-12</wgt>
  <wgt id="465">7.93908e-12</wgt>
  <wgt id="466">7.74017e-12</wgt>
  <wgt id="467">7.79626e-12</wgt>
  <wgt id="468">7.84655e-12</wgt>
  <wgt id="469">7.84792e-12</wgt>
  <wgt id="470">7.77065e-12</wgt>
  <wgt id="471">7.78664e-12</wgt>
  <wgt id="472">7.89928e-12</wgt>
  <wgt id="473">7.63923e-12</wgt>
  <wgt id="474">5.79e-12</wgt>
  <wgt id="475">5.89103e-12</wgt>
  <wgt id="476">5.70398e-12</wgt>
  <wgt id="477">5.68119e-12</wgt>
  <wgt id="478">5.84319e-12</wgt>
  <wgt id="479">5.63826e-12</wgt>
  <wgt id="480">6.04594e-12</wgt>
  <wgt id="481">5.78577e-12</wgt>
  <wgt id="482">5.72917e-12</wgt>
  <wgt id="483">5.67495e-12</wgt>
  <wgt id="484">5.97649e-12</wgt>
  <wgt id="485">5.56869e-12</wgt>
  <wgt id="486">6.06627e-12</wgt>
  <wgt id="487">5.76147e-12</wgt>
  <wgt id="488">5.90119e-12</wgt>
  <wgt id="489">5.44381e-12</wgt>
  <wgt id="490">5.58168e-12</wgt>
  <wgt id="491">5.7663e-12</wgt>
  <wgt id="492">5.70232e-12</wgt>
  <wgt id="493">5.51015e-12</wgt>
  <wgt id="494">5.55983e-12</wgt>
  <wgt id="495">5.79909e-12</wgt>
  <wgt id="496">5.58721e-12</wgt>
  <wgt id="497">5.52071e-12</wgt>
  <wgt id="498">5.95385e-12</wgt>
  <wgt id="499">5.75363e-12</wgt>
  <wgt id="500">5.66014e-12</wgt>
  <wgt id="501">5.98773e-12</wgt>
  <wgt id="502">5.81789e-12</wgt>
  <wgt id="503">5.78293e-12</wgt>
  <wgt id="504">5.92918e-12</wgt>
  <wgt id="505">5.78081e-12</wgt>
  <wgt id="506">5.68318e-12</wgt>
  <wgt id="507">5.79594e-12</wgt>
  <wgt id="508">6.02104e-12</wgt>
  <wgt id="509">5.402e-12</wgt>
  <wgt id="510">5.88465e-12</wgt>
  <wgt id="511">5.5743e-12</wgt>
  <wgt id="512">6.00702e-12</wgt>
  <wgt id="513">5.97468e-12</wgt>
  <wgt id="514">5.91678e-12</wgt>
  <wgt id="515">5.80649e-12</wgt>
  <wgt id="516">6.16922e-12</wgt>
  <wgt id="517">5.92386e-12</wgt>
  <wgt id="518">5.95737e-12</wgt>
  <wgt id="519">5.61507e-12</wgt>
  <wgt id="520">5.91869e-12</wgt>
  <wgt id="521">5.86093e-12</wgt>
  <wgt id="522">6.03897e-12</wgt>
  <wgt id="523">5.66033e-12</wgt>
  <wgt id="524">5.74378e-12</wgt>
  <wgt id="525">5.88912e-12</wgt>
  <wgt id="526">5.91216e-12</wgt>
  <wgt id="527">5.79163e-12</wgt>
  <wgt id="528">5.81945e-12</wgt>
  <wgt id="529">5.69265e-12</wgt>
  <wgt id="530">5.97435e-12</wgt>
  <wgt id="531">5.65891e-12</wgt>
  <wgt id="532">6.17112e-12</wgt>
  <wgt id="533">5.61008e-12</wgt>
  <wgt id="534">5.72347e-12</wgt>
  <wgt id="535">5.78626e-12</wgt>
  <wgt id="536">5.8075e-12</wgt>
  <wgt id="537">5.70773e-12</wgt>
  <wgt id="538">5.82157e-12</wgt>
  <wgt id="539">5.69083e-12</wgt>
  <wgt id="540">5.87816e-12</wgt>
  <wgt id="541">5.66359e-12</wgt>
  <wgt id="542">5.73358e-12</wgt>
  <wgt id="543">5.74168e-12</wgt>
  <wgt id="544">5.97601e-12</wgt>
  <wgt id="545">5.62213e-12</wgt>
  <wgt id="546">5.51621e-12</wgt>
  <wgt id="547">5.65994e-12</wgt>
  <wgt id="548">5.56115e-12</wgt>
  <wgt id="549">5.70262e-12</wgt>
  <wgt id="550">5.66859e-12</wgt>
  <wgt id="551">5.86625e-12</wgt>
  <wgt id="552">5.50347e-12</wgt>
  <wgt id="553">5.65766e-12</wgt>
  <wgt id="554">6.15316e-12</wgt>
  <wgt id="555">5.94337e-12</wgt>
  <wgt id="556">5.58168e-12</wgt>
  <wgt id="557">5.94763e-12</wgt>
  <wgt id="558">5.68723e-12</wgt>
  <wgt id="559">5.66103e-12</wgt>
  <wgt id="560">6.35727e-12</wgt>
  <wgt id="561">5.78039e-12</wgt>
  <wgt id="562">5.98864e-12</wgt>
  <wgt id="563">5.99826e-12</wgt>
  <wgt id="564">6.01104e-12</wgt>
  <wgt id="565">5.73918e-12</wgt>
  <wgt id="566">5.82101e-12</wgt>
  <wgt id="567">5.75974e-12</wgt>
  <wgt id="568">5.72826e-12</wgt>
  <wgt id="569">5.89556e-12</wgt>
  <wgt id="570">5.55014e-12</wgt>
  <wgt id="571">6.37381e-12</wgt>
  <wgt id="572">5.6942e-12</wgt>
  <wgt id="573">5.61678e-12</wgt>
  <wgt id="574">5.63702e-12</wgt>
  <wgt id="575">6.35939e-12</wgt>
  <wgt id="576">6.58822e-12</wgt>
  <wgt id="577">6.58719e-12</wgt>
  <wgt id="578">6.56113e-12</wgt>
  <wgt id="579">6.56814e-12</wgt>
  <wgt id="580">6.65268e-12</wgt>
  <wgt id="581">6.9075e-12</wgt>
  <wgt id="582">6.56822e-12</wgt>
  <wgt id="583">6.42207e-12</wgt>
  <wgt id="584">6.31408e-12</wgt>
  <wgt id="585">6.12896e-12</wgt>
  <wgt id="586">6.10941e-12</wgt>
  <wgt id="587">6.47289e-12</wgt>
  <wgt id="588">6.52145e-12</wgt>
  <wgt id="589">6.66502e-12</wgt>
  <wgt id="590">6.33085e-12</wgt>
  <wgt id="591">6.57545e-12</wgt>
  <wgt id="592">5.92499e-12</wgt>
  <wgt id="593">6.26057e-12</wgt>
  <wgt id="594">6.43665e-12</wgt>
  <wgt id="595">6.47113e-12</wgt>
  <wgt id="596">6.84221e-12</wgt>
  <wgt id="597">6.32766e-12</wgt>
  <wgt id="598">6.15251e-12</wgt>
  <wgt id="599">6.65779e-12</wgt>
  <wgt id="600">6.47474e-12</wgt>
  <wgt id="601">6.15867e-12</wgt>
  <wgt id="602">6.16524e-12</wgt>
  <wgt id="603">6.12323e-12</wgt>
  <wgt id="604">6.47328e-12</wgt>
  <wgt id="605">6.54343e-12</wgt>
  <wgt id="606">6.42028e-12</wgt>
  <wgt id="607">6.44293e-12</wgt>
  <wgt id="608">6.52672e-12</wgt>
  <wgt id="609">6.18341e-12</wgt>
  <wgt id="610">6.13132e-12</wgt>
  <wgt id="611">6.23935e-12</wgt>
  <wgt id="612">6.69029e-12</wgt>
  <wgt id="613">6.2435e-12</wgt>
  <wgt id="614">6.3438e-12</wgt>
  <wgt id="615">6.34398e-12</wgt>
  <wgt id="616">6.46453e-12</wgt>
  <wgt id="617">6.53683e-12</wgt>
  <wgt id="618">6.87998e-12</wgt>
  <wgt id="619">6.27217e-12</wgt>
  <wgt id="620">6.58682e-12</wgt>
  <wgt id="621">6.33039e-12</wgt>
  <wgt id="622">6.47289e-12</wgt>
  <wgt id="623">6.48787e-12</wgt>
  <wgt id="624">6.38891e-12</wgt>
  <wgt id="625">6.18951e-12</wgt>
  <wgt id="626">5.99229e-12</wgt>
  <wgt id="627">5.98817e-12</wgt>
  <wgt id="628">6.40393e-12</wgt>
  <wgt id="629">6.32807e-12</wgt>
  <wgt id="630">6.11244e-12</wgt>
  <wgt id="631">6.43308e-12</wgt>
  <wgt id="632">5.9799e-12</wgt>
  <wgt id="633">6.33791e-12</wgt>
  <wgt id="634">6.19721e-12</wgt>
  <wgt id="635">5.99844e-12</wgt>
  <wgt id="636">6.4568e-12</wgt>
  <wgt id="637">6.33456e-12</wgt>
  <wgt id="638">6.14355e-12</wgt>
  <wgt id="639">6.22274e-12</wgt>
  <wgt id="640">6.32392e-12</wgt>
  <wgt id="641">6.54999e-12</wgt>
  <wgt id="642">5.99657e-12</wgt>
  <wgt id="643">6.28188e-12</wgt>
  <wgt id="644">5.81108e-12</wgt>
  <wgt id="645">6.37579e-12</wgt>
  <wgt id="646">6.14342e-12</wgt>
  <wgt id="647">6.33644e-12</wgt>
  <wgt id="648">6.52234e-12</wgt>
  <wgt id="649">6.39424e-12</wgt>
  <wgt id="650">6.14413e-12</wgt>
  <wgt id="651">6.64725e-12</wgt>
  <wgt id="652">6.21485e-12</wgt>
  <wgt id="653">6.14394e-12</wgt>
  <wgt id="654">6.25545e-12</wgt>
  <wgt id="655">6.25899e-12</wgt>
  <wgt id="656">6.37079e-12</wgt>
  <wgt id="657">6.85115e-12</wgt>
  <wgt id="658">6.34496e-12</wgt>
  <wgt id="659">6.09814e-12</wgt>
  <wgt id="660">6.35859e-12</wgt>
  <wgt id="661">6.26307e-12</wgt>
  <wgt id="662">6.31244e-12</wgt>
  <wgt id="663">6.42455e-12</wgt>
  <wgt id="664">6.35532e-12</wgt>
  <wgt id="665">6.35371e-12</wgt>
  <wgt id="666">6.26897e-12</wgt>
  <wgt id="667">6.63121e-12</wgt>
  <wgt id="668">6.338e-12</wgt>
  <wgt id="669">6.45745e-12</wgt>
  <wgt id="670">6.58349e-12</wgt>
  <wgt id="671">6.37416e-12</wgt>
  <wgt id="672">6.12221e-12</wgt>
  <wgt id="673">6.54517e-12</wgt>
  <wgt id="674">6.19792e-12</wgt>
  <wgt id="675">6.2707e-12</wgt>
  <wgt id="676">8.07105e-12</wgt>
  <wgt id="677">8.18038e-12</wgt>
  <wgt id="678">8.5859e-12</wgt>
  <wgt id="679">7.83192e-12</wgt>
  <wgt id="680">8.0296e-12</wgt>
  <wgt id="681">8.07905e-12</wgt>
  <wgt id="682">8.38621e-12</wgt>
  <wgt id="683">7.78314e-12</wgt>
  <wgt id="684">8.39825e-12</wgt>
  <wgt id="685">7.91524e-12</wgt>
  <wgt id="686">7.85762e-12</wgt>
  <wgt id="687">8.32428e-12</wgt>
  <wgt id="688">7.92312e-12</wgt>
  <wgt id="689">8.42205e-12</wgt>
  <wgt id="690">8.3123e-12</wgt>
  <wgt id="691">8.40382e-12</wgt>
  <wgt id="692">7.96574e-12</wgt>
  <wgt id="693">9.82428e-12</wgt>
  <wgt id="694">8.66877e-12</wgt>
  <wgt id="695">7.77842e-12</wgt>
  <wgt id="696">7.84387e-12</wgt>
  <wgt id="697">7.6545e-12</wgt>
  <wgt id="698">7.11589e-12</wgt>
  <wgt id="699">7.12462e-12</wgt>
  <wgt id="700">7.15331e-12</wgt>
  <wgt id="701">8.05978e-12</wgt>
  <wgt id="702">7.95891e-12</wgt>
  <wgt id="703">9.42029e-12</wgt>
  <wgt id="704">8.91939e-12</wgt>
  <wgt id="705">8.78757e-12</wgt>
  <wgt id="706">7.69442e-12</wgt>
  <wgt id="707">7.69421e-12</wgt>
  <wgt id="708">7.86479e-12</wgt>
  <wgt id="709">7.86941e-12</wgt>
  <wgt id="710">7.33024e-12</wgt>
  <wgt id="711">8.13065e-12</wgt>
  <wgt id="712">7.74359e-12</wgt>
  <wgt id="713">8.68268e-12</wgt>
  <wgt id="714">7.63701e-12</wgt>
  <wgt id="715">7.89778e-12</wgt>
  <wgt id="716">7.78942e-12</wgt>
  <wgt id="717">7.44181e-12</wgt>
  <wgt id="718">8.20887e-12</wgt>
  <wgt id="719">7.35838e-12</wgt>
  <wgt id="720">7.91298e-12</wgt>
  <wgt id="721">7.15338e-12</wgt>
  <wgt id="722">6.92151e-12</wgt>
  <wgt id="723">8.7318e-12</wgt>
  <wgt id="724">8.55178e-12</wgt>
  <wgt id="725">8.41531e-12</wgt>
  <wgt id="726">8.05946e-12</wgt>
  <wgt id="727">7.98e-12</wgt>
  <wgt id="728">7.82246e-12</wgt>
  <wgt id="729">7.8083e-12</wgt>
  <wgt id="730">8.6832e-12</wgt>
  <wgt id="731">7.91069e-12</wgt>
  <wgt id="732">9.03097e-12</wgt>
  <wgt id="733">7.77713e-12</wgt>
  <wgt id="734">8.25311e-12</wgt>
  <wgt id="735">8.19135e-12</wgt>
  <wgt id="736">7.73153e-12</wgt>
  <wgt id="737">8.00349e-12</wgt>
  <wgt id="738">7.74289e-12</wgt>
  <wgt id="739">8.45968e-12</wgt>
  <wgt id="740">9.09463e-12</wgt>
  <wgt id="741">7.64681e-12</wgt>
  <wgt id="742">7.96362e-12</wgt>
  <wgt id="743">7.58636e-12</wgt>
  <wgt id="744">7.90522e-12</wgt>
  <wgt id="745">8.49933e-12</wgt>
  <wgt id="746">8.69096e-12</wgt>
  <wgt id="747">7.05713e-12</wgt>
  <wgt id="748">7.94867e-12</wgt>
  <wgt id="749">8.35714e-12</wgt>
  <wgt id="750">8.58853e-12</wgt>
  <wgt id="751">8.16304e-12</wgt>
  <wgt id="752">7.38636e-12</wgt>
  <wgt id="753">7.49035e-12</wgt>
  <wgt id="754">8.41093e-12</wgt>
  <wgt id="755">8.0028e-12</wgt>
  <wgt id="756">7.96545e-12</wgt>
  <wgt id="757">7.29163e-12</wgt>
  <wgt id="758">7.95376e-12</wgt>
  <wgt id="759">8.74818e-12</wgt>
  <wgt id="760">7.96008e-12</wgt>
  <wgt id="761">8.61911e-12</wgt>
  <wgt id="762">8.64829e-12</wgt>
  <wgt id="763">8.07311e-12</wgt>
  <wgt id="764">8.43387e-12</wgt>
  <wgt id="765">8.20323e-12</wgt>
  <wgt id="766">8.08805e-12</wgt>
  <wgt id="767">8.21326e-12</wgt>
  <wgt id="768">7.5143e-12</wgt>
  <wgt id="769">8.52536e-12</wgt>
  <wgt id="770">7.88657e-12</wgt>
  <wgt id="771">9.53379e-12</wgt>
  <wgt id="772">7.77326e-12</wgt>
  <wgt id="773">8.01845e-12</wgt>
  <wgt id="774">6.81271e-12</wgt>
  <wgt id="775">8.43773e-12</wgt>
  <wgt id="776">8.79045e-12</wgt>
  <wgt id="777">7.48886e-12</wgt>
  <wgt id="778">5.74959e-12</wgt>
  <wgt id="779">4.29254e-12</wgt>
  <wgt id="780">3.18147e-12</wgt>
  <wgt id="781">6.58609e-12</wgt>
  <wgt id="782">6.46028e-12</wgt>
  <wgt id="783">4.21802e-12</wgt>
  <wgt id="784">4.68223e-12</wgt>
  <wgt id="785">7.64095e-12</wgt>
  <wgt id="786">4.12792e-12</wgt>
  <wgt id="787">6.82131e-12</wgt>
  <wgt id="788">2.75021e-12</wgt>
  <wgt id="789">4.68539e-12</wgt>
  <wgt id="790">4.02873e-12</wgt>
  <wgt id="791">5.9973e-12</wgt>
  <wgt id="792">7.69308e-12</wgt>
  <wgt id="793">5.65964e-12</wgt>
  <wgt id="794">3.86626e-12</wgt>
  <wgt id="795">7.11305e-12</wgt>
  <wgt id="796">7.68128e-12</wgt>
  <wgt id="797">7.09089e-12</wgt>
  <wgt id="798">4.88546e-12</wgt>
  <wgt id="799">6.70185e-12</wgt>
  <wgt id="800">4.75607e-12</wgt>
  <wgt id="801">5.3056e-12</wgt>
  <wgt id="802">3.82774e-12</wgt>
  <wgt id="803">8.47707e-12</wgt>
  <wgt id="804">7.13745e-12</wgt>
  <wgt id="805">7.03131e-12</wgt>
  <wgt id="806">6.26752e-12</wgt>
  <wgt id="807">5.51753e-12</wgt>
  <wgt id="808">5.47434e-12</wgt>
  <wgt id="809">5.33944e-12</wgt>
  <wgt id="810">6.31942e-12</wgt>
  <wgt id="811">6.11007e-12</wgt>
  <wgt id="812">4.02273e-12</wgt>
  <wgt id="813">4.20388e-12</wgt>
  <wgt id="814">4.51664e-12</wgt>
  <wgt id="815">4.22974e-12</wgt>
  <wgt id="816">4.10154e-12</wgt>
  <wgt id="817">5.84392e-12</wgt>
  <wgt id="818">6.4714e-12</wgt>
  <wgt id="819">4.29047e-12</wgt>
  <wgt id="820">5.60714e-12</wgt>
  <wgt id="821">6.64792e-12</wgt>
  <wgt id="822">4.64801e-12</wgt>
  <wgt id="823">6.86295e-12</wgt>
  <wgt id="824">8.1604e-12</wgt>
  <wgt id="825">3.73398e-12</wgt>
  <wgt id="826">6.49004e-12</wgt>
  <wgt id="827">3.18274e-12</wgt>
  <wgt id="828">7.33155e-12</wgt>
  <wgt id="829">5.91223e-12</wgt>
  <wgt id="830">3.54835e-12</wgt>
  <wgt id="831">6.38563e-12</wgt>
  <wgt id="832">9.65284e-12</wgt>
  <wgt id="833">5.01165e-12</wgt>
  <wgt id="834">9.28259e-12</wgt>
  <wgt id="835">4.53625e-12</wgt>
  <wgt id="836">5.24294e-12</wgt>
  <wgt id="837">6.54954e-12</wgt>
  <wgt id="838">5.07653e-12</wgt>
  <wgt id="839">6.34029e-12</wgt>
  <wgt id="840">5.15219e-12</wgt>
  <wgt id="841">7.4612e-12</wgt>
  <wgt id="842">5.41079e-12</wgt>
  <wgt id="843">5.96672e-12</wgt>
  <wgt id="844">6.11704e-12</wgt>
  <wgt id="845">9.08969e-12</wgt>
  <wgt id="846">6.02037e-12</wgt>
  <wgt id="847">5.98665e-12</wgt>
  <wgt id="848">4.39184e-12</wgt>
  <wgt id="849">6.00637e-12</wgt>
  <wgt id="850">7.91502e-12</wgt>
  <wgt id="851">6.47423e-12</wgt>
  <wgt id="852">4.09296e-12</wgt>
  <wgt id="853">6.62072e-12</wgt>
  <wgt id="854">7.35687e-12</wgt>
  <wgt id="855">6.7156e-12</wgt>
  <wgt id="856">3.56984e-12</wgt>
  <wgt id="857">5.42428e-12</wgt>
  <wgt id="858">5.37234e-12</wgt>
  <wgt id="859">5.47559e-12</wgt>
  <wgt id="860">6.71499e-12</wgt>
  <wgt id="861">4.98047e-12</wgt>
  <wgt id="862">5.7971e-12</wgt>
  <wgt id="863">6.30451e-12</wgt>
  <wgt id="864">6.03524e-12</wgt>
  <wgt id="865">8.47114e-12</wgt>
  <wgt id="866">9.42913e-12</wgt>
  <wgt id="867">5.8365e-12</wgt>
  <wgt id="868">5.70302e-12</wgt>
  <wgt id="869">4.03195e-12</wgt>
  <wgt id="870">4.37921e-12</wgt>
  <wgt id="871">4.2703e-12</wgt>
  <wgt id="872">7.35216e-12</wgt>
  <wgt id="873">4.78774e-12</wgt>
  <wgt id="874">6.16876e-12</wgt>
  <wgt id="875">4.81567e-12</wgt>
  <wgt id="876">7.18625e-12</wgt>
  <wgt id="877">6.48228e-12</wgt>
  <wgt id="878">4.70302e-12</wgt>
  <wgt id="879">8.07105e-12</wgt>
  <wgt id="880">8.18038e-12</wgt>
  <wgt id="881">8.5859e-12</wgt>
  <wgt id="882">7.83192e-12</wgt>
  <wgt id="883">8.0296e-12</wgt>
  <wgt id="884">8.07905e-12</wgt>
  <wgt id="885">8.38621e-12</wgt>
  <wgt id="886">7.78314e-12</wgt>
  <wgt id="887">8.39825e-12</wgt>
  <wgt id="888">7.91524e-12</wgt>
  <wgt id="889">7.85762e-12</wgt>
  <wgt id="890">8.32428e-12</wgt>
  <wgt id="891">7.92312e-12</wgt>
  <wgt id="892">8.42205e-12</wgt>
  <wgt id="893">8.3123e-12</wgt>
  <wgt id="894">8.40382e-12</wgt>
  <wgt id="895">7.96574e-12</wgt>
  <wgt id="896">9.82428e-12</wgt>
  <wgt id="897">8.66877e-12</wgt>
  <wgt id="898">7.77842e-12</wgt>
  <wgt id="899">7.84387e-12</wgt>
  <wgt id="900">7.6545e-12</wgt>
  <wgt id="901">7.11589e-12</wgt>
  <wgt id="902">7.12462e-12</wgt>
  <wgt id="903">7.15331e-12</wgt>
  <wgt id="904">8.05978e-12</wgt>
  <wgt id="905">7.95891e-12</wgt>
  <wgt id="906">9.42029e-12</wgt>
  <wgt id="907">8.91939e-12</wgt>
  <wgt id="908">8.78757e-12</wgt>
  <wgt id="909">7.69442e-12</wgt>
  <wgt id="910">7.69421e-12</wgt>
  <wgt id="911">7.86479e-12</wgt>
  <wgt id="912">7.86941e-12</wgt>
  <wgt id="913">7.33024e-12</wgt>
  <wgt id="914">8.13065e-12</wgt>
  <wgt id="915">7.74359e-12</wgt>
  <wgt id="916">8.68268e-12</wgt>
  <wgt id="917">7.63701e-12</wgt>
  <wgt id="918">7.89778e-12</wgt>
  <wgt id="919">7.78942e-12</wgt>
  <wgt id="920">7.44181e-12</wgt>
  <wgt id="921">8.20887e-12</wgt>
  <wgt id="922">7.35838e-12</wgt>
  <wgt id="923">7.91298e-12</wgt>
  <wgt id="924">7.15338e-12</wgt>
  <wgt id="925">6.92151e-12</wgt>
  <wgt id="926">8.7318e-12</wgt>
  <wgt id="927">8.55178e-12</wgt>
  <wgt id="928">8.41531e-12</wgt>
  <wgt id="929">8.05946e-12</wgt>
  <wgt id="930">7.98e-12</wgt>
  <wgt id="931">7.82246e-12</wgt>
  <wgt id="932">7.8083e-12</wgt>
  <wgt id="933">8.6832e-12</wgt>
  <wgt id="934">7.91069e-12</wgt>
  <wgt id="935">9.03097e-12</wgt>
  <wgt id="936">7.77713e-12</wgt>
  <wgt id="937">8.25311e-12</wgt>
  <wgt id="938">8.19135e-12</wgt>
  <wgt id="939">7.73153e-12</wgt>
  <wgt id="940">8.00349e-12</wgt>
  <wgt id="941">7.74289e-12</wgt>
  <wgt id="942">8.45968e-12</wgt>
  <wgt id="943">9.09463e-12</wgt>
  <wgt id="944">7.64681e-12</wgt>
  <wgt id="945">7.96362e-12</wgt>
  <wgt id="946">7.58636e-12</wgt>
  <wgt id="947">7.90522e-12</wgt>
  <wgt id="948">8.49933e-12</wgt>
  <wgt id="949">8.69096e-12</wgt>
  <wgt id="950">7.05713e-12</wgt>
  <wgt id="951">7.94867e-12</wgt>
  <wgt id="952">8.35714e-12</wgt>
  <wgt id="953">8.58853e-12</wgt>
  <wgt id="954">8.16304e-12</wgt>
  <wgt id="955">7.38636e-12</wgt>
  <wgt id="956">7.49035e-12</wgt>
  <wgt id="957">8.41093e-12</wgt>
  <wgt id="958">8.0028e-12</wgt>
  <wgt id="959">7.96545e-12</wgt>
  <wgt id="960">7.29163e-12</wgt>
  <wgt id="961">7.95376e-12</wgt>
  <wgt id="962">8.74818e-12</wgt>
  <wgt id="963">7.96008e-12</wgt>
  <wgt id="964">8.61911e-12</wgt>
  <wgt id="965">8.64829e-12</wgt>
  <wgt id="966">8.07311e-12</wgt>
  <wgt id="967">8.43387e-12</wgt>
  <wgt id="968">8.20323e-12</wgt>
  <wgt id="969">8.08805e-12</wgt>
  <wgt id="970">8.21326e-12</wgt>
  <wgt id="971">7.5143e-12</wgt>
  <wgt id="972">8.52536e-12</wgt>
  <wgt id="973">7.88657e-12</wgt>
  <wgt id="974">9.53379e-12</wgt>
  <wgt id="975">7.77326e-12</wgt>
  <wgt id="976">8.01845e-12</wgt>
  <wgt id="977">6.81271e-12</wgt>
  <wgt id="978">8.43773e-12</wgt>
  <wgt id="979">8.79045e-12</wgt>
  <wgt id="980">8.03849e-12</wgt>
  <wgt id="981">8.14865e-12</wgt>
  <wgt id="982">7.81561e-12</wgt>
</rwgt>
</event>
<event>
 5   1  0.5790000E-11  0.2205719E+04  0.7818608E-02  0.7746718E-01
       21   -1    0    0  502  501  0.00000000000E+00  0.00000000000E+00  0.11865626501E+04  0.11865626501E+04  0.00000000000E+00 0.  1.
       21   -1    0    0  501  502 -0.00000000000E+00 -0.00000000000E+00 -0.10250608552E+04  0.10250608552E+04  0.00000000000E+00 0. -1.
       39    2    1    2    0    0  0.00000000000E+00  0.00000000000E+00  0.16150179495E+03  0.22116235053E+04  0.22057188622E+04 0.  0.
       25    1    3    3    0    0 -0.27291135254E+03 -0.97024433182E+03  0.51180784342E+03  0.11372892940E+04  0.12500000000E+03 0.  0.
       25    1    3    3    0    0  0.27291135254E+03  0.97024433182E+03 -0.35030604847E+03  0.10743342112E+04  0.12500000000E+03 0.  0.
<mgrwt>
<rscale>  0 0.22057189E+04</rscale>
<asrwt>0</asrwt>
<pdfrwt beam="1">  1       21 0.18254810E+00 0.22057189E+04</pdfrwt>
<pdfrwt beam="2">  1       21 0.15770167E+00 0.22057189E+04</pdfrwt>
<totfact> 0.18579540E+01</totfact>
</mgrwt>
<rwgt>
  <wgt id="1">5.79e-12</wgt>
  <wgt id="2">5.05521e-12</wgt>
  <wgt id="3">6.69927e-12</wgt>
  <wgt id="4">5.79e-12</wgt>
  <wgt id="5">5.05521e-12</wgt>
  <wgt id="6">6.69927e-12</wgt>
  <wgt id="7">5.79e-12</wgt>
  <wgt id="8">5.05521e-12</wgt>
  <wgt id="9">6.69927e-12</wgt>
  <wgt id="10">5.95515e-12</wgt>
  <wgt id="11">5.94895e-12</wgt>
  <wgt id="12">5.94338e-12</wgt>
  <wgt id="13">5.93452e-12</wgt>
  <wgt id="14">5.97637e-12</wgt>
  <wgt id="15">5.96341e-12</wgt>
  <wgt id="16">5.94154e-12</wgt>
  <wgt id="17">5.96392e-12</wgt>
  <wgt id="18">5.94687e-12</wgt>
  <wgt id="19">5.96759e-12</wgt>
  <wgt id="20">5.93696e-12</wgt>
  <wgt id="21">5.9248e-12</wgt>
  <wgt id="22">5.93857e-12</wgt>
  <wgt id="23">5.90615e-12</wgt>
  <wgt id="24">5.93019e-12</wgt>
  <wgt id="25">5.94089e-12</wgt>
  <wgt id="26">5.98061e-12</wgt>
  <wgt id="27">5.95502e-12</wgt>
  <wgt id="28">5.92753e-12</wgt>
  <wgt id="29">5.96171e-12</wgt>
  <wgt id="30">5.94221e-12</wgt>
  <wgt id="31">5.96966e-12</wgt>
  <wgt id="32">5.94415e-12</wgt>
  <wgt id="33">5.96836e-12</wgt>
  <wgt id="34">5.93887e-12</wgt>
  <wgt id="35">5.94956e-12</wgt>
  <wgt id="36">5.96909e-12</wgt>
  <wgt id="37">5.94007e-12</wgt>
  <wgt id="38">5.9407e-12</wgt>
  <wgt id="39">6.01361e-12</wgt>
  <wgt id="40">5.97084e-12</wgt>
  <wgt id="41">5.95398e-12</wgt>
  <wgt id="42">5.97473e-12</wgt>
  <wgt id="43">5.96102e-12</wgt>
  <wgt id="44">5.92892e-12</wgt>
  <wgt id="45">5.96472e-12</wgt>
  <wgt id="46">5.96335e-12</wgt>
  <wgt id="47">5.92667e-12</wgt>
  <wgt id="48">5.95594e-12</wgt>
  <wgt id="49">5.98103e-12</wgt>
  <wgt id="50">5.99676e-12</wgt>
  <wgt id="51">5.98254e-12</wgt>
  <wgt id="52">5.93226e-12</wgt>
  <wgt id="53">5.91763e-12</wgt>
  <wgt id="54">5.94228e-12</wgt>
  <wgt id="55">5.95359e-12</wgt>
  <wgt id="56">5.97223e-12</wgt>
  <wgt id="57">5.97608e-12</wgt>
  <wgt id="58">5.91287e-12</wgt>
  <wgt id="59">5.93484e-12</wgt>
  <wgt id="60">5.95573e-12</wgt>
  <wgt id="61">5.95163e-12</wgt>
  <wgt id="62">5.95741e-12</wgt>
  <wgt id="63">5.9649e-12</wgt>
  <wgt id="64">5.96234e-12</wgt>
  <wgt id="65">5.95962e-12</wgt>
  <wgt id="66">5.94814e-12</wgt>
  <wgt id="67">5.95112e-12</wgt>
  <wgt id="68">5.94878e-12</wgt>
  <wgt id="69">5.95261e-12</wgt>
  <wgt id="70">5.95027e-12</wgt>
  <wgt id="71">5.95159e-12</wgt>
  <wgt id="72">5.94965e-12</wgt>
  <wgt id="73">5.9598e-12</wgt>
  <wgt id="74">5.95825e-12</wgt>
  <wgt id="75">5.95577e-12</wgt>
  <wgt id="76">5.97007e-12</wgt>
  <wgt id="77">5.95426e-12</wgt>
  <wgt id="78">5.957e-12</wgt>
  <wgt id="79">5.96415e-12</wgt>
  <wgt id="80">5.93203e-12</wgt>
  <wgt id="81">5.94778e-12</wgt>
  <wgt id="82">5.95532e-12</wgt>
  <wgt id="83">5.9354e-12</wgt>
  <wgt id="84">5.9431e-12</wgt>
  <wgt id="85">5.9471e-12</wgt>
  <wgt id="86">5.96528e-12</wgt>
  <wgt id="87">5.93057e-12</wgt>
  <wgt id="88">5.96112e-12</wgt>
  <wgt id="89">5.96003e-12</wgt>
  <wgt id="90">5.96113e-12</wgt>
  <wgt id="91">5.95857e-12</wgt>
  <wgt id="92">5.96472e-12</wgt>
  <wgt id="93">5.95408e-12</wgt>
  <wgt id="94">5.95091e-12</wgt>
  <wgt id="95">5.95786e-12</wgt>
  <wgt id="96">5.95871e-12</wgt>
  <wgt id="97">5.94883e-12</wgt>
  <wgt id="98">5.95807e-12</wgt>
  <wgt id="99">5.95354e-12</wgt>
  <wgt id="100">5.9608e-12</wgt>
  <wgt id="101">5.95336e-12</wgt>
  <wgt id="102">5.94999e-12</wgt>
  <wgt id="103">5.96216e-12</wgt>
  <wgt id="104">5.95064e-12</wgt>
  <wgt id="105">5.95945e-12</wgt>
  <wgt id="106">5.94897e-12</wgt>
  <wgt id="107">5.96865e-12</wgt>
  <wgt id="108">5.94997e-12</wgt>
  <wgt id="109">5.9581e-12</wgt>
  <wgt id="110">5.95371e-12</wgt>
  <wgt id="111">6.02644e-12</wgt>
  <wgt id="112">5.93933e-12</wgt>
  <wgt id="113">7.8466e-12</wgt>
  <wgt id="114">8.17936e-12</wgt>
  <wgt id="115">8.07001e-12</wgt>
  <wgt id="116">1.10859e-11</wgt>
  <wgt id="117">6.56216e-12</wgt>
  <wgt id="118">6.5836e-12</wgt>
  <wgt id="119">6.55019e-12</wgt>
  <wgt id="120">6.56294e-12</wgt>
  <wgt id="121">6.56173e-12</wgt>
  <wgt id="122">6.55042e-12</wgt>
  <wgt id="123">6.57851e-12</wgt>
  <wgt id="124">6.55273e-12</wgt>
  <wgt id="125">6.56853e-12</wgt>
  <wgt id="126">6.57352e-12</wgt>
  <wgt id="127">6.55478e-12</wgt>
  <wgt id="128">6.58287e-12</wgt>
  <wgt id="129">6.5417e-12</wgt>
  <wgt id="130">6.60032e-12</wgt>
  <wgt id="131">6.52322e-12</wgt>
  <wgt id="132">6.39674e-12</wgt>
  <wgt id="133">6.75716e-12</wgt>
  <wgt id="134">6.4944e-12</wgt>
  <wgt id="135">6.61507e-12</wgt>
  <wgt id="136">6.64128e-12</wgt>
  <wgt id="137">6.46645e-12</wgt>
  <wgt id="138">6.80215e-12</wgt>
  <wgt id="139">6.32909e-12</wgt>
  <wgt id="140">6.51704e-12</wgt>
  <wgt id="141">6.59767e-12</wgt>
  <wgt id="142">6.56341e-12</wgt>
  <wgt id="143">6.56965e-12</wgt>
  <wgt id="144">6.40288e-12</wgt>
  <wgt id="145">6.70809e-12</wgt>
  <wgt id="146">6.61285e-12</wgt>
  <wgt id="147">6.52278e-12</wgt>
  <wgt id="148">6.581e-12</wgt>
  <wgt id="149">6.56094e-12</wgt>
  <wgt id="150">6.61781e-12</wgt>
  <wgt id="151">6.53624e-12</wgt>
  <wgt id="152">6.5649e-12</wgt>
  <wgt id="153">6.56123e-12</wgt>
  <wgt id="154">6.62114e-12</wgt>
  <wgt id="155">6.4934e-12</wgt>
  <wgt id="156">6.66907e-12</wgt>
  <wgt id="157">6.44258e-12</wgt>
  <wgt id="158">7.8972e-12</wgt>
  <wgt id="159">7.92987e-12</wgt>
  <wgt id="160">7.8708e-12</wgt>
  <wgt id="161">7.87834e-12</wgt>
  <wgt id="162">7.91815e-12</wgt>
  <wgt id="163">7.88926e-12</wgt>
  <wgt id="164">7.90926e-12</wgt>
  <wgt id="165">7.90035e-12</wgt>
  <wgt id="166">7.89505e-12</wgt>
  <wgt id="167">7.89145e-12</wgt>
  <wgt id="168">7.90542e-12</wgt>
  <wgt id="169">7.86328e-12</wgt>
  <wgt id="170">7.91864e-12</wgt>
  <wgt id="171">7.88885e-12</wgt>
  <wgt id="172">7.90913e-12</wgt>
  <wgt id="173">7.89885e-12</wgt>
  <wgt id="174">7.89635e-12</wgt>
  <wgt id="175">7.68329e-12</wgt>
  <wgt id="176">8.1752e-12</wgt>
  <wgt id="177">7.93738e-12</wgt>
  <wgt id="178">7.85993e-12</wgt>
  <wgt id="179">8.20631e-12</wgt>
  <wgt id="180">7.40687e-12</wgt>
  <wgt id="181">7.6803e-12</wgt>
  <wgt id="182">8.0401e-12</wgt>
  <wgt id="183">7.7644e-12</wgt>
  <wgt id="184">7.96329e-12</wgt>
  <wgt id="185">7.83753e-12</wgt>
  <wgt id="186">7.96795e-12</wgt>
  <wgt id="187">7.82968e-12</wgt>
  <wgt id="188">8.01938e-12</wgt>
  <wgt id="189">7.85014e-12</wgt>
  <wgt id="190">7.91665e-12</wgt>
  <wgt id="191">7.91723e-12</wgt>
  <wgt id="192">7.88552e-12</wgt>
  <wgt id="193">8.0022e-12</wgt>
  <wgt id="194">7.84537e-12</wgt>
  <wgt id="195">7.73477e-12</wgt>
  <wgt id="196">8.20304e-12</wgt>
  <wgt id="197">7.93463e-12</wgt>
  <wgt id="198">7.88838e-12</wgt>
  <wgt id="199">7.8972e-12</wgt>
  <wgt id="200">7.96176e-12</wgt>
  <wgt id="201">7.93762e-12</wgt>
  <wgt id="202">7.91468e-12</wgt>
  <wgt id="203">7.87947e-12</wgt>
  <wgt id="204">7.86293e-12</wgt>
  <wgt id="205">7.84924e-12</wgt>
  <wgt id="206">7.68199e-12</wgt>
  <wgt id="207">7.7264e-12</wgt>
  <wgt id="208">7.63812e-12</wgt>
  <wgt id="209">7.70345e-12</wgt>
  <wgt id="210">7.66625e-12</wgt>
  <wgt id="211">7.67965e-12</wgt>
  <wgt id="212">7.68395e-12</wgt>
  <wgt id="213">7.68129e-12</wgt>
  <wgt id="214">7.68315e-12</wgt>
  <wgt id="215">7.68714e-12</wgt>
  <wgt id="216">7.67838e-12</wgt>
  <wgt id="217">7.70354e-12</wgt>
  <wgt id="218">7.66556e-12</wgt>
  <wgt id="219">7.67275e-12</wgt>
  <wgt id="220">7.68757e-12</wgt>
  <wgt id="221">7.67809e-12</wgt>
  <wgt id="222">7.69142e-12</wgt>
  <wgt id="223">7.29292e-12</wgt>
  <wgt id="224">8.03542e-12</wgt>
  <wgt id="225">7.59501e-12</wgt>
  <wgt id="226">7.79103e-12</wgt>
  <wgt id="227">7.6124e-12</wgt>
  <wgt id="228">7.71255e-12</wgt>
  <wgt id="229">7.57917e-12</wgt>
  <wgt id="230">7.73317e-12</wgt>
  <wgt id="231">7.88943e-12</wgt>
  <wgt id="232">7.51121e-12</wgt>
  <wgt id="233">7.64453e-12</wgt>
  <wgt id="234">7.73895e-12</wgt>
  <wgt id="235">7.5608e-12</wgt>
  <wgt id="236">7.80391e-12</wgt>
  <wgt id="237">7.59355e-12</wgt>
  <wgt id="238">7.71259e-12</wgt>
  <wgt id="239">7.64256e-12</wgt>
  <wgt id="240">7.75389e-12</wgt>
  <wgt id="241">7.60937e-12</wgt>
  <wgt id="242">7.76959e-12</wgt>
  <wgt id="243">7.75768e-12</wgt>
  <wgt id="244">7.73325e-12</wgt>
  <wgt id="245">7.67566e-12</wgt>
  <wgt id="246">7.74219e-12</wgt>
  <wgt id="247">7.68199e-12</wgt>
  <wgt id="248">7.74477e-12</wgt>
  <wgt id="249">7.72036e-12</wgt>
  <wgt id="250">7.6981e-12</wgt>
  <wgt id="251">7.66393e-12</wgt>
  <wgt id="252">7.64808e-12</wgt>
  <wgt id="253">7.6364e-12</wgt>
  <wgt id="254">7.53195e-12</wgt>
  <wgt id="255">7.5394e-12</wgt>
  <wgt id="256">7.52409e-12</wgt>
  <wgt id="257">7.53782e-12</wgt>
  <wgt id="258">7.52766e-12</wgt>
  <wgt id="259">7.58223e-12</wgt>
  <wgt id="260">7.48371e-12</wgt>
  <wgt id="261">7.54072e-12</wgt>
  <wgt id="262">7.52171e-12</wgt>
  <wgt id="263">7.52931e-12</wgt>
  <wgt id="264">7.53511e-12</wgt>
  <wgt id="265">7.52397e-12</wgt>
  <wgt id="266">7.54768e-12</wgt>
  <wgt id="267">7.53435e-12</wgt>
  <wgt id="268">7.52896e-12</wgt>
  <wgt id="269">7.55444e-12</wgt>
  <wgt id="270">7.51674e-12</wgt>
  <wgt id="271">7.52007e-12</wgt>
  <wgt id="272">7.54545e-12</wgt>
  <wgt id="273">7.5093e-12</wgt>
  <wgt id="274">7.54945e-12</wgt>
  <wgt id="275">7.5043e-12</wgt>
  <wgt id="276">7.56044e-12</wgt>
  <wgt id="277">7.4909e-12</wgt>
  <wgt id="278">7.56979e-12</wgt>
  <wgt id="279">7.39336e-12</wgt>
  <wgt id="280">7.70532e-12</wgt>
  <wgt id="281">7.50109e-12</wgt>
  <wgt id="282">7.53241e-12</wgt>
  <wgt id="283">7.33079e-12</wgt>
  <wgt id="284">7.77882e-12</wgt>
  <wgt id="285">7.19639e-12</wgt>
  <wgt id="286">7.80743e-12</wgt>
  <wgt id="287">7.55397e-12</wgt>
  <wgt id="288">7.50375e-12</wgt>
  <wgt id="289">7.58083e-12</wgt>
  <wgt id="290">7.41609e-12</wgt>
  <wgt id="291">7.51471e-12</wgt>
  <wgt id="292">7.53629e-12</wgt>
  <wgt id="293">7.47824e-12</wgt>
  <wgt id="294">7.58534e-12</wgt>
  <wgt id="295">7.39858e-12</wgt>
  <wgt id="296">7.69446e-12</wgt>
  <wgt id="297">7.53616e-12</wgt>
  <wgt id="298">7.55529e-12</wgt>
  <wgt id="299">7.50947e-12</wgt>
  <wgt id="300">7.59125e-12</wgt>
  <wgt id="301">7.45027e-12</wgt>
  <wgt id="302">7.75503e-12</wgt>
  <wgt id="303">7.48529e-12</wgt>
  <wgt id="304">7.55946e-12</wgt>
  <wgt id="305">7.57407e-12</wgt>
  <wgt id="306">7.58197e-12</wgt>
  <wgt id="307">7.56598e-12</wgt>
  <wgt id="308">7.58079e-12</wgt>
  <wgt id="309">7.56967e-12</wgt>
  <wgt id="310">7.62633e-12</wgt>
  <wgt id="311">7.52589e-12</wgt>
  <wgt id="312">7.58058e-12</wgt>
  <wgt id="313">7.56803e-12</wgt>
  <wgt id="314">7.57171e-12</wgt>
  <wgt id="315">7.57672e-12</wgt>
  <wgt id="316">7.56665e-12</wgt>
  <wgt id="317">7.59068e-12</wgt>
  <wgt id="318">7.57926e-12</wgt>
  <wgt id="319">7.56573e-12</wgt>
  <wgt id="320">7.59756e-12</wgt>
  <wgt id="321">7.56117e-12</wgt>
  <wgt id="322">7.55797e-12</wgt>
  <wgt id="323">7.59328e-12</wgt>
  <wgt id="324">7.55524e-12</wgt>
  <wgt id="325">7.59086e-12</wgt>
  <wgt id="326">7.55199e-12</wgt>
  <wgt id="327">7.60257e-12</wgt>
  <wgt id="328">7.53674e-12</wgt>
  <wgt id="329">7.59563e-12</wgt>
  <wgt id="330">7.78964e-12</wgt>
  <wgt id="331">7.36828e-12</wgt>
  <wgt id="332">7.54855e-12</wgt>
  <wgt id="333">7.57363e-12</wgt>
  <wgt id="334">7.41491e-12</wgt>
  <wgt id="335">7.77115e-12</wgt>
  <wgt id="336">7.32924e-12</wgt>
  <wgt id="337">7.87017e-12</wgt>
  <wgt id="338">7.6526e-12</wgt>
  <wgt id="339">7.50143e-12</wgt>
  <wgt id="340">7.6211e-12</wgt>
  <wgt id="341">7.45208e-12</wgt>
  <wgt id="342">7.56248e-12</wgt>
  <wgt id="343">7.56782e-12</wgt>
  <wgt id="344">7.52495e-12</wgt>
  <wgt id="345">7.63133e-12</wgt>
  <wgt id="346">7.43509e-12</wgt>
  <wgt id="347">7.73447e-12</wgt>
  <wgt id="348">7.58218e-12</wgt>
  <wgt id="349">7.59216e-12</wgt>
  <wgt id="350">7.54568e-12</wgt>
  <wgt id="351">7.64668e-12</wgt>
  <wgt id="352">7.48198e-12</wgt>
  <wgt id="353">7.81174e-12</wgt>
  <wgt id="354">7.50137e-12</wgt>
  <wgt id="355">7.61964e-12</wgt>
  <wgt id="356">7.53195e-12</wgt>
  <wgt id="357">7.61068e-12</wgt>
  <wgt id="358">7.57407e-12</wgt>
  <wgt id="359">7.56382e-12</wgt>
  <wgt id="360">7.56416e-12</wgt>
  <wgt id="361">7.55173e-12</wgt>
  <wgt id="362">7.67331e-12</wgt>
  <wgt id="363">7.656e-12</wgt>
  <wgt id="364">7.63308e-12</wgt>
  <wgt id="365">7.60914e-12</wgt>
  <wgt id="366">7.58189e-12</wgt>
  <wgt id="367">7.52443e-12</wgt>
  <wgt id="368">7.49361e-12</wgt>
  <wgt id="369">7.46031e-12</wgt>
  <wgt id="370">7.55173e-12</wgt>
  <wgt id="371">7.58526e-12</wgt>
  <wgt id="372">7.56687e-12</wgt>
  <wgt id="373">7.53937e-12</wgt>
  <wgt id="374">7.53465e-12</wgt>
  <wgt id="375">7.95938e-12</wgt>
  <wgt id="376">7.96043e-12</wgt>
  <wgt id="377">7.95812e-12</wgt>
  <wgt id="378">7.98776e-12</wgt>
  <wgt id="379">7.93111e-12</wgt>
  <wgt id="380">7.98088e-12</wgt>
  <wgt id="381">7.95067e-12</wgt>
  <wgt id="382">7.99855e-12</wgt>
  <wgt id="383">7.92048e-12</wgt>
  <wgt id="384">7.96455e-12</wgt>
  <wgt id="385">7.95436e-12</wgt>
  <wgt id="386">7.98965e-12</wgt>
  <wgt id="387">7.94615e-12</wgt>
  <wgt id="388">7.9521e-12</wgt>
  <wgt id="389">7.96809e-12</wgt>
  <wgt id="390">7.98013e-12</wgt>
  <wgt id="391">7.93744e-12</wgt>
  <wgt id="392">7.9048e-12</wgt>
  <wgt id="393">7.99017e-12</wgt>
  <wgt id="394">7.97082e-12</wgt>
  <wgt id="395">7.9433e-12</wgt>
  <wgt id="396">7.96147e-12</wgt>
  <wgt id="397">7.95773e-12</wgt>
  <wgt id="398">7.92567e-12</wgt>
  <wgt id="399">7.99187e-12</wgt>
  <wgt id="400">7.94669e-12</wgt>
  <wgt id="401">7.98757e-12</wgt>
  <wgt id="402">7.89931e-12</wgt>
  <wgt id="403">7.98323e-12</wgt>
  <wgt id="404">8.12737e-12</wgt>
  <wgt id="405">7.55258e-12</wgt>
  <wgt id="406">7.83849e-12</wgt>
  <wgt id="407">8.21966e-12</wgt>
  <wgt id="408">8.0214e-12</wgt>
  <wgt id="409">7.8397e-12</wgt>
  <wgt id="410">7.75989e-12</wgt>
  <wgt id="411">8.0502e-12</wgt>
  <wgt id="412">7.94673e-12</wgt>
  <wgt id="413">7.97679e-12</wgt>
  <wgt id="414">7.87982e-12</wgt>
  <wgt id="415">8.02099e-12</wgt>
  <wgt id="416">8.14603e-12</wgt>
  <wgt id="417">7.70089e-12</wgt>
  <wgt id="418">7.96876e-12</wgt>
  <wgt id="419">7.90838e-12</wgt>
  <wgt id="420">8.04985e-12</wgt>
  <wgt id="421">7.91296e-12</wgt>
  <wgt id="422">7.95736e-12</wgt>
  <wgt id="423">7.9624e-12</wgt>
  <wgt id="424">8.09268e-12</wgt>
  <wgt id="425">7.87853e-12</wgt>
  <wgt id="426">7.95938e-12</wgt>
  <wgt id="427">7.90675e-12</wgt>
  <wgt id="428">8.12699e-12</wgt>
  <wgt id="429">8.01935e-12</wgt>
  <wgt id="430">8.22772e-12</wgt>
  <wgt id="431">8.18643e-12</wgt>
  <wgt id="432">8.14675e-12</wgt>
  <wgt id="433">8.10833e-12</wgt>
  <wgt id="434">8.06266e-12</wgt>
  <wgt id="435">7.96508e-12</wgt>
  <wgt id="436">7.91453e-12</wgt>
  <wgt id="437">7.86698e-12</wgt>
  <wgt id="438">8.01935e-12</wgt>
  <wgt id="439">8.04578e-12</wgt>
  <wgt id="440">8.0305e-12</wgt>
  <wgt id="441">8.01097e-12</wgt>
  <wgt id="442">8.00364e-12</wgt>
  <wgt id="443">7.86007e-12</wgt>
  <wgt id="444">7.89395e-12</wgt>
  <wgt id="445">7.82673e-12</wgt>
  <wgt id="446">7.81344e-12</wgt>
  <wgt id="447">7.83178e-12</wgt>
  <wgt id="448">7.66643e-12</wgt>
  <wgt id="449">7.97003e-12</wgt>
  <wgt id="450">7.82266e-12</wgt>
  <wgt id="451">7.84959e-12</wgt>
  <wgt id="452">8.02013e-12</wgt>
  <wgt id="453">7.92214e-12</wgt>
  <wgt id="454">7.56765e-12</wgt>
  <wgt id="455">7.86722e-12</wgt>
  <wgt id="456">7.74032e-12</wgt>
  <wgt id="457">7.88868e-12</wgt>
  <wgt id="458">7.9401e-12</wgt>
  <wgt id="459">7.9066e-12</wgt>
  <wgt id="460">7.89734e-12</wgt>
  <wgt id="461">7.73693e-12</wgt>
  <wgt id="462">7.80428e-12</wgt>
  <wgt id="463">7.78695e-12</wgt>
  <wgt id="464">7.82242e-12</wgt>
  <wgt id="465">7.9306e-12</wgt>
  <wgt id="466">7.78451e-12</wgt>
  <wgt id="467">7.79364e-12</wgt>
  <wgt id="468">7.84101e-12</wgt>
  <wgt id="469">7.84138e-12</wgt>
  <wgt id="470">7.79864e-12</wgt>
  <wgt id="471">7.80132e-12</wgt>
  <wgt id="472">7.89102e-12</wgt>
  <wgt id="473">7.63922e-12</wgt>
  <wgt id="474">5.79e-12</wgt>
  <wgt id="475">6.16946e-12</wgt>
  <wgt id="476">5.67236e-12</wgt>
  <wgt id="477">5.6786e-12</wgt>
  <wgt id="478">5.81994e-12</wgt>
  <wgt id="479">5.71752e-12</wgt>
  <wgt id="480">5.96306e-12</wgt>
  <wgt id="481">5.63677e-12</wgt>
  <wgt id="482">5.54872e-12</wgt>
  <wgt id="483">5.64154e-12</wgt>
  <wgt id="484">6.22857e-12</wgt>
  <wgt id="485">5.81847e-12</wgt>
  <wgt id="486">5.87554e-12</wgt>
  <wgt id="487">5.88383e-12</wgt>
  <wgt id="488">5.85495e-12</wgt>
  <wgt id="489">5.59842e-12</wgt>
  <wgt id="490">5.62558e-12</wgt>
  <wgt id="491">5.72313e-12</wgt>
  <wgt id="492">5.60441e-12</wgt>
  <wgt id="493">5.59589e-12</wgt>
  <wgt id="494">5.61967e-12</wgt>
  <wgt id="495">5.90379e-12</wgt>
  <wgt id="496">5.59295e-12</wgt>
  <wgt id="497">5.58647e-12</wgt>
  <wgt id="498">5.84985e-12</wgt>
  <wgt id="499">5.63638e-12</wgt>
  <wgt id="500">5.69258e-12</wgt>
  <wgt id="501">6.03701e-12</wgt>
  <wgt id="502">5.62296e-12</wgt>
  <wgt id="503">5.76838e-12</wgt>
  <wgt id="504">5.78892e-12</wgt>
  <wgt id="505">5.88883e-12</wgt>
  <wgt id="506">5.88118e-12</wgt>
  <wgt id="507">5.7186e-12</wgt>
  <wgt id="508">5.87071e-12</wgt>
  <wgt id="509">5.77953e-12</wgt>
  <wgt id="510">5.92346e-12</wgt>
  <wgt id="511">5.67313e-12</wgt>
  <wgt id="512">5.84818e-12</wgt>
  <wgt id="513">6.00165e-12</wgt>
  <wgt id="514">5.73265e-12</wgt>
  <wgt id="515">5.71344e-12</wgt>
  <wgt id="516">5.92689e-12</wgt>
  <wgt id="517">5.91528e-12</wgt>
  <wgt id="518">5.93592e-12</wgt>
  <wgt id="519">5.65556e-12</wgt>
  <wgt id="520">5.81002e-12</wgt>
  <wgt id="521">6.00282e-12</wgt>
  <wgt id="522">6.00091e-12</wgt>
  <wgt id="523">5.92313e-12</wgt>
  <wgt id="524">5.91482e-12</wgt>
  <wgt id="525">5.93283e-12</wgt>
  <wgt id="526">5.77758e-12</wgt>
  <wgt id="527">5.89843e-12</wgt>
  <wgt id="528">5.78523e-12</wgt>
  <wgt id="529">5.71428e-12</wgt>
  <wgt id="530">5.81297e-12</wgt>
  <wgt id="531">5.72004e-12</wgt>
  <wgt id="532">6.08417e-12</wgt>
  <wgt id="533">5.43625e-12</wgt>
  <wgt id="534">5.80167e-12</wgt>
  <wgt id="535">5.8985e-12</wgt>
  <wgt id="536">5.80271e-12</wgt>
  <wgt id="537">5.81264e-12</wgt>
  <wgt id="538">5.88695e-12</wgt>
  <wgt id="539">5.65926e-12</wgt>
  <wgt id="540">5.72525e-12</wgt>
  <wgt id="541">5.70084e-12</wgt>
  <wgt id="542">5.6589e-12</wgt>
  <wgt id="543">5.78017e-12</wgt>
  <wgt id="544">6.07101e-12</wgt>
  <wgt id="545">5.7176e-12</wgt>
  <wgt id="546">5.74137e-12</wgt>
  <wgt id="547">5.61425e-12</wgt>
  <wgt id="548">5.55502e-12</wgt>
  <wgt id="549">5.70103e-12</wgt>
  <wgt id="550">5.83053e-12</wgt>
  <wgt id="551">5.85496e-12</wgt>
  <wgt id="552">5.7494e-12</wgt>
  <wgt id="553">5.77968e-12</wgt>
  <wgt id="554">6.22206e-12</wgt>
  <wgt id="555">5.94741e-12</wgt>
  <wgt id="556">5.62558e-12</wgt>
  <wgt id="557">5.86965e-12</wgt>
  <wgt id="558">5.597e-12</wgt>
  <wgt id="559">5.72597e-12</wgt>
  <wgt id="560">6.23568e-12</wgt>
  <wgt id="561">5.65072e-12</wgt>
  <wgt id="562">5.85571e-12</wgt>
  <wgt id="563">5.63279e-12</wgt>
  <wgt id="564">5.77089e-12</wgt>
  <wgt id="565">5.59844e-12</wgt>
  <wgt id="566">5.8492e-12</wgt>
  <wgt id="567">5.69721e-12</wgt>
  <wgt id="568">5.79243e-12</wgt>
  <wgt id="569">5.84099e-12</wgt>
  <wgt id="570">5.66071e-12</wgt>
  <wgt id="571">6.39916e-12</wgt>
  <wgt id="572">5.65927e-12</wgt>
  <wgt id="573">5.52712e-12</wgt>
  <wgt id="574">5.58431e-12</wgt>
  <wgt id="575">6.3406e-12</wgt>
  <wgt id="576">6.22759e-12</wgt>
  <wgt id="577">6.56232e-12</wgt>
  <wgt id="578">6.45227e-12</wgt>
  <wgt id="579">6.39434e-12</wgt>
  <wgt id="580">6.42527e-12</wgt>
  <wgt id="581">6.70266e-12</wgt>
  <wgt id="582">6.2076e-12</wgt>
  <wgt id="583">6.40217e-12</wgt>
  <wgt id="584">6.34847e-12</wgt>
  <wgt id="585">6.40509e-12</wgt>
  <wgt id="586">6.2025e-12</wgt>
  <wgt id="587">6.40953e-12</wgt>
  <wgt id="588">6.29489e-12</wgt>
  <wgt id="589">6.40289e-12</wgt>
  <wgt id="590">6.44773e-12</wgt>
  <wgt id="591">6.59114e-12</wgt>
  <wgt id="592">6.24518e-12</wgt>
  <wgt id="593">6.31239e-12</wgt>
  <wgt id="594">6.59935e-12</wgt>
  <wgt id="595">6.29009e-12</wgt>
  <wgt id="596">6.41743e-12</wgt>
  <wgt id="597">6.10138e-12</wgt>
  <wgt id="598">6.29194e-12</wgt>
  <wgt id="599">6.67351e-12</wgt>
  <wgt id="600">6.27297e-12</wgt>
  <wgt id="601">6.16142e-12</wgt>
  <wgt id="602">6.23371e-12</wgt>
  <wgt id="603">6.26294e-12</wgt>
  <wgt id="604">6.41999e-12</wgt>
  <wgt id="605">6.59767e-12</wgt>
  <wgt id="606">6.17164e-12</wgt>
  <wgt id="607">6.24402e-12</wgt>
  <wgt id="608">6.31261e-12</wgt>
  <wgt id="609">5.96319e-12</wgt>
  <wgt id="610">6.0935e-12</wgt>
  <wgt id="611">6.44986e-12</wgt>
  <wgt id="612">6.80857e-12</wgt>
  <wgt id="613">6.3525e-12</wgt>
  <wgt id="614">6.42392e-12</wgt>
  <wgt id="615">6.20864e-12</wgt>
  <wgt id="616">6.76521e-12</wgt>
  <wgt id="617">6.56776e-12</wgt>
  <wgt id="618">6.2995e-12</wgt>
  <wgt id="619">6.30602e-12</wgt>
  <wgt id="620">6.55824e-12</wgt>
  <wgt id="621">6.44263e-12</wgt>
  <wgt id="622">6.40953e-12</wgt>
  <wgt id="623">6.50217e-12</wgt>
  <wgt id="624">6.29873e-12</wgt>
  <wgt id="625">6.27361e-12</wgt>
  <wgt id="626">6.21543e-12</wgt>
  <wgt id="627">6.12272e-12</wgt>
  <wgt id="628">6.69865e-12</wgt>
  <wgt id="629">6.19989e-12</wgt>
  <wgt id="630">6.17222e-12</wgt>
  <wgt id="631">6.3404e-12</wgt>
  <wgt id="632">6.17247e-12</wgt>
  <wgt id="633">6.25678e-12</wgt>
  <wgt id="634">6.38126e-12</wgt>
  <wgt id="635">6.3e-12</wgt>
  <wgt id="636">6.37404e-12</wgt>
  <wgt id="637">6.35639e-12</wgt>
  <wgt id="638">6.11909e-12</wgt>
  <wgt id="639">6.27539e-12</wgt>
  <wgt id="640">6.35564e-12</wgt>
  <wgt id="641">6.34334e-12</wgt>
  <wgt id="642">6.23883e-12</wgt>
  <wgt id="643">6.31968e-12</wgt>
  <wgt id="644">6.15305e-12</wgt>
  <wgt id="645">6.37949e-12</wgt>
  <wgt id="646">6.48096e-12</wgt>
  <wgt id="647">6.23536e-12</wgt>
  <wgt id="648">6.35896e-12</wgt>
  <wgt id="649">6.43975e-12</wgt>
  <wgt id="650">6.23204e-12</wgt>
  <wgt id="651">6.39434e-12</wgt>
  <wgt id="652">6.33487e-12</wgt>
  <wgt id="653">6.17904e-12</wgt>
  <wgt id="654">6.32368e-12</wgt>
  <wgt id="655">6.20434e-12</wgt>
  <wgt id="656">6.33792e-12</wgt>
  <wgt id="657">6.46448e-12</wgt>
  <wgt id="658">6.45146e-12</wgt>
  <wgt id="659">6.11754e-12</wgt>
  <wgt id="660">6.46363e-12</wgt>
  <wgt id="661">6.24736e-12</wgt>
  <wgt id="662">6.31745e-12</wgt>
  <wgt id="663">6.31835e-12</wgt>
  <wgt id="664">6.2343e-12</wgt>
  <wgt id="665">6.3143e-12</wgt>
  <wgt id="666">6.32669e-12</wgt>
  <wgt id="667">6.53197e-12</wgt>
  <wgt id="668">6.30662e-12</wgt>
  <wgt id="669">6.49754e-12</wgt>
  <wgt id="670">6.40877e-12</wgt>
  <wgt id="671">6.23673e-12</wgt>
  <wgt id="672">6.07599e-12</wgt>
  <wgt id="673">6.30942e-12</wgt>
  <wgt id="674">6.21464e-12</wgt>
  <wgt id="675">6.20573e-12</wgt>
  <wgt id="676">7.87251e-12</wgt>
  <wgt id="677">7.981e-12</wgt>
  <wgt id="678">8.21949e-12</wgt>
  <wgt id="679">7.487e-12</wgt>
  <wgt id="680">7.59498e-12</wgt>
  <wgt id="681">8.10823e-12</wgt>
  <wgt id="682">7.99064e-12</wgt>
  <wgt id="683">7.81627e-12</wgt>
  <wgt id="684">8.21297e-12</wgt>
  <wgt id="685">7.44865e-12</wgt>
  <wgt id="686">7.91426e-12</wgt>
  <wgt id="687">8.22358e-12</wgt>
  <wgt id="688">7.84552e-12</wgt>
  <wgt id="689">8.44796e-12</wgt>
  <wgt id="690">8.32069e-12</wgt>
  <wgt id="691">8.30818e-12</wgt>
  <wgt id="692">7.84396e-12</wgt>
  <wgt id="693">9.03099e-12</wgt>
  <wgt id="694">8.30391e-12</wgt>
  <wgt id="695">7.61995e-12</wgt>
  <wgt id="696">7.4905e-12</wgt>
  <wgt id="697">7.6508e-12</wgt>
  <wgt id="698">7.40877e-12</wgt>
  <wgt id="699">7.31954e-12</wgt>
  <wgt id="700">7.01273e-12</wgt>
  <wgt id="701">7.89214e-12</wgt>
  <wgt id="702">7.52593e-12</wgt>
  <wgt id="703">8.8919e-12</wgt>
  <wgt id="704">8.43795e-12</wgt>
  <wgt id="705">8.13758e-12</wgt>
  <wgt id="706">7.34492e-12</wgt>
  <wgt id="707">7.58198e-12</wgt>
  <wgt id="708">7.78578e-12</wgt>
  <wgt id="709">7.7486e-12</wgt>
  <wgt id="710">7.06201e-12</wgt>
  <wgt id="711">7.86601e-12</wgt>
  <wgt id="712">7.78442e-12</wgt>
  <wgt id="713">8.41019e-12</wgt>
  <wgt id="714">7.85457e-12</wgt>
  <wgt id="715">7.79794e-12</wgt>
  <wgt id="716">7.59023e-12</wgt>
  <wgt id="717">7.58779e-12</wgt>
  <wgt id="718">7.72837e-12</wgt>
  <wgt id="719">7.21849e-12</wgt>
  <wgt id="720">7.45698e-12</wgt>
  <wgt id="721">7.49309e-12</wgt>
  <wgt id="722">7.15024e-12</wgt>
  <wgt id="723">8.30566e-12</wgt>
  <wgt id="724">8.17416e-12</wgt>
  <wgt id="725">8.32048e-12</wgt>
  <wgt id="726">7.9655e-12</wgt>
  <wgt id="727">7.69179e-12</wgt>
  <wgt id="728">7.80395e-12</wgt>
  <wgt id="729">7.12123e-12</wgt>
  <wgt id="730">8.36294e-12</wgt>
  <wgt id="731">7.80307e-12</wgt>
  <wgt id="732">8.55912e-12</wgt>
  <wgt id="733">7.88581e-12</wgt>
  <wgt id="734">8.05471e-12</wgt>
  <wgt id="735">7.81863e-12</wgt>
  <wgt id="736">7.78302e-12</wgt>
  <wgt id="737">8.00769e-12</wgt>
  <wgt id="738">7.57122e-12</wgt>
  <wgt id="739">7.83897e-12</wgt>
  <wgt id="740">8.68053e-12</wgt>
  <wgt id="741">7.00879e-12</wgt>
  <wgt id="742">7.75561e-12</wgt>
  <wgt id="743">7.64845e-12</wgt>
  <wgt id="744">7.72106e-12</wgt>
  <wgt id="745">8.15901e-12</wgt>
  <wgt id="746">8.25116e-12</wgt>
  <wgt id="747">7.29087e-12</wgt>
  <wgt id="748">7.74824e-12</wgt>
  <wgt id="749">8.31764e-12</wgt>
  <wgt id="750">7.78453e-12</wgt>
  <wgt id="751">8.16512e-12</wgt>
  <wgt id="752">7.28641e-12</wgt>
  <wgt id="753">7.5242e-12</wgt>
  <wgt id="754">8.10986e-12</wgt>
  <wgt id="755">7.92743e-12</wgt>
  <wgt id="756">7.92343e-12</wgt>
  <wgt id="757">7.34015e-12</wgt>
  <wgt id="758">7.98349e-12</wgt>
  <wgt id="759">7.81497e-12</wgt>
  <wgt id="760">8.02701e-12</wgt>
  <wgt id="761">8.27958e-12</wgt>
  <wgt id="762">8.28355e-12</wgt>
  <wgt id="763">7.89147e-12</wgt>
  <wgt id="764">8.1437e-12</wgt>
  <wgt id="765">7.95417e-12</wgt>
  <wgt id="766">7.84307e-12</wgt>
  <wgt id="767">8.05255e-12</wgt>
  <wgt id="768">7.50151e-12</wgt>
  <wgt id="769">8.31235e-12</wgt>
  <wgt id="770">7.64122e-12</wgt>
  <wgt id="771">9.18279e-12</wgt>
  <wgt id="772">7.41219e-12</wgt>
  <wgt id="773">7.8446e-12</wgt>
  <wgt id="774">7.15415e-12</wgt>
  <wgt id="775">8.23555e-12</wgt>
  <wgt id="776">8.59174e-12</wgt>
  <wgt id="777">7.64937e-12</wgt>
  <wgt id="778">5.93104e-12</wgt>
  <wgt id="779">5.09951e-12</wgt>
  <wgt id="780">4.34275e-12</wgt>
  <wgt id="781">5.8788e-12</wgt>
  <wgt id="782">6.27081e-12</wgt>
  <wgt id="783">5.20087e-12</wgt>
  <wgt id="784">5.30802e-12</wgt>
  <wgt id="785">7.06378e-12</wgt>
  <wgt id="786">4.66766e-12</wgt>
  <wgt id="787">6.60358e-12</wgt>
  <wgt id="788">4.03832e-12</wgt>
  <wgt id="789">4.78622e-12</wgt>
  <wgt id="790">4.65937e-12</wgt>
  <wgt id="791">5.48407e-12</wgt>
  <wgt id="792">7.50358e-12</wgt>
  <wgt id="793">5.7178e-12</wgt>
  <wgt id="794">4.76119e-12</wgt>
  <wgt id="795">6.72997e-12</wgt>
  <wgt id="796">7.66482e-12</wgt>
  <wgt id="797">6.69627e-12</wgt>
  <wgt id="798">5.57085e-12</wgt>
  <wgt id="799">6.64346e-12</wgt>
  <wgt id="800">4.8535e-12</wgt>
  <wgt id="801">5.62088e-12</wgt>
  <wgt id="802">4.80827e-12</wgt>
  <wgt id="803">7.64383e-12</wgt>
  <wgt id="804">6.68642e-12</wgt>
  <wgt id="805">6.82258e-12</wgt>
  <wgt id="806">6.70956e-12</wgt>
  <wgt id="807">5.70303e-12</wgt>
  <wgt id="808">5.80792e-12</wgt>
  <wgt id="809">5.48198e-12</wgt>
  <wgt id="810">6.78026e-12</wgt>
  <wgt id="811">6.4323e-12</wgt>
  <wgt id="812">4.71833e-12</wgt>
  <wgt id="813">4.77525e-12</wgt>
  <wgt id="814">5.05395e-12</wgt>
  <wgt id="815">5.11866e-12</wgt>
  <wgt id="816">4.5418e-12</wgt>
  <wgt id="817">6.25846e-12</wgt>
  <wgt id="818">5.74125e-12</wgt>
  <wgt id="819">5.1169e-12</wgt>
  <wgt id="820">5.96137e-12</wgt>
  <wgt id="821">6.69776e-12</wgt>
  <wgt id="822">5.1546e-12</wgt>
  <wgt id="823">6.69975e-12</wgt>
  <wgt id="824">7.84371e-12</wgt>
  <wgt id="825">4.58294e-12</wgt>
  <wgt id="826">6.12753e-12</wgt>
  <wgt id="827">3.86576e-12</wgt>
  <wgt id="828">7.58035e-12</wgt>
  <wgt id="829">6.11418e-12</wgt>
  <wgt id="830">4.3599e-12</wgt>
  <wgt id="831">6.30209e-12</wgt>
  <wgt id="832">9.43061e-12</wgt>
  <wgt id="833">5.65203e-12</wgt>
  <wgt id="834">8.81773e-12</wgt>
  <wgt id="835">4.88239e-12</wgt>
  <wgt id="836">5.99704e-12</wgt>
  <wgt id="837">6.61551e-12</wgt>
  <wgt id="838">5.7175e-12</wgt>
  <wgt id="839">6.2758e-12</wgt>
  <wgt id="840">5.65074e-12</wgt>
  <wgt id="841">7.06249e-12</wgt>
  <wgt id="842">5.46056e-12</wgt>
  <wgt id="843">5.7487e-12</wgt>
  <wgt id="844">6.12216e-12</wgt>
  <wgt id="845">7.9283e-12</wgt>
  <wgt id="846">5.44874e-12</wgt>
  <wgt id="847">5.85763e-12</wgt>
  <wgt id="848">5.31142e-12</wgt>
  <wgt id="849">6.0548e-12</wgt>
  <wgt id="850">7.4773e-12</wgt>
  <wgt id="851">6.43588e-12</wgt>
  <wgt id="852">5.26425e-12</wgt>
  <wgt id="853">6.39382e-12</wgt>
  <wgt id="854">7.06776e-12</wgt>
  <wgt id="855">6.70799e-12</wgt>
  <wgt id="856">4.47386e-12</wgt>
  <wgt id="857">6.01303e-12</wgt>
  <wgt id="858">5.91458e-12</wgt>
  <wgt id="859">5.53513e-12</wgt>
  <wgt id="860">6.20732e-12</wgt>
  <wgt id="861">5.36563e-12</wgt>
  <wgt id="862">6.0277e-12</wgt>
  <wgt id="863">6.18109e-12</wgt>
  <wgt id="864">6.22694e-12</wgt>
  <wgt id="865">8.21212e-12</wgt>
  <wgt id="866">8.97215e-12</wgt>
  <wgt id="867">5.97725e-12</wgt>
  <wgt id="868">5.8358e-12</wgt>
  <wgt id="869">4.76727e-12</wgt>
  <wgt id="870">5.0079e-12</wgt>
  <wgt id="871">4.87271e-12</wgt>
  <wgt id="872">6.86203e-12</wgt>
  <wgt id="873">4.96881e-12</wgt>
  <wgt id="874">6.16598e-12</wgt>
  <wgt id="875">5.21163e-12</wgt>
  <wgt id="876">6.88222e-12</wgt>
  <wgt id="877">6.66977e-12</wgt>
  <wgt id="878">5.25484e-12</wgt>
  <wgt id="879">7.87251e-12</wgt>
  <wgt id="880">7.981e-12</wgt>
  <wgt id="881">8.21949e-12</wgt>
  <wgt id="882">7.487e-12</wgt>
  <wgt id="883">7.59498e-12</wgt>
  <wgt id="884">8.10823e-12</wgt>
  <wgt id="885">7.99064e-12</wgt>
  <wgt id="886">7.81627e-12</wgt>
  <wgt id="887">8.21297e-12</wgt>
  <wgt id="888">7.44865e-12</wgt>
  <wgt id="889">7.91426e-12</wgt>
  <wgt id="890">8.22358e-12</wgt>
  <wgt id="891">7.84552e-12</wgt>
  <wgt id="892">8.44796e-12</wgt>
  <wgt id="893">8.32069e-12</wgt>
  <wgt id="894">8.30818e-12</wgt>
  <wgt id="895">7.84396e-12</wgt>
  <wgt id="896">9.03099e-12</wgt>
  <wgt id="897">8.30391e-12</wgt>
  <wgt id="898">7.61995e-12</wgt>
  <wgt id="899">7.4905e-12</wgt>
  <wgt id="900">7.6508e-12</wgt>
  <wgt id="901">7.40877e-12</wgt>
  <wgt id="902">7.31954e-12</wgt>
  <wgt id="903">7.01273e-12</wgt>
  <wgt id="904">7.89214e-12</wgt>
  <wgt id="905">7.52593e-12</wgt>
  <wgt id="906">8.8919e-12</wgt>
  <wgt id="907">8.43795e-12</wgt>
  <wgt id="908">8.13758e-12</wgt>
  <wgt id="909">7.34492e-12</wgt>
  <wgt id="910">7.58198e-12</wgt>
  <wgt id="911">7.78578e-12</wgt>
  <wgt id="912">7.7486e-12</wgt>
  <wgt id="913">7.06201e-12</wgt>
  <wgt id="914">7.86601e-12</wgt>
  <wgt id="915">7.78442e-12</wgt>
  <wgt id="916">8.41019e-12</wgt>
  <wgt id="917">7.85457e-12</wgt>
  <wgt id="918">7.79794e-12</wgt>
  <wgt id="919">7.59023e-12</wgt>
  <wgt id="920">7.58779e-12</wgt>
  <wgt id="921">7.72837e-12</wgt>
  <wgt id="922">7.21849e-12</wgt>
  <wgt id="923">7.45698e-12</wgt>
  <wgt id="924">7.49309e-12</wgt>
  <wgt id="925">7.15024e-12</wgt>
  <wgt id="926">8.30566e-12</wgt>
  <wgt id="927">8.17416e-12</wgt>
  <wgt id="928">8.32048e-12</wgt>
  <wgt id="929">7.9655e-12</wgt>
  <wgt id="930">7.69179e-12</wgt>
  <wgt id="931">7.80395e-12</wgt>
  <wgt id="932">7.12123e-12</wgt>
  <wgt id="933">8.36294e-12</wgt>
  <wgt id="934">7.80307e-12</wgt>
  <wgt id="935">8.55912e-12</wgt>
  <wgt id="936">7.88581e-12</wgt>
  <wgt id="937">8.05471e-12</wgt>
  <wgt id="938">7.81863e-12</wgt>
  <wgt id="939">7.78302e-12</wgt>
  <wgt id="940">8.00769e-12</wgt>
  <wgt id="941">7.57122e-12</wgt>
  <wgt id="942">7.83897e-12</wgt>
  <wgt id="943">8.68053e-12</wgt>
  <wgt id="944">7.00879e-12</wgt>
  <wgt id="945">7.75561e-12</wgt>
  <wgt id="946">7.64845e-12</wgt>
  <wgt id="947">7.72106e-12</wgt>
  <wgt id="948">8.15901e-12</wgt>
  <wgt id="949">8.25116e-12</wgt>
  <wgt id="950">7.29087e-12</wgt>
  <wgt id="951">7.74824e-12</wgt>
  <wgt id="952">8.31764e-12</wgt>
  <wgt id="953">7.78453e-12</wgt>
  <wgt id="954">8.16512e-12</wgt>
  <wgt id="955">7.28641e-12</wgt>
  <wgt id="956">7.5242e-12</wgt>
  <wgt id="957">8.10986e-12</wgt>
  <wgt id="958">7.92743e-12</wgt>
  <wgt id="959">7.92343e-12</wgt>
  <wgt id="960">7.34015e-12</wgt>
  <wgt id="961">7.98349e-12</wgt>
  <wgt id="962">7.81497e-12</wgt>
  <wgt id="963">8.02701e-12</wgt>
  <wgt id="964">8.27958e-12</wgt>
  <wgt id="965">8.28355e-12</wgt>
  <wgt id="966">7.89147e-12</wgt>
  <wgt id="967">8.1437e-12</wgt>
  <wgt id="968">7.95417e-12</wgt>
  <wgt id="969">7.84307e-12</wgt>
  <wgt id="970">8.05255e-12</wgt>
  <wgt id="971">7.50151e-12</wgt>
  <wgt id="972">8.31235e-12</wgt>
  <wgt id="973">7.64122e-12</wgt>
  <wgt id="974">9.18279e-12</wgt>
  <wgt id="975">7.41219e-12</wgt>
  <wgt id="976">7.8446e-12</wgt>
  <wgt id="977">7.15415e-12</wgt>
  <wgt id="978">8.23555e-12</wgt>
  <wgt id="979">8.59174e-12</wgt>
  <wgt id="980">7.88939e-12</wgt>
  <wgt id="981">7.89898e-12</wgt>
  <wgt id="982">7.65865e-12</wgt>
</rwgt>
</event>
<event>
 5   1  0.5790000E-11  0.2190912E+04  0.7818608E-02  0.7752300E-01
       21   -1    0    0  502  501  0.00000000000E+00  0.00000000000E+00  0.10484701005E+04  0.10484701005E+04  0.00000000000E+00 0.  1.
       21   -1    0    0  501  502 -0.00000000000E+00 -0.00000000000E+00 -0.11445477114E+04  0.11445477114E+04  0.00000000000E+00 0. -1.
       39    2    1    2    0    0  0.00000000000E+00  0.00000000000E+00 -0.96077610922E+02  0.21930178119E+04  0.21909121881E+04 0.  0.
       25    1    3    3    0    0  0.22456731390E+03 -0.88614114364E+03  0.54305599719E+03  0.10706126382E+04  0.12500000000E+03 0.  0.
       25    1    3    3    0    0 -0.22456731390E+03  0.88614114364E+03 -0.63913360811E+03  0.11224051737E+04  0.12500000000E+03 0.  0.
<mgrwt>
<rscale>  0 0.21909122E+04</rscale>
<asrwt>0</asrwt>
<pdfrwt beam="1">  1       21 0.16130309E+00 0.21909122E+04</pdfrwt>
<pdfrwt beam="2">  1       21 0.17608426E+00 0.21909122E+04</pdfrwt>
<totfact> 0.19543687E+01</totfact>
</mgrwt>
<rwgt>
  <wgt id="1">5.79e-12</wgt>
  <wgt id="2">5.0572e-12</wgt>
  <wgt id="3">6.6964e-12</wgt>
  <wgt id="4">5.79e-12</wgt>
  <wgt id="5">5.0572e-12</wgt>
  <wgt id="6">6.6964e-12</wgt>
  <wgt id="7">5.79e-12</wgt>
  <wgt id="8">5.0572e-12</wgt>
  <wgt id="9">6.6964e-12</wgt>
  <wgt id="10">5.95028e-12</wgt>
  <wgt id="11">5.94405e-12</wgt>
  <wgt id="12">5.93842e-12</wgt>
  <wgt id="13">5.92965e-12</wgt>
  <wgt id="14">5.97139e-12</wgt>
  <wgt id="15">5.95838e-12</wgt>
  <wgt id="16">5.93635e-12</wgt>
  <wgt id="17">5.95874e-12</wgt>
  <wgt id="18">5.94226e-12</wgt>
  <wgt id="19">5.96264e-12</wgt>
  <wgt id="20">5.9321e-12</wgt>
  <wgt id="21">5.92057e-12</wgt>
  <wgt id="22">5.93424e-12</wgt>
  <wgt id="23">5.90178e-12</wgt>
  <wgt id="24">5.92558e-12</wgt>
  <wgt id="25">5.93593e-12</wgt>
  <wgt id="26">5.97584e-12</wgt>
  <wgt id="27">5.95013e-12</wgt>
  <wgt id="28">5.92261e-12</wgt>
  <wgt id="29">5.95704e-12</wgt>
  <wgt id="30">5.93757e-12</wgt>
  <wgt id="31">5.96459e-12</wgt>
  <wgt id="32">5.93907e-12</wgt>
  <wgt id="33">5.96332e-12</wgt>
  <wgt id="34">5.93422e-12</wgt>
  <wgt id="35">5.94444e-12</wgt>
  <wgt id="36">5.96364e-12</wgt>
  <wgt id="37">5.9352e-12</wgt>
  <wgt id="38">5.9362e-12</wgt>
  <wgt id="39">6.00849e-12</wgt>
  <wgt id="40">5.96639e-12</wgt>
  <wgt id="41">5.94909e-12</wgt>
  <wgt id="42">5.97073e-12</wgt>
  <wgt id="43">5.95681e-12</wgt>
  <wgt id="44">5.92289e-12</wgt>
  <wgt id="45">5.95947e-12</wgt>
  <wgt id="46">5.95828e-12</wgt>
  <wgt id="47">5.92107e-12</wgt>
  <wgt id="48">5.95139e-12</wgt>
  <wgt id="49">5.97817e-12</wgt>
  <wgt id="50">5.99301e-12</wgt>
  <wgt id="51">5.9778e-12</wgt>
  <wgt id="52">5.92516e-12</wgt>
  <wgt id="53">5.91379e-12</wgt>
  <wgt id="54">5.93751e-12</wgt>
  <wgt id="55">5.94858e-12</wgt>
  <wgt id="56">5.96656e-12</wgt>
  <wgt id="57">5.9712e-12</wgt>
  <wgt id="58">5.90781e-12</wgt>
  <wgt id="59">5.93015e-12</wgt>
  <wgt id="60">5.95033e-12</wgt>
  <wgt id="61">5.94839e-12</wgt>
  <wgt id="62">5.95349e-12</wgt>
  <wgt id="63">5.96081e-12</wgt>
  <wgt id="64">5.95749e-12</wgt>
  <wgt id="65">5.95418e-12</wgt>
  <wgt id="66">5.94346e-12</wgt>
  <wgt id="67">5.94759e-12</wgt>
  <wgt id="68">5.9439e-12</wgt>
  <wgt id="69">5.94731e-12</wgt>
  <wgt id="70">5.9452e-12</wgt>
  <wgt id="71">5.94622e-12</wgt>
  <wgt id="72">5.94497e-12</wgt>
  <wgt id="73">5.95523e-12</wgt>
  <wgt id="74">5.95335e-12</wgt>
  <wgt id="75">5.95185e-12</wgt>
  <wgt id="76">5.96527e-12</wgt>
  <wgt id="77">5.94933e-12</wgt>
  <wgt id="78">5.95212e-12</wgt>
  <wgt id="79">5.95898e-12</wgt>
  <wgt id="80">5.92717e-12</wgt>
  <wgt id="81">5.94293e-12</wgt>
  <wgt id="82">5.95047e-12</wgt>
  <wgt id="83">5.93093e-12</wgt>
  <wgt id="84">5.93814e-12</wgt>
  <wgt id="85">5.94277e-12</wgt>
  <wgt id="86">5.95968e-12</wgt>
  <wgt id="87">5.9265e-12</wgt>
  <wgt id="88">5.9561e-12</wgt>
  <wgt id="89">5.95502e-12</wgt>
  <wgt id="90">5.95587e-12</wgt>
  <wgt id="91">5.95353e-12</wgt>
  <wgt id="92">5.95964e-12</wgt>
  <wgt id="93">5.94914e-12</wgt>
  <wgt id="94">5.94622e-12</wgt>
  <wgt id="95">5.95286e-12</wgt>
  <wgt id="96">5.95386e-12</wgt>
  <wgt id="97">5.94417e-12</wgt>
  <wgt id="98">5.95328e-12</wgt>
  <wgt id="99">5.94885e-12</wgt>
  <wgt id="100">5.95617e-12</wgt>
  <wgt id="101">5.94855e-12</wgt>
  <wgt id="102">5.94527e-12</wgt>
  <wgt id="103">5.95714e-12</wgt>
  <wgt id="104">5.94558e-12</wgt>
  <wgt id="105">5.95432e-12</wgt>
  <wgt id="106">5.94435e-12</wgt>
  <wgt id="107">5.96352e-12</wgt>
  <wgt id="108">5.94508e-12</wgt>
  <wgt id="109">5.95368e-12</wgt>
  <wgt id="110">5.94859e-12</wgt>
  <wgt id="111">6.02331e-12</wgt>
  <wgt id="112">5.93249e-12</wgt>
  <wgt id="113">7.82117e-12</wgt>
  <wgt id="114">8.16318e-12</wgt>
  <wgt id="115">8.05466e-12</wgt>
  <wgt id="116">1.10383e-11</wgt>
  <wgt id="117">6.55302e-12</wgt>
  <wgt id="118">6.57419e-12</wgt>
  <wgt id="119">6.54116e-12</wgt>
  <wgt id="120">6.55378e-12</wgt>
  <wgt id="121">6.55252e-12</wgt>
  <wgt id="122">6.54125e-12</wgt>
  <wgt id="123">6.5694e-12</wgt>
  <wgt id="124">6.54362e-12</wgt>
  <wgt id="125">6.55939e-12</wgt>
  <wgt id="126">6.56426e-12</wgt>
  <wgt id="127">6.54569e-12</wgt>
  <wgt id="128">6.57373e-12</wgt>
  <wgt id="129">6.53249e-12</wgt>
  <wgt id="130">6.5911e-12</wgt>
  <wgt id="131">6.51412e-12</wgt>
  <wgt id="132">6.38841e-12</wgt>
  <wgt id="133">6.74682e-12</wgt>
  <wgt id="134">6.48567e-12</wgt>
  <wgt id="135">6.60555e-12</wgt>
  <wgt id="136">6.63134e-12</wgt>
  <wgt id="137">6.45817e-12</wgt>
  <wgt id="138">6.79079e-12</wgt>
  <wgt id="139">6.3218e-12</wgt>
  <wgt id="140">6.50774e-12</wgt>
  <wgt id="141">6.58868e-12</wgt>
  <wgt id="142">6.5543e-12</wgt>
  <wgt id="143">6.5602e-12</wgt>
  <wgt id="144">6.39709e-12</wgt>
  <wgt id="145">6.69552e-12</wgt>
  <wgt id="146">6.60256e-12</wgt>
  <wgt id="147">6.5146e-12</wgt>
  <wgt id="148">6.57163e-12</wgt>
  <wgt id="149">6.55185e-12</wgt>
  <wgt id="150">6.60843e-12</wgt>
  <wgt id="151">6.52721e-12</wgt>
  <wgt id="152">6.55568e-12</wgt>
  <wgt id="153">6.55205e-12</wgt>
  <wgt id="154">6.61269e-12</wgt>
  <wgt id="155">6.48356e-12</wgt>
  <wgt id="156">6.65685e-12</wgt>
  <wgt id="157">6.43582e-12</wgt>
  <wgt id="158">7.88656e-12</wgt>
  <wgt id="159">7.91915e-12</wgt>
  <wgt id="160">7.86027e-12</wgt>
  <wgt id="161">7.86793e-12</wgt>
  <wgt id="162">7.9074e-12</wgt>
  <wgt id="163">7.87872e-12</wgt>
  <wgt id="164">7.89857e-12</wgt>
  <wgt id="165">7.88978e-12</wgt>
  <wgt id="166">7.88448e-12</wgt>
  <wgt id="167">7.88085e-12</wgt>
  <wgt id="168">7.89484e-12</wgt>
  <wgt id="169">7.85267e-12</wgt>
  <wgt id="170">7.90802e-12</wgt>
  <wgt id="171">7.87828e-12</wgt>
  <wgt id="172">7.89845e-12</wgt>
  <wgt id="173">7.88852e-12</wgt>
  <wgt id="174">7.88562e-12</wgt>
  <wgt id="175">7.67398e-12</wgt>
  <wgt id="176">8.16276e-12</wgt>
  <wgt id="177">7.92647e-12</wgt>
  <wgt id="178">7.8496e-12</wgt>
  <wgt id="179">8.19257e-12</wgt>
  <wgt id="180">7.40101e-12</wgt>
  <wgt id="181">7.67168e-12</wgt>
  <wgt id="182">8.02813e-12</wgt>
  <wgt id="183">7.75498e-12</wgt>
  <wgt id="184">7.95217e-12</wgt>
  <wgt id="185">7.82754e-12</wgt>
  <wgt id="186">7.95639e-12</wgt>
  <wgt id="187">7.8196e-12</wgt>
  <wgt id="188">8.00782e-12</wgt>
  <wgt id="189">7.84003e-12</wgt>
  <wgt id="190">7.90582e-12</wgt>
  <wgt id="191">7.90639e-12</wgt>
  <wgt id="192">7.87509e-12</wgt>
  <wgt id="193">7.9905e-12</wgt>
  <wgt id="194">7.8353e-12</wgt>
  <wgt id="195">7.72851e-12</wgt>
  <wgt id="196">8.18676e-12</wgt>
  <wgt id="197">7.92371e-12</wgt>
  <wgt id="198">7.87789e-12</wgt>
  <wgt id="199">7.88656e-12</wgt>
  <wgt id="200">7.9507e-12</wgt>
  <wgt id="201">7.92664e-12</wgt>
  <wgt id="202">7.90389e-12</wgt>
  <wgt id="203">7.86883e-12</wgt>
  <wgt id="204">7.85237e-12</wgt>
  <wgt id="205">7.83874e-12</wgt>
  <wgt id="206">7.67456e-12</wgt>
  <wgt id="207">7.71885e-12</wgt>
  <wgt id="208">7.63086e-12</wgt>
  <wgt id="209">7.69574e-12</wgt>
  <wgt id="210">7.65908e-12</wgt>
  <wgt id="211">7.6723e-12</wgt>
  <wgt id="212">7.67651e-12</wgt>
  <wgt id="213">7.67385e-12</wgt>
  <wgt id="214">7.67572e-12</wgt>
  <wgt id="215">7.6797e-12</wgt>
  <wgt id="216">7.67107e-12</wgt>
  <wgt id="217">7.6961e-12</wgt>
  <wgt id="218">7.65828e-12</wgt>
  <wgt id="219">7.66516e-12</wgt>
  <wgt id="220">7.68024e-12</wgt>
  <wgt id="221">7.67069e-12</wgt>
  <wgt id="222">7.68416e-12</wgt>
  <wgt id="223">7.28793e-12</wgt>
  <wgt id="224">8.02579e-12</wgt>
  <wgt id="225">7.58833e-12</wgt>
  <wgt id="226">7.78272e-12</wgt>
  <wgt id="227">7.60546e-12</wgt>
  <wgt id="228">7.7049e-12</wgt>
  <wgt id="229">7.57231e-12</wgt>
  <wgt id="230">7.72547e-12</wgt>
  <wgt id="231">7.8804e-12</wgt>
  <wgt id="232">7.50514e-12</wgt>
  <wgt id="233">7.63746e-12</wgt>
  <wgt id="234">7.7308e-12</wgt>
  <wgt id="235">7.55787e-12</wgt>
  <wgt id="236">7.79342e-12</wgt>
  <wgt id="237">7.58835e-12</wgt>
  <wgt id="238">7.70447e-12</wgt>
  <wgt id="239">7.63606e-12</wgt>
  <wgt id="240">7.745e-12</wgt>
  <wgt id="241">7.60269e-12</wgt>
  <wgt id="242">7.76135e-12</wgt>
  <wgt id="243">7.74784e-12</wgt>
  <wgt id="244">7.72722e-12</wgt>
  <wgt id="245">7.66816e-12</wgt>
  <wgt id="246">7.7352e-12</wgt>
  <wgt id="247">7.67456e-12</wgt>
  <wgt id="248">7.73689e-12</wgt>
  <wgt id="249">7.71262e-12</wgt>
  <wgt id="250">7.69052e-12</wgt>
  <wgt id="251">7.65656e-12</wgt>
  <wgt id="252">7.64077e-12</wgt>
  <wgt id="253">7.62916e-12</wgt>
  <wgt id="254">7.52548e-12</wgt>
  <wgt id="255">7.53301e-12</wgt>
  <wgt id="256">7.51766e-12</wgt>
  <wgt id="257">7.53137e-12</wgt>
  <wgt id="258">7.5212e-12</wgt>
  <wgt id="259">7.57576e-12</wgt>
  <wgt id="260">7.47733e-12</wgt>
  <wgt id="261">7.53404e-12</wgt>
  <wgt id="262">7.51558e-12</wgt>
  <wgt id="263">7.52296e-12</wgt>
  <wgt id="264">7.5286e-12</wgt>
  <wgt id="265">7.51761e-12</wgt>
  <wgt id="266">7.541e-12</wgt>
  <wgt id="267">7.52788e-12</wgt>
  <wgt id="268">7.52259e-12</wgt>
  <wgt id="269">7.54774e-12</wgt>
  <wgt id="270">7.51048e-12</wgt>
  <wgt id="271">7.51381e-12</wgt>
  <wgt id="272">7.53894e-12</wgt>
  <wgt id="273">7.50295e-12</wgt>
  <wgt id="274">7.54296e-12</wgt>
  <wgt id="275">7.49826e-12</wgt>
  <wgt id="276">7.55354e-12</wgt>
  <wgt id="277">7.48472e-12</wgt>
  <wgt id="278">7.5631e-12</wgt>
  <wgt id="279">7.38775e-12</wgt>
  <wgt id="280">7.69779e-12</wgt>
  <wgt id="281">7.49502e-12</wgt>
  <wgt id="282">7.52584e-12</wgt>
  <wgt id="283">7.32605e-12</wgt>
  <wgt id="284">7.77025e-12</wgt>
  <wgt id="285">7.19257e-12</wgt>
  <wgt id="286">7.79858e-12</wgt>
  <wgt id="287">7.54729e-12</wgt>
  <wgt id="288">7.49751e-12</wgt>
  <wgt id="289">7.57392e-12</wgt>
  <wgt id="290">7.41044e-12</wgt>
  <wgt id="291">7.5086e-12</wgt>
  <wgt id="292">7.52978e-12</wgt>
  <wgt id="293">7.47223e-12</wgt>
  <wgt id="294">7.57849e-12</wgt>
  <wgt id="295">7.39315e-12</wgt>
  <wgt id="296">7.6868e-12</wgt>
  <wgt id="297">7.53022e-12</wgt>
  <wgt id="298">7.5483e-12</wgt>
  <wgt id="299">7.50321e-12</wgt>
  <wgt id="300">7.58424e-12</wgt>
  <wgt id="301">7.44634e-12</wgt>
  <wgt id="302">7.744e-12</wgt>
  <wgt id="303">7.4801e-12</wgt>
  <wgt id="304">7.55244e-12</wgt>
  <wgt id="305">7.56967e-12</wgt>
  <wgt id="306">7.57752e-12</wgt>
  <wgt id="307">7.56162e-12</wgt>
  <wgt id="308">7.57647e-12</wgt>
  <wgt id="309">7.5652e-12</wgt>
  <wgt id="310">7.62186e-12</wgt>
  <wgt id="311">7.52157e-12</wgt>
  <wgt id="312">7.57586e-12</wgt>
  <wgt id="313">7.56398e-12</wgt>
  <wgt id="314">7.56738e-12</wgt>
  <wgt id="315">7.57221e-12</wgt>
  <wgt id="316">7.56232e-12</wgt>
  <wgt id="317">7.58606e-12</wgt>
  <wgt id="318">7.57474e-12</wgt>
  <wgt id="319">7.56143e-12</wgt>
  <wgt id="320">7.59287e-12</wgt>
  <wgt id="321">7.55684e-12</wgt>
  <wgt id="322">7.55358e-12</wgt>
  <wgt id="323">7.58873e-12</wgt>
  <wgt id="324">7.55091e-12</wgt>
  <wgt id="325">7.58635e-12</wgt>
  <wgt id="326">7.54789e-12</wgt>
  <wgt id="327">7.5977e-12</wgt>
  <wgt id="328">7.53246e-12</wgt>
  <wgt id="329">7.59109e-12</wgt>
  <wgt id="330">7.7842e-12</wgt>
  <wgt id="331">7.36483e-12</wgt>
  <wgt id="332">7.54441e-12</wgt>
  <wgt id="333">7.5691e-12</wgt>
  <wgt id="334">7.41167e-12</wgt>
  <wgt id="335">7.76512e-12</wgt>
  <wgt id="336">7.32667e-12</wgt>
  <wgt id="337">7.86337e-12</wgt>
  <wgt id="338">7.64764e-12</wgt>
  <wgt id="339">7.49754e-12</wgt>
  <wgt id="340">7.61632e-12</wgt>
  <wgt id="341">7.44846e-12</wgt>
  <wgt id="342">7.5584e-12</wgt>
  <wgt id="343">7.56354e-12</wgt>
  <wgt id="344">7.52099e-12</wgt>
  <wgt id="345">7.62646e-12</wgt>
  <wgt id="346">7.43173e-12</wgt>
  <wgt id="347">7.72895e-12</wgt>
  <wgt id="348">7.57836e-12</wgt>
  <wgt id="349">7.58716e-12</wgt>
  <wgt id="350">7.54155e-12</wgt>
  <wgt id="351">7.64171e-12</wgt>
  <wgt id="352">7.48024e-12</wgt>
  <wgt id="353">7.80287e-12</wgt>
  <wgt id="354">7.49866e-12</wgt>
  <wgt id="355">7.61432e-12</wgt>
  <wgt id="356">7.52548e-12</wgt>
  <wgt id="357">7.60686e-12</wgt>
  <wgt id="358">7.56967e-12</wgt>
  <wgt id="359">7.55797e-12</wgt>
  <wgt id="360">7.55568e-12</wgt>
  <wgt id="361">7.5448e-12</wgt>
  <wgt id="362">7.66535e-12</wgt>
  <wgt id="363">7.64815e-12</wgt>
  <wgt id="364">7.62555e-12</wgt>
  <wgt id="365">7.60182e-12</wgt>
  <wgt id="366">7.57476e-12</wgt>
  <wgt id="367">7.51758e-12</wgt>
  <wgt id="368">7.487e-12</wgt>
  <wgt id="369">7.45386e-12</wgt>
  <wgt id="370">7.5448e-12</wgt>
  <wgt id="371">7.57828e-12</wgt>
  <wgt id="372">7.55997e-12</wgt>
  <wgt id="373">7.53249e-12</wgt>
  <wgt id="374">7.52757e-12</wgt>
  <wgt id="375">7.94139e-12</wgt>
  <wgt id="376">7.94245e-12</wgt>
  <wgt id="377">7.94013e-12</wgt>
  <wgt id="378">7.96967e-12</wgt>
  <wgt id="379">7.91329e-12</wgt>
  <wgt id="380">7.96292e-12</wgt>
  <wgt id="381">7.93266e-12</wgt>
  <wgt id="382">7.9802e-12</wgt>
  <wgt id="383">7.90279e-12</wgt>
  <wgt id="384">7.94655e-12</wgt>
  <wgt id="385">7.93636e-12</wgt>
  <wgt id="386">7.97141e-12</wgt>
  <wgt id="387">7.92828e-12</wgt>
  <wgt id="388">7.93418e-12</wgt>
  <wgt id="389">7.95002e-12</wgt>
  <wgt id="390">7.96197e-12</wgt>
  <wgt id="391">7.9196e-12</wgt>
  <wgt id="392">7.88761e-12</wgt>
  <wgt id="393">7.97165e-12</wgt>
  <wgt id="394">7.95277e-12</wgt>
  <wgt id="395">7.92523e-12</wgt>
  <wgt id="396">7.94312e-12</wgt>
  <wgt id="397">7.93989e-12</wgt>
  <wgt id="398">7.90787e-12</wgt>
  <wgt id="399">7.9737e-12</wgt>
  <wgt id="400">7.92885e-12</wgt>
  <wgt id="401">7.96926e-12</wgt>
  <wgt id="402">7.88192e-12</wgt>
  <wgt id="403">7.96462e-12</wgt>
  <wgt id="404">8.10727e-12</wgt>
  <wgt id="405">7.53934e-12</wgt>
  <wgt id="406">7.82191e-12</wgt>
  <wgt id="407">8.1984e-12</wgt>
  <wgt id="408">8.00265e-12</wgt>
  <wgt id="409">7.82296e-12</wgt>
  <wgt id="410">7.74411e-12</wgt>
  <wgt id="411">8.03102e-12</wgt>
  <wgt id="412">7.92888e-12</wgt>
  <wgt id="413">7.95834e-12</wgt>
  <wgt id="414">7.86277e-12</wgt>
  <wgt id="415">8.00228e-12</wgt>
  <wgt id="416">8.12511e-12</wgt>
  <wgt id="417">7.68691e-12</wgt>
  <wgt id="418">7.95056e-12</wgt>
  <wgt id="419">7.89115e-12</wgt>
  <wgt id="420">8.02857e-12</wgt>
  <wgt id="421">7.89738e-12</wgt>
  <wgt id="422">7.9405e-12</wgt>
  <wgt id="423">7.94392e-12</wgt>
  <wgt id="424">8.0714e-12</wgt>
  <wgt id="425">7.86292e-12</wgt>
  <wgt id="426">7.94139e-12</wgt>
  <wgt id="427">7.89081e-12</wgt>
  <wgt id="428">8.10429e-12</wgt>
  <wgt id="429">7.99996e-12</wgt>
  <wgt id="430">8.2062e-12</wgt>
  <wgt id="431">8.16544e-12</wgt>
  <wgt id="432">8.12609e-12</wgt>
  <wgt id="433">8.08801e-12</wgt>
  <wgt id="434">8.04292e-12</wgt>
  <wgt id="435">7.94616e-12</wgt>
  <wgt id="436">7.89599e-12</wgt>
  <wgt id="437">7.84895e-12</wgt>
  <wgt id="438">7.99996e-12</wgt>
  <wgt id="439">8.02629e-12</wgt>
  <wgt id="440">8.01114e-12</wgt>
  <wgt id="441">7.9916e-12</wgt>
  <wgt id="442">7.98422e-12</wgt>
  <wgt id="443">7.84531e-12</wgt>
  <wgt id="444">7.87805e-12</wgt>
  <wgt id="445">7.81165e-12</wgt>
  <wgt id="446">7.79913e-12</wgt>
  <wgt id="447">7.81687e-12</wgt>
  <wgt id="448">7.65334e-12</wgt>
  <wgt id="449">7.9539e-12</wgt>
  <wgt id="450">7.80673e-12</wgt>
  <wgt id="451">7.83507e-12</wgt>
  <wgt id="452">8.00338e-12</wgt>
  <wgt id="453">7.90595e-12</wgt>
  <wgt id="454">7.55536e-12</wgt>
  <wgt id="455">7.85207e-12</wgt>
  <wgt id="456">7.72059e-12</wgt>
  <wgt id="457">7.87346e-12</wgt>
  <wgt id="458">7.92405e-12</wgt>
  <wgt id="459">7.89109e-12</wgt>
  <wgt id="460">7.88162e-12</wgt>
  <wgt id="461">7.72463e-12</wgt>
  <wgt id="462">7.79042e-12</wgt>
  <wgt id="463">7.77359e-12</wgt>
  <wgt id="464">7.80837e-12</wgt>
  <wgt id="465">7.91442e-12</wgt>
  <wgt id="466">7.77135e-12</wgt>
  <wgt id="467">7.77996e-12</wgt>
  <wgt id="468">7.82652e-12</wgt>
  <wgt id="469">7.82697e-12</wgt>
  <wgt id="470">7.78486e-12</wgt>
  <wgt id="471">7.78773e-12</wgt>
  <wgt id="472">7.87566e-12</wgt>
  <wgt id="473">7.628e-12</wgt>
  <wgt id="474">5.79e-12</wgt>
  <wgt id="475">6.17381e-12</wgt>
  <wgt id="476">5.67365e-12</wgt>
  <wgt id="477">5.69045e-12</wgt>
  <wgt id="478">5.81965e-12</wgt>
  <wgt id="479">5.72139e-12</wgt>
  <wgt id="480">5.95861e-12</wgt>
  <wgt id="481">5.63198e-12</wgt>
  <wgt id="482">5.54389e-12</wgt>
  <wgt id="483">5.642e-12</wgt>
  <wgt id="484">6.23724e-12</wgt>
  <wgt id="485">5.82259e-12</wgt>
  <wgt id="486">5.86615e-12</wgt>
  <wgt id="487">5.88275e-12</wgt>
  <wgt id="488">5.85202e-12</wgt>
  <wgt id="489">5.59978e-12</wgt>
  <wgt id="490">5.62614e-12</wgt>
  <wgt id="491">5.72181e-12</wgt>
  <wgt id="492">5.60219e-12</wgt>
  <wgt id="493">5.59794e-12</wgt>
  <wgt id="494">5.61952e-12</wgt>
  <wgt id="495">5.90523e-12</wgt>
  <wgt id="496">5.59177e-12</wgt>
  <wgt id="497">5.58864e-12</wgt>
  <wgt id="498">5.84597e-12</wgt>
  <wgt id="499">5.63419e-12</wgt>
  <wgt id="500">5.69213e-12</wgt>
  <wgt id="501">6.03549e-12</wgt>
  <wgt id="502">5.61941e-12</wgt>
  <wgt id="503">5.76558e-12</wgt>
  <wgt id="504">5.78265e-12</wgt>
  <wgt id="505">5.92018e-12</wgt>
  <wgt id="506">5.87322e-12</wgt>
  <wgt id="507">5.71548e-12</wgt>
  <wgt id="508">5.86901e-12</wgt>
  <wgt id="509">5.79782e-12</wgt>
  <wgt id="510">5.92107e-12</wgt>
  <wgt id="511">5.67371e-12</wgt>
  <wgt id="512">5.84414e-12</wgt>
  <wgt id="513">5.99779e-12</wgt>
  <wgt id="514">5.7297e-12</wgt>
  <wgt id="515">5.71288e-12</wgt>
  <wgt id="516">5.92247e-12</wgt>
  <wgt id="517">5.91548e-12</wgt>
  <wgt id="518">5.93679e-12</wgt>
  <wgt id="519">5.65854e-12</wgt>
  <wgt id="520">5.80478e-12</wgt>
  <wgt id="521">6.00442e-12</wgt>
  <wgt id="522">5.99886e-12</wgt>
  <wgt id="523">5.92518e-12</wgt>
  <wgt id="524">5.92151e-12</wgt>
  <wgt id="525">5.92811e-12</wgt>
  <wgt id="526">5.77336e-12</wgt>
  <wgt id="527">5.90105e-12</wgt>
  <wgt id="528">5.78113e-12</wgt>
  <wgt id="529">5.71613e-12</wgt>
  <wgt id="530">5.80799e-12</wgt>
  <wgt id="531">5.71912e-12</wgt>
  <wgt id="532">6.0804e-12</wgt>
  <wgt id="533">5.43385e-12</wgt>
  <wgt id="534">5.80035e-12</wgt>
  <wgt id="535">5.89922e-12</wgt>
  <wgt id="536">5.80896e-12</wgt>
  <wgt id="537">5.81247e-12</wgt>
  <wgt id="538">5.88989e-12</wgt>
  <wgt id="539">5.65612e-12</wgt>
  <wgt id="540">5.73091e-12</wgt>
  <wgt id="541">5.70946e-12</wgt>
  <wgt id="542">5.65439e-12</wgt>
  <wgt id="543">5.77951e-12</wgt>
  <wgt id="544">6.07045e-12</wgt>
  <wgt id="545">5.71791e-12</wgt>
  <wgt id="546">5.74515e-12</wgt>
  <wgt id="547">5.61324e-12</wgt>
  <wgt id="548">5.55504e-12</wgt>
  <wgt id="549">5.70214e-12</wgt>
  <wgt id="550">5.84158e-12</wgt>
  <wgt id="551">5.85525e-12</wgt>
  <wgt id="552">5.75204e-12</wgt>
  <wgt id="553">5.78027e-12</wgt>
  <wgt id="554">6.22304e-12</wgt>
  <wgt id="555">5.94825e-12</wgt>
  <wgt id="556">5.62614e-12</wgt>
  <wgt id="557">5.86685e-12</wgt>
  <wgt id="558">5.59544e-12</wgt>
  <wgt id="559">5.72859e-12</wgt>
  <wgt id="560">6.23013e-12</wgt>
  <wgt id="561">5.6473e-12</wgt>
  <wgt id="562">5.85121e-12</wgt>
  <wgt id="563">5.63332e-12</wgt>
  <wgt id="564">5.76614e-12</wgt>
  <wgt id="565">5.60056e-12</wgt>
  <wgt id="566">5.84468e-12</wgt>
  <wgt id="567">5.69517e-12</wgt>
  <wgt id="568">5.79461e-12</wgt>
  <wgt id="569">5.83395e-12</wgt>
  <wgt id="570">5.667e-12</wgt>
  <wgt id="571">6.39752e-12</wgt>
  <wgt id="572">5.65845e-12</wgt>
  <wgt id="573">5.5253e-12</wgt>
  <wgt id="574">5.58352e-12</wgt>
  <wgt id="575">6.33703e-12</wgt>
  <wgt id="576">6.21634e-12</wgt>
  <wgt id="577">6.56425e-12</wgt>
  <wgt id="578">6.44136e-12</wgt>
  <wgt id="579">6.38385e-12</wgt>
  <wgt id="580">6.41639e-12</wgt>
  <wgt id="581">6.69267e-12</wgt>
  <wgt id="582">6.19505e-12</wgt>
  <wgt id="583">6.3982e-12</wgt>
  <wgt id="584">6.34516e-12</wgt>
  <wgt id="585">6.40575e-12</wgt>
  <wgt id="586">6.1998e-12</wgt>
  <wgt id="587">6.40347e-12</wgt>
  <wgt id="588">6.29036e-12</wgt>
  <wgt id="589">6.39194e-12</wgt>
  <wgt id="590">6.44532e-12</wgt>
  <wgt id="591">6.58848e-12</wgt>
  <wgt id="592">6.24814e-12</wgt>
  <wgt id="593">6.30882e-12</wgt>
  <wgt id="594">6.60287e-12</wgt>
  <wgt id="595">6.28311e-12</wgt>
  <wgt id="596">6.41736e-12</wgt>
  <wgt id="597">6.09169e-12</wgt>
  <wgt id="598">6.30426e-12</wgt>
  <wgt id="599">6.6759e-12</wgt>
  <wgt id="600">6.26815e-12</wgt>
  <wgt id="601">6.15745e-12</wgt>
  <wgt id="602">6.23423e-12</wgt>
  <wgt id="603">6.26415e-12</wgt>
  <wgt id="604">6.41471e-12</wgt>
  <wgt id="605">6.59396e-12</wgt>
  <wgt id="606">6.16329e-12</wgt>
  <wgt id="607">6.2378e-12</wgt>
  <wgt id="608">6.29988e-12</wgt>
  <wgt id="609">5.95501e-12</wgt>
  <wgt id="610">6.08834e-12</wgt>
  <wgt id="611">6.45199e-12</wgt>
  <wgt id="612">6.80803e-12</wgt>
  <wgt id="613">6.35124e-12</wgt>
  <wgt id="614">6.42098e-12</wgt>
  <wgt id="615">6.204e-12</wgt>
  <wgt id="616">6.7692e-12</wgt>
  <wgt id="617">6.56691e-12</wgt>
  <wgt id="618">6.26911e-12</wgt>
  <wgt id="619">6.30638e-12</wgt>
  <wgt id="620">6.55013e-12</wgt>
  <wgt id="621">6.44163e-12</wgt>
  <wgt id="622">6.40347e-12</wgt>
  <wgt id="623">6.4962e-12</wgt>
  <wgt id="624">6.2932e-12</wgt>
  <wgt id="625">6.271e-12</wgt>
  <wgt id="626">6.21583e-12</wgt>
  <wgt id="627">6.12243e-12</wgt>
  <wgt id="628">6.69794e-12</wgt>
  <wgt id="629">6.19585e-12</wgt>
  <wgt id="630">6.1771e-12</wgt>
  <wgt id="631">6.33336e-12</wgt>
  <wgt id="632">6.1754e-12</wgt>
  <wgt id="633">6.25095e-12</wgt>
  <wgt id="634">6.38464e-12</wgt>
  <wgt id="635">6.30768e-12</wgt>
  <wgt id="636">6.36926e-12</wgt>
  <wgt id="637">6.35513e-12</wgt>
  <wgt id="638">6.11703e-12</wgt>
  <wgt id="639">6.27364e-12</wgt>
  <wgt id="640">6.35294e-12</wgt>
  <wgt id="641">6.33469e-12</wgt>
  <wgt id="642">6.25627e-12</wgt>
  <wgt id="643">6.31759e-12</wgt>
  <wgt id="644">6.1581e-12</wgt>
  <wgt id="645">6.37386e-12</wgt>
  <wgt id="646">6.48414e-12</wgt>
  <wgt id="647">6.22902e-12</wgt>
  <wgt id="648">6.35267e-12</wgt>
  <wgt id="649">6.43717e-12</wgt>
  <wgt id="650">6.22975e-12</wgt>
  <wgt id="651">6.39252e-12</wgt>
  <wgt id="652">6.33545e-12</wgt>
  <wgt id="653">6.17736e-12</wgt>
  <wgt id="654">6.32393e-12</wgt>
  <wgt id="655">6.19598e-12</wgt>
  <wgt id="656">6.33116e-12</wgt>
  <wgt id="657">6.4466e-12</wgt>
  <wgt id="658">6.45993e-12</wgt>
  <wgt id="659">6.11797e-12</wgt>
  <wgt id="660">6.46009e-12</wgt>
  <wgt id="661">6.24445e-12</wgt>
  <wgt id="662">6.3112e-12</wgt>
  <wgt id="663">6.31198e-12</wgt>
  <wgt id="664">6.22856e-12</wgt>
  <wgt id="665">6.30938e-12</wgt>
  <wgt id="666">6.32722e-12</wgt>
  <wgt id="667">6.52713e-12</wgt>
  <wgt id="668">6.2997e-12</wgt>
  <wgt id="669">6.4941e-12</wgt>
  <wgt id="670">6.39832e-12</wgt>
  <wgt id="671">6.22769e-12</wgt>
  <wgt id="672">6.07218e-12</wgt>
  <wgt id="673">6.30022e-12</wgt>
  <wgt id="674">6.21079e-12</wgt>
  <wgt id="675">6.19606e-12</wgt>
  <wgt id="676">7.85544e-12</wgt>
  <wgt id="677">7.9659e-12</wgt>
  <wgt id="678">8.19883e-12</wgt>
  <wgt id="679">7.48275e-12</wgt>
  <wgt id="680">7.56846e-12</wgt>
  <wgt id="681">8.09775e-12</wgt>
  <wgt id="682">7.9615e-12</wgt>
  <wgt id="683">7.80476e-12</wgt>
  <wgt id="684">8.19432e-12</wgt>
  <wgt id="685">7.42941e-12</wgt>
  <wgt id="686">7.91884e-12</wgt>
  <wgt id="687">8.20322e-12</wgt>
  <wgt id="688">7.83019e-12</wgt>
  <wgt id="689">8.42601e-12</wgt>
  <wgt id="690">8.30866e-12</wgt>
  <wgt id="691">8.28688e-12</wgt>
  <wgt id="692">7.83279e-12</wgt>
  <wgt id="693">8.99115e-12</wgt>
  <wgt id="694">8.2822e-12</wgt>
  <wgt id="695">7.60174e-12</wgt>
  <wgt id="696">7.47543e-12</wgt>
  <wgt id="697">7.63395e-12</wgt>
  <wgt id="698">7.41186e-12</wgt>
  <wgt id="699">7.31984e-12</wgt>
  <wgt id="700">7.01132e-12</wgt>
  <wgt id="701">7.87464e-12</wgt>
  <wgt id="702">7.49726e-12</wgt>
  <wgt id="703">8.85958e-12</wgt>
  <wgt id="704">8.40041e-12</wgt>
  <wgt id="705">8.10946e-12</wgt>
  <wgt id="706">7.32702e-12</wgt>
  <wgt id="707">7.56776e-12</wgt>
  <wgt id="708">7.77114e-12</wgt>
  <wgt id="709">7.73371e-12</wgt>
  <wgt id="710">7.04055e-12</wgt>
  <wgt id="711">7.85414e-12</wgt>
  <wgt id="712">7.77321e-12</wgt>
  <wgt id="713">8.3817e-12</wgt>
  <wgt id="714">7.84957e-12</wgt>
  <wgt id="715">7.78124e-12</wgt>
  <wgt id="716">7.57602e-12</wgt>
  <wgt id="717">7.58058e-12</wgt>
  <wgt id="718">7.69593e-12</wgt>
  <wgt id="719">7.21e-12</wgt>
  <wgt id="720">7.44497e-12</wgt>
  <wgt id="721">7.50341e-12</wgt>
  <wgt id="722">7.15149e-12</wgt>
  <wgt id="723">8.27905e-12</wgt>
  <wgt id="724">8.1494e-12</wgt>
  <wgt id="725">8.30475e-12</wgt>
  <wgt id="726">7.95075e-12</wgt>
  <wgt id="727">7.6753e-12</wgt>
  <wgt id="728">7.79841e-12</wgt>
  <wgt id="729">7.09484e-12</wgt>
  <wgt id="730">8.3327e-12</wgt>
  <wgt id="731">7.78981e-12</wgt>
  <wgt id="732">8.53185e-12</wgt>
  <wgt id="733">7.87262e-12</wgt>
  <wgt id="734">8.037e-12</wgt>
  <wgt id="735">7.79728e-12</wgt>
  <wgt id="736">7.77293e-12</wgt>
  <wgt id="737">7.99077e-12</wgt>
  <wgt id="738">7.5641e-12</wgt>
  <wgt id="739">7.8064e-12</wgt>
  <wgt id="740">8.65587e-12</wgt>
  <wgt id="741">6.99291e-12</wgt>
  <wgt id="742">7.73928e-12</wgt>
  <wgt id="743">7.64599e-12</wgt>
  <wgt id="744">7.70571e-12</wgt>
  <wgt id="745">8.13469e-12</wgt>
  <wgt id="746">8.22192e-12</wgt>
  <wgt id="747">7.29238e-12</wgt>
  <wgt id="748">7.72789e-12</wgt>
  <wgt id="749">8.30404e-12</wgt>
  <wgt id="750">7.73534e-12</wgt>
  <wgt id="751">8.15321e-12</wgt>
  <wgt id="752">7.27778e-12</wgt>
  <wgt id="753">7.51196e-12</wgt>
  <wgt id="754">8.08065e-12</wgt>
  <wgt id="755">7.91352e-12</wgt>
  <wgt id="756">7.90711e-12</wgt>
  <wgt id="757">7.33443e-12</wgt>
  <wgt id="758">7.97181e-12</wgt>
  <wgt id="759">7.76996e-12</wgt>
  <wgt id="760">8.01675e-12</wgt>
  <wgt id="761">8.26092e-12</wgt>
  <wgt id="762">8.26001e-12</wgt>
  <wgt id="763">7.88012e-12</wgt>
  <wgt id="764">8.12205e-12</wgt>
  <wgt id="765">7.93131e-12</wgt>
  <wgt id="766">7.82431e-12</wgt>
  <wgt id="767">8.03332e-12</wgt>
  <wgt id="768">7.49352e-12</wgt>
  <wgt id="769">8.29038e-12</wgt>
  <wgt id="770">7.61878e-12</wgt>
  <wgt id="771">9.15108e-12</wgt>
  <wgt id="772">7.39356e-12</wgt>
  <wgt id="773">7.83142e-12</wgt>
  <wgt id="774">7.15531e-12</wgt>
  <wgt id="775">8.21185e-12</wgt>
  <wgt id="776">8.57555e-12</wgt>
  <wgt id="777">7.65119e-12</wgt>
  <wgt id="778">5.93305e-12</wgt>
  <wgt id="779">5.12212e-12</wgt>
  <wgt id="780">4.38512e-12</wgt>
  <wgt id="781">5.85731e-12</wgt>
  <wgt id="782">6.27221e-12</wgt>
  <wgt id="783">5.22842e-12</wgt>
  <wgt id="784">5.32499e-12</wgt>
  <wgt id="785">7.04953e-12</wgt>
  <wgt id="786">4.67953e-12</wgt>
  <wgt id="787">6.58803e-12</wgt>
  <wgt id="788">4.07806e-12</wgt>
  <wgt id="789">4.78389e-12</wgt>
  <wgt id="790">4.67781e-12</wgt>
  <wgt id="791">5.47568e-12</wgt>
  <wgt id="792">7.4649e-12</wgt>
  <wgt id="793">5.70666e-12</wgt>
  <wgt id="794">4.79155e-12</wgt>
  <wgt id="795">6.70586e-12</wgt>
  <wgt id="796">7.65193e-12</wgt>
  <wgt id="797">6.67605e-12</wgt>
  <wgt id="798">5.58712e-12</wgt>
  <wgt id="799">6.63299e-12</wgt>
  <wgt id="800">4.85833e-12</wgt>
  <wgt id="801">5.63421e-12</wgt>
  <wgt id="802">4.84072e-12</wgt>
  <wgt id="803">7.6519e-12</wgt>
  <wgt id="804">6.66316e-12</wgt>
  <wgt id="805">6.80143e-12</wgt>
  <wgt id="806">6.72397e-12</wgt>
  <wgt id="807">5.71203e-12</wgt>
  <wgt id="808">5.81517e-12</wgt>
  <wgt id="809">5.48472e-12</wgt>
  <wgt id="810">6.78815e-12</wgt>
  <wgt id="811">6.42944e-12</wgt>
  <wgt id="812">4.74742e-12</wgt>
  <wgt id="813">4.80013e-12</wgt>
  <wgt id="814">5.05508e-12</wgt>
  <wgt id="815">5.14181e-12</wgt>
  <wgt id="816">4.5673e-12</wgt>
  <wgt id="817">6.2653e-12</wgt>
  <wgt id="818">5.72562e-12</wgt>
  <wgt id="819">5.14147e-12</wgt>
  <wgt id="820">5.96634e-12</wgt>
  <wgt id="821">6.68474e-12</wgt>
  <wgt id="822">5.18696e-12</wgt>
  <wgt id="823">6.68112e-12</wgt>
  <wgt id="824">7.83538e-12</wgt>
  <wgt id="825">4.60977e-12</wgt>
  <wgt id="826">6.11168e-12</wgt>
  <wgt id="827">3.89929e-12</wgt>
  <wgt id="828">7.58063e-12</wgt>
  <wgt id="829">6.10924e-12</wgt>
  <wgt id="830">4.38697e-12</wgt>
  <wgt id="831">6.29325e-12</wgt>
  <wgt id="832">9.39715e-12</wgt>
  <wgt id="833">5.67045e-12</wgt>
  <wgt id="834">8.78387e-12</wgt>
  <wgt id="835">4.89086e-12</wgt>
  <wgt id="836">6.01315e-12</wgt>
  <wgt id="837">6.60273e-12</wgt>
  <wgt id="838">5.72806e-12</wgt>
  <wgt id="839">6.26879e-12</wgt>
  <wgt id="840">5.66651e-12</wgt>
  <wgt id="841">7.03436e-12</wgt>
  <wgt id="842">5.47369e-12</wgt>
  <wgt id="843">5.73922e-12</wgt>
  <wgt id="844">6.11513e-12</wgt>
  <wgt id="845">7.87674e-12</wgt>
  <wgt id="846">5.43851e-12</wgt>
  <wgt id="847">5.83932e-12</wgt>
  <wgt id="848">5.33758e-12</wgt>
  <wgt id="849">6.0531e-12</wgt>
  <wgt id="850">7.44797e-12</wgt>
  <wgt id="851">6.42925e-12</wgt>
  <wgt id="852">5.29127e-12</wgt>
  <wgt id="853">6.38132e-12</wgt>
  <wgt id="854">7.05036e-12</wgt>
  <wgt id="855">6.68776e-12</wgt>
  <wgt id="856">4.50188e-12</wgt>
  <wgt id="857">6.02473e-12</wgt>
  <wgt id="858">5.92338e-12</wgt>
  <wgt id="859">5.53917e-12</wgt>
  <wgt id="860">6.18655e-12</wgt>
  <wgt id="861">5.38797e-12</wgt>
  <wgt id="862">6.02778e-12</wgt>
  <wgt id="863">6.17038e-12</wgt>
  <wgt id="864">6.21811e-12</wgt>
  <wgt id="865">8.17865e-12</wgt>
  <wgt id="866">8.93328e-12</wgt>
  <wgt id="867">5.96942e-12</wgt>
  <wgt id="868">5.83267e-12</wgt>
  <wgt id="869">4.78964e-12</wgt>
  <wgt id="870">5.03135e-12</wgt>
  <wgt id="871">4.89723e-12</wgt>
  <wgt id="872">6.83633e-12</wgt>
  <wgt id="873">4.98211e-12</wgt>
  <wgt id="874">6.15723e-12</wgt>
  <wgt id="875">5.22038e-12</wgt>
  <wgt id="876">6.85762e-12</wgt>
  <wgt id="877">6.65459e-12</wgt>
  <wgt id="878">5.27885e-12</wgt>
  <wgt id="879">7.85544e-12</wgt>
  <wgt id="880">7.9659e-12</wgt>
  <wgt id="881">8.19883e-12</wgt>
  <wgt id="882">7.48275e-12</wgt>
  <wgt id="883">7.56846e-12</wgt>
  <wgt id="884">8.09775e-12</wgt>
  <wgt id="885">7.9615e-12</wgt>
  <wgt id="886">7.80476e-12</wgt>
  <wgt id="887">8.19432e-12</wgt>
  <wgt id="888">7.42941e-12</wgt>
  <wgt id="889">7.91884e-12</wgt>
  <wgt id="890">8.20322e-12</wgt>
  <wgt id="891">7.83019e-12</wgt>
  <wgt id="892">8.42601e-12</wgt>
  <wgt id="893">8.30866e-12</wgt>
  <wgt id="894">8.28688e-12</wgt>
  <wgt id="895">7.83279e-12</wgt>
  <wgt id="896">8.99115e-12</wgt>
  <wgt id="897">8.2822e-12</wgt>
  <wgt id="898">7.60174e-12</wgt>
  <wgt id="899">7.47543e-12</wgt>
  <wgt id="900">7.63395e-12</wgt>
  <wgt id="901">7.41186e-12</wgt>
  <wgt id="902">7.31984e-12</wgt>
  <wgt id="903">7.01132e-12</wgt>
  <wgt id="904">7.87464e-12</wgt>
  <wgt id="905">7.49726e-12</wgt>
  <wgt id="906">8.85958e-12</wgt>
  <wgt id="907">8.40041e-12</wgt>
  <wgt id="908">8.10946e-12</wgt>
  <wgt id="909">7.32702e-12</wgt>
  <wgt id="910">7.56776e-12</wgt>
  <wgt id="911">7.77114e-12</wgt>
  <wgt id="912">7.73371e-12</wgt>
  <wgt id="913">7.04055e-12</wgt>
  <wgt id="914">7.85414e-12</wgt>
  <wgt id="915">7.77321e-12</wgt>
  <wgt id="916">8.3817e-12</wgt>
  <wgt id="917">7.84957e-12</wgt>
  <wgt id="918">7.78124e-12</wgt>
  <wgt id="919">7.57602e-12</wgt>
  <wgt id="920">7.58058e-12</wgt>
  <wgt id="921">7.69593e-12</wgt>
  <wgt id="922">7.21e-12</wgt>
  <wgt id="923">7.44497e-12</wgt>
  <wgt id="924">7.50341e-12</wgt>
  <wgt id="925">7.15149e-12</wgt>
  <wgt id="926">8.27905e-12</wgt>
  <wgt id="927">8.1494e-12</wgt>
  <wgt id="928">8.30475e-12</wgt>
  <wgt id="929">7.95075e-12</wgt>
  <wgt id="930">7.6753e-12</wgt>
  <wgt id="931">7.79841e-12</wgt>
  <wgt id="932">7.09484e-12</wgt>
  <wgt id="933">8.3327e-12</wgt>
  <wgt id="934">7.78981e-12</wgt>
  <wgt id="935">8.53185e-12</wgt>
  <wgt id="936">7.87262e-12</wgt>
  <wgt id="937">8.037e-12</wgt>
  <wgt id="938">7.79728e-12</wgt>
  <wgt id="939">7.77293e-12</wgt>
  <wgt id="940">7.99077e-12</wgt>
  <wgt id="941">7.5641e-12</wgt>
  <wgt id="942">7.8064e-12</wgt>
  <wgt id="943">8.65587e-12</wgt>
  <wgt id="944">6.99291e-12</wgt>
  <wgt id="945">7.73928e-12</wgt>
  <wgt id="946">7.64599e-12</wgt>
  <wgt id="947">7.70571e-12</wgt>
  <wgt id="948">8.13469e-12</wgt>
  <wgt id="949">8.22192e-12</wgt>
  <wgt id="950">7.29238e-12</wgt>
  <wgt id="951">7.72789e-12</wgt>
  <wgt id="952">8.30404e-12</wgt>
  <wgt id="953">7.73534e-12</wgt>
  <wgt id="954">8.15321e-12</wgt>
  <wgt id="955">7.27778e-12</wgt>
  <wgt id="956">7.51196e-12</wgt>
  <wgt id="957">8.08065e-12</wgt>
  <wgt id="958">7.91352e-12</wgt>
  <wgt id="959">7.90711e-12</wgt>
  <wgt id="960">7.33443e-12</wgt>
  <wgt id="961">7.97181e-12</wgt>
  <wgt id="962">7.76996e-12</wgt>
  <wgt id="963">8.01675e-12</wgt>
  <wgt id="964">8.26092e-12</wgt>
  <wgt id="965">8.26001e-12</wgt>
  <wgt id="966">7.88012e-12</wgt>
  <wgt id="967">8.12205e-12</wgt>
  <wgt id="968">7.93131e-12</wgt>
  <wgt id="969">7.82431e-12</wgt>
  <wgt id="970">8.03332e-12</wgt>
  <wgt id="971">7.49352e-12</wgt>
  <wgt id="972">8.29038e-12</wgt>
  <wgt id="973">7.61878e-12</wgt>
  <wgt id="974">9.15108e-12</wgt>
  <wgt id="975">7.39356e-12</wgt>
  <wgt id="976">7.83142e-12</wgt>
  <wgt id="977">7.15531e-12</wgt>
  <wgt id="978">8.21185e-12</wgt>
  <wgt id="979">8.57555e-12</wgt>
  <wgt id="980">7.87459e-12</wgt>
  <wgt id="981">7.88018e-12</wgt>
  <wgt id="982">7.64383e-12</wgt>
</rwgt>
</event>
<event>
 5   1  0.5790000E-11  0.2361991E+04  0.7818608E-02  0.7690467E-01
       21   -1    0    0  502  501  0.00000000000E+00  0.00000000000E+00  0.10396825226E+04  0.10396825226E+04  0.00000000000E+00 0.  1.
       21   -1    0    0  501  502 -0.00000000000E+00 -0.00000000000E+00 -0.13415159493E+04  0.13415159493E+04  0.00000000000E+00 0. -1.
       39    2    1    2    0    0  0.00000000000E+00  0.00000000000E+00 -0.30183342677E+03  0.23811984719E+04  0.23619912669E+04 0.  0.
       25    1    3    3    0    0 -0.57324839549E+03 -0.75725269380E+03  0.54541000417E+03  0.11023349935E+04  0.12500000000E+03 0.  0.
       25    1    3    3    0    0  0.57324839549E+03  0.75725269380E+03 -0.84724343094E+03  0.12788634784E+04  0.12500000000E+03 0.  0.
<mgrwt>
<rscale>  0 0.23619913E+04</rscale>
<asrwt>0</asrwt>
<pdfrwt beam="1">  1       21 0.15995116E+00 0.23619913E+04</pdfrwt>
<pdfrwt beam="2">  1       21 0.20638707E+00 0.23619913E+04</pdfrwt>
<totfact> 0.11381014E+01</totfact>
</mgrwt>
<rwgt>
  <wgt id="1">5.79e-12</wgt>
  <wgt id="2">5.03601e-12</wgt>
  <wgt id="3">6.72708e-12</wgt>
  <wgt id="4">5.79e-12</wgt>
  <wgt id="5">5.03601e-12</wgt>
  <wgt id="6">6.72708e-12</wgt>
  <wgt id="7">5.79e-12</wgt>
  <wgt id="8">5.03601e-12</wgt>
  <wgt id="9">6.72708e-12</wgt>
  <wgt id="10">5.99741e-12</wgt>
  <wgt id="11">5.99125e-12</wgt>
  <wgt id="12">5.98559e-12</wgt>
  <wgt id="13">5.97655e-12</wgt>
  <wgt id="14">6.01954e-12</wgt>
  <wgt id="15">6.00646e-12</wgt>
  <wgt id="16">5.98535e-12</wgt>
  <wgt id="17">6.00726e-12</wgt>
  <wgt id="18">5.98628e-12</wgt>
  <wgt id="19">6.01116e-12</wgt>
  <wgt id="20">5.97892e-12</wgt>
  <wgt id="21">5.96282e-12</wgt>
  <wgt id="22">5.97728e-12</wgt>
  <wgt id="23">5.94448e-12</wgt>
  <wgt id="24">5.97104e-12</wgt>
  <wgt id="25">5.98352e-12</wgt>
  <wgt id="26">6.02304e-12</wgt>
  <wgt id="27">5.99758e-12</wgt>
  <wgt id="28">5.97013e-12</wgt>
  <wgt id="29">6.00299e-12</wgt>
  <wgt id="30">5.98419e-12</wgt>
  <wgt id="31">6.01291e-12</wgt>
  <wgt id="32">5.98925e-12</wgt>
  <wgt id="33">6.0127e-12</wgt>
  <wgt id="34">5.97924e-12</wgt>
  <wgt id="35">5.99501e-12</wgt>
  <wgt id="36">6.01666e-12</wgt>
  <wgt id="37">5.98205e-12</wgt>
  <wgt id="38">5.97964e-12</wgt>
  <wgt id="39">6.05744e-12</wgt>
  <wgt id="40">6.01043e-12</wgt>
  <wgt id="41">5.99628e-12</wgt>
  <wgt id="42">6.01067e-12</wgt>
  <wgt id="43">5.99875e-12</wgt>
  <wgt id="44">5.97799e-12</wgt>
  <wgt id="45">6.01112e-12</wgt>
  <wgt id="46">6.00808e-12</wgt>
  <wgt id="47">5.9731e-12</wgt>
  <wgt id="48">5.99681e-12</wgt>
  <wgt id="49">6.01022e-12</wgt>
  <wgt id="50">6.03302e-12</wgt>
  <wgt id="51">6.02532e-12</wgt>
  <wgt id="52">5.98982e-12</wgt>
  <wgt id="53">5.95173e-12</wgt>
  <wgt id="54">5.98336e-12</wgt>
  <wgt id="55">5.99685e-12</wgt>
  <wgt id="56">6.01879e-12</wgt>
  <wgt id="57">6.0178e-12</wgt>
  <wgt id="58">5.95502e-12</wgt>
  <wgt id="59">5.97545e-12</wgt>
  <wgt id="60">5.99957e-12</wgt>
  <wgt id="61">5.98265e-12</wgt>
  <wgt id="62">5.99438e-12</wgt>
  <wgt id="63">6.0029e-12</wgt>
  <wgt id="64">6.00415e-12</wgt>
  <wgt id="65">6.00427e-12</wgt>
  <wgt id="66">5.98896e-12</wgt>
  <wgt id="67">5.98543e-12</wgt>
  <wgt id="68">5.99097e-12</wgt>
  <wgt id="69">5.99682e-12</wgt>
  <wgt id="70">5.99313e-12</wgt>
  <wgt id="71">5.9964e-12</wgt>
  <wgt id="72">5.99016e-12</wgt>
  <wgt id="73">6.00136e-12</wgt>
  <wgt id="74">6.00146e-12</wgt>
  <wgt id="75">5.99289e-12</wgt>
  <wgt id="76">6.01372e-12</wgt>
  <wgt id="77">5.99641e-12</wgt>
  <wgt id="78">5.99878e-12</wgt>
  <wgt id="79">6.00881e-12</wgt>
  <wgt id="80">5.97236e-12</wgt>
  <wgt id="81">5.99006e-12</wgt>
  <wgt id="82">5.9975e-12</wgt>
  <wgt id="83">5.97404e-12</wgt>
  <wgt id="84">5.98501e-12</wgt>
  <wgt id="85">5.98593e-12</wgt>
  <wgt id="86">6.01216e-12</wgt>
  <wgt id="87">5.96672e-12</wgt>
  <wgt id="88">6.00462e-12</wgt>
  <wgt id="89">6.00317e-12</wgt>
  <wgt id="90">6.00622e-12</wgt>
  <wgt id="91">6.00193e-12</wgt>
  <wgt id="92">6.00872e-12</wgt>
  <wgt id="93">5.99694e-12</wgt>
  <wgt id="94">5.99175e-12</wgt>
  <wgt id="95">6.00179e-12</wgt>
  <wgt id="96">6.00166e-12</wgt>
  <wgt id="97">5.98909e-12</wgt>
  <wgt id="98">6.00013e-12</wgt>
  <wgt id="99">5.99408e-12</wgt>
  <wgt id="100">6.00311e-12</wgt>
  <wgt id="101">5.99548e-12</wgt>
  <wgt id="102">5.99115e-12</wgt>
  <wgt id="103">6.00584e-12</wgt>
  <wgt id="104">5.99314e-12</wgt>
  <wgt id="105">6.0034e-12</wgt>
  <wgt id="106">5.98951e-12</wgt>
  <wgt id="107">6.01337e-12</wgt>
  <wgt id="108">5.99152e-12</wgt>
  <wgt id="109">5.99901e-12</wgt>
  <wgt id="110">5.9969e-12</wgt>
  <wgt id="111">6.05633e-12</wgt>
  <wgt id="112">5.99488e-12</wgt>
  <wgt id="113">8.09096e-12</wgt>
  <wgt id="114">8.34586e-12</wgt>
  <wgt id="115">8.23088e-12</wgt>
  <wgt id="116">1.15877e-11</wgt>
  <wgt id="117">6.68874e-12</wgt>
  <wgt id="118">6.71262e-12</wgt>
  <wgt id="119">6.67542e-12</wgt>
  <wgt id="120">6.68943e-12</wgt>
  <wgt id="121">6.68853e-12</wgt>
  <wgt id="122">6.67711e-12</wgt>
  <wgt id="123">6.70479e-12</wgt>
  <wgt id="124">6.67918e-12</wgt>
  <wgt id="125">6.69501e-12</wgt>
  <wgt id="126">6.70122e-12</wgt>
  <wgt id="127">6.68062e-12</wgt>
  <wgt id="128">6.70976e-12</wgt>
  <wgt id="129">6.6681e-12</wgt>
  <wgt id="130">6.72794e-12</wgt>
  <wgt id="131">6.64879e-12</wgt>
  <wgt id="132">6.51419e-12</wgt>
  <wgt id="133">6.89566e-12</wgt>
  <wgt id="134">6.61645e-12</wgt>
  <wgt id="135">6.74537e-12</wgt>
  <wgt id="136">6.77511e-12</wgt>
  <wgt id="137">6.58442e-12</wgt>
  <wgt id="138">6.94978e-12</wgt>
  <wgt id="139">6.43689e-12</wgt>
  <wgt id="140">6.64456e-12</wgt>
  <wgt id="141">6.72324e-12</wgt>
  <wgt id="142">6.68969e-12</wgt>
  <wgt id="143">6.69842e-12</wgt>
  <wgt id="144">6.49838e-12</wgt>
  <wgt id="145">6.86591e-12</wgt>
  <wgt id="146">6.74968e-12</wgt>
  <wgt id="147">6.64054e-12</wgt>
  <wgt id="148">6.7095e-12</wgt>
  <wgt id="149">6.68725e-12</wgt>
  <wgt id="150">6.74704e-12</wgt>
  <wgt id="151">6.66157e-12</wgt>
  <wgt id="152">6.69202e-12</wgt>
  <wgt id="153">6.68772e-12</wgt>
  <wgt id="154">6.74214e-12</wgt>
  <wgt id="155">6.6251e-12</wgt>
  <wgt id="156">6.82369e-12</wgt>
  <wgt id="157">6.54739e-12</wgt>
  <wgt id="158">8.04597e-12</wgt>
  <wgt id="159">8.07965e-12</wgt>
  <wgt id="160">8.01887e-12</wgt>
  <wgt id="161">8.02538e-12</wgt>
  <wgt id="162">8.06881e-12</wgt>
  <wgt id="163">8.03717e-12</wgt>
  <wgt id="164">8.05915e-12</wgt>
  <wgt id="165">8.04897e-12</wgt>
  <wgt id="166">8.0436e-12</wgt>
  <wgt id="167">8.04013e-12</wgt>
  <wgt id="168">8.05424e-12</wgt>
  <wgt id="169">8.01173e-12</wgt>
  <wgt id="170">8.06755e-12</wgt>
  <wgt id="171">8.03704e-12</wgt>
  <wgt id="172">8.05872e-12</wgt>
  <wgt id="173">8.04536e-12</wgt>
  <wgt id="174">8.04602e-12</wgt>
  <wgt id="175">7.81862e-12</wgt>
  <wgt id="176">8.34271e-12</wgt>
  <wgt id="177">8.08951e-12</wgt>
  <wgt id="178">8.00589e-12</wgt>
  <wgt id="179">8.38534e-12</wgt>
  <wgt id="180">7.51053e-12</wgt>
  <wgt id="181">7.81015e-12</wgt>
  <wgt id="182">8.20172e-12</wgt>
  <wgt id="183">7.90188e-12</wgt>
  <wgt id="184">8.11744e-12</wgt>
  <wgt id="185">7.98076e-12</wgt>
  <wgt id="186">8.12538e-12</wgt>
  <wgt id="187">7.97348e-12</wgt>
  <wgt id="188">8.17708e-12</wgt>
  <wgt id="189">7.99396e-12</wgt>
  <wgt id="190">8.06741e-12</wgt>
  <wgt id="191">8.06813e-12</wgt>
  <wgt id="192">8.0329e-12</wgt>
  <wgt id="193">8.16159e-12</wgt>
  <wgt id="194">7.98896e-12</wgt>
  <wgt id="195">7.84334e-12</wgt>
  <wgt id="196">8.40518e-12</wgt>
  <wgt id="197">8.08648e-12</wgt>
  <wgt id="198">8.03641e-12</wgt>
  <wgt id="199">8.04597e-12</wgt>
  <wgt id="200">8.11512e-12</wgt>
  <wgt id="201">8.08992e-12</wgt>
  <wgt id="202">8.06526e-12</wgt>
  <wgt id="203">8.02832e-12</wgt>
  <wgt id="204">8.01084e-12</wgt>
  <wgt id="205">7.99657e-12</wgt>
  <wgt id="206">7.79889e-12</wgt>
  <wgt id="207">7.84455e-12</wgt>
  <wgt id="208">7.7537e-12</wgt>
  <wgt id="209">7.82342e-12</wgt>
  <wgt id="210">7.78096e-12</wgt>
  <wgt id="211">7.79607e-12</wgt>
  <wgt id="212">7.80117e-12</wgt>
  <wgt id="213">7.79829e-12</wgt>
  <wgt id="214">7.80001e-12</wgt>
  <wgt id="215">7.80462e-12</wgt>
  <wgt id="216">7.7946e-12</wgt>
  <wgt id="217">7.82134e-12</wgt>
  <wgt id="218">7.78136e-12</wgt>
  <wgt id="219">7.79133e-12</wgt>
  <wgt id="220">7.8036e-12</wgt>
  <wgt id="221">7.79536e-12</wgt>
  <wgt id="222">7.80701e-12</wgt>
  <wgt id="223">7.38567e-12</wgt>
  <wgt id="224">8.1751e-12</wgt>
  <wgt id="225">7.7049e-12</wgt>
  <wgt id="226">7.91689e-12</wgt>
  <wgt id="227">7.72499e-12</wgt>
  <wgt id="228">7.83137e-12</wgt>
  <wgt id="229">7.6903e-12</wgt>
  <wgt id="230">7.85297e-12</wgt>
  <wgt id="231">8.02193e-12</wgt>
  <wgt id="232">7.6156e-12</wgt>
  <wgt id="233">7.75818e-12</wgt>
  <wgt id="234">7.86282e-12</wgt>
  <wgt id="235">7.63854e-12</wgt>
  <wgt id="236">7.94793e-12</wgt>
  <wgt id="237">7.69053e-12</wgt>
  <wgt id="238">7.83592e-12</wgt>
  <wgt id="239">7.75179e-12</wgt>
  <wgt id="240">7.88398e-12</wgt>
  <wgt id="241">7.71959e-12</wgt>
  <wgt id="242">7.89462e-12</wgt>
  <wgt id="243">7.89703e-12</wgt>
  <wgt id="244">7.83885e-12</wgt>
  <wgt id="245">7.79349e-12</wgt>
  <wgt id="246">7.85604e-12</wgt>
  <wgt id="247">7.79889e-12</wgt>
  <wgt id="248">7.86611e-12</wgt>
  <wgt id="249">7.84032e-12</wgt>
  <wgt id="250">7.81654e-12</wgt>
  <wgt id="251">7.78046e-12</wgt>
  <wgt id="252">7.76372e-12</wgt>
  <wgt id="253">7.75153e-12</wgt>
  <wgt id="254">7.64162e-12</wgt>
  <wgt id="255">7.64882e-12</wgt>
  <wgt id="256">7.63349e-12</wgt>
  <wgt id="257">7.64727e-12</wgt>
  <wgt id="258">7.63737e-12</wgt>
  <wgt id="259">7.6926e-12</wgt>
  <wgt id="260">7.5923e-12</wgt>
  <wgt id="261">7.65269e-12</wgt>
  <wgt id="262">7.62818e-12</wgt>
  <wgt id="263">7.63803e-12</wgt>
  <wgt id="264">7.64544e-12</wgt>
  <wgt id="265">7.63258e-12</wgt>
  <wgt id="266">7.65939e-12</wgt>
  <wgt id="267">7.64404e-12</wgt>
  <wgt id="268">7.63799e-12</wgt>
  <wgt id="269">7.66647e-12</wgt>
  <wgt id="270">7.62469e-12</wgt>
  <wgt id="271">7.62859e-12</wgt>
  <wgt id="272">7.65595e-12</wgt>
  <wgt id="273">7.61763e-12</wgt>
  <wgt id="274">7.65973e-12</wgt>
  <wgt id="275">7.61014e-12</wgt>
  <wgt id="276">7.67401e-12</wgt>
  <wgt id="277">7.59798e-12</wgt>
  <wgt id="278">7.68165e-12</wgt>
  <wgt id="279">7.49409e-12</wgt>
  <wgt id="280">7.8262e-12</wgt>
  <wgt id="281">7.60765e-12</wgt>
  <wgt id="282">7.64313e-12</wgt>
  <wgt id="283">7.42382e-12</wgt>
  <wgt id="284">7.90937e-12</wgt>
  <wgt id="285">7.28047e-12</wgt>
  <wgt id="286">7.93989e-12</wgt>
  <wgt id="287">7.66538e-12</wgt>
  <wgt id="288">7.61122e-12</wgt>
  <wgt id="289">7.69457e-12</wgt>
  <wgt id="290">7.51781e-12</wgt>
  <wgt id="291">7.62113e-12</wgt>
  <wgt id="292">7.64638e-12</wgt>
  <wgt id="293">7.58326e-12</wgt>
  <wgt id="294">7.69925e-12</wgt>
  <wgt id="295">7.49825e-12</wgt>
  <wgt id="296">7.81613e-12</wgt>
  <wgt id="297">7.64126e-12</wgt>
  <wgt id="298">7.66997e-12</wgt>
  <wgt id="299">7.617e-12</wgt>
  <wgt id="300">7.70613e-12</wgt>
  <wgt id="301">7.53634e-12</wgt>
  <wgt id="302">7.9074e-12</wgt>
  <wgt id="303">7.58394e-12</wgt>
  <wgt id="304">7.67453e-12</wgt>
  <wgt id="305">7.66708e-12</wgt>
  <wgt id="306">7.67523e-12</wgt>
  <wgt id="307">7.65869e-12</wgt>
  <wgt id="308">7.67353e-12</wgt>
  <wgt id="309">7.66304e-12</wgt>
  <wgt id="310">7.72034e-12</wgt>
  <wgt id="311">7.61796e-12</wgt>
  <wgt id="312">7.6764e-12</wgt>
  <wgt id="313">7.65788e-12</wgt>
  <wgt id="314">7.66395e-12</wgt>
  <wgt id="315">7.67057e-12</wgt>
  <wgt id="316">7.65865e-12</wgt>
  <wgt id="317">7.68593e-12</wgt>
  <wgt id="318">7.67302e-12</wgt>
  <wgt id="319">7.65763e-12</wgt>
  <wgt id="320">7.69329e-12</wgt>
  <wgt id="321">7.65293e-12</wgt>
  <wgt id="322">7.65051e-12</wgt>
  <wgt id="323">7.6871e-12</wgt>
  <wgt id="324">7.64735e-12</wgt>
  <wgt id="325">7.68475e-12</wgt>
  <wgt id="326">7.64202e-12</wgt>
  <wgt id="327">7.69954e-12</wgt>
  <wgt id="328">7.62806e-12</wgt>
  <wgt id="329">7.68956e-12</wgt>
  <wgt id="330">7.89396e-12</wgt>
  <wgt id="331">7.451e-12</wgt>
  <wgt id="332">7.63899e-12</wgt>
  <wgt id="333">7.6676e-12</wgt>
  <wgt id="334">7.49604e-12</wgt>
  <wgt id="335">7.87985e-12</wgt>
  <wgt id="336">7.40449e-12</wgt>
  <wgt id="337">7.98631e-12</wgt>
  <wgt id="338">7.75126e-12</wgt>
  <wgt id="339">7.58933e-12</wgt>
  <wgt id="340">7.71759e-12</wgt>
  <wgt id="341">7.53754e-12</wgt>
  <wgt id="342">7.65277e-12</wgt>
  <wgt id="343">7.65993e-12</wgt>
  <wgt id="344">7.61417e-12</wgt>
  <wgt id="345">7.72863e-12</wgt>
  <wgt id="346">7.5182e-12</wgt>
  <wgt id="347">7.83877e-12</wgt>
  <wgt id="348">7.67004e-12</wgt>
  <wgt id="349">7.6907e-12</wgt>
  <wgt id="350">7.63628e-12</wgt>
  <wgt id="351">7.74536e-12</wgt>
  <wgt id="352">7.55036e-12</wgt>
  <wgt id="353">7.9462e-12</wgt>
  <wgt id="354">7.57898e-12</wgt>
  <wgt id="355">7.72111e-12</wgt>
  <wgt id="356">7.64162e-12</wgt>
  <wgt id="357">7.69929e-12</wgt>
  <wgt id="358">7.66708e-12</wgt>
  <wgt id="359">7.66897e-12</wgt>
  <wgt id="360">7.69107e-12</wgt>
  <wgt id="361">7.66538e-12</wgt>
  <wgt id="362">7.79765e-12</wgt>
  <wgt id="363">7.77887e-12</wgt>
  <wgt id="364">7.75267e-12</wgt>
  <wgt id="365">7.72665e-12</wgt>
  <wgt id="366">7.69756e-12</wgt>
  <wgt id="367">7.6374e-12</wgt>
  <wgt id="368">7.6045e-12</wgt>
  <wgt id="369">7.56906e-12</wgt>
  <wgt id="370">7.66538e-12</wgt>
  <wgt id="371">7.69982e-12</wgt>
  <wgt id="372">7.68083e-12</wgt>
  <wgt id="373">7.65271e-12</wgt>
  <wgt id="374">7.64982e-12</wgt>
  <wgt id="375">8.17016e-12</wgt>
  <wgt id="376">8.17117e-12</wgt>
  <wgt id="377">8.16867e-12</wgt>
  <wgt id="378">8.19969e-12</wgt>
  <wgt id="379">8.14048e-12</wgt>
  <wgt id="380">8.19177e-12</wgt>
  <wgt id="381">8.16139e-12</wgt>
  <wgt id="382">8.21279e-12</wgt>
  <wgt id="383">8.12781e-12</wgt>
  <wgt id="384">8.17547e-12</wgt>
  <wgt id="385">8.16504e-12</wgt>
  <wgt id="386">8.20313e-12</wgt>
  <wgt id="387">8.15567e-12</wgt>
  <wgt id="388">8.16218e-12</wgt>
  <wgt id="389">8.17947e-12</wgt>
  <wgt id="390">8.19246e-12</wgt>
  <wgt id="391">8.14654e-12</wgt>
  <wgt id="392">8.10752e-12</wgt>
  <wgt id="393">8.20565e-12</wgt>
  <wgt id="394">8.18182e-12</wgt>
  <wgt id="395">8.15417e-12</wgt>
  <wgt id="396">8.17539e-12</wgt>
  <wgt id="397">8.16651e-12</wgt>
  <wgt id="398">8.13386e-12</wgt>
  <wgt id="399">8.20516e-12</wgt>
  <wgt id="400">8.15603e-12</wgt>
  <wgt id="401">8.2015e-12</wgt>
  <wgt id="402">8.10369e-12</wgt>
  <wgt id="403">8.19916e-12</wgt>
  <wgt id="404">8.35749e-12</wgt>
  <wgt id="405">7.71851e-12</wgt>
  <wgt id="406">8.03578e-12</wgt>
  <wgt id="407">8.46115e-12</wgt>
  <wgt id="408">8.2391e-12</wgt>
  <wgt id="409">8.03808e-12</wgt>
  <wgt id="410">7.94968e-12</wgt>
  <wgt id="411">8.27192e-12</wgt>
  <wgt id="412">8.1559e-12</wgt>
  <wgt id="413">8.19114e-12</wgt>
  <wgt id="414">8.08195e-12</wgt>
  <wgt id="415">8.23848e-12</wgt>
  <wgt id="416">8.38407e-12</wgt>
  <wgt id="417">7.87448e-12</wgt>
  <wgt id="418">8.181e-12</wgt>
  <wgt id="419">8.1123e-12</wgt>
  <wgt id="420">8.29064e-12</wgt>
  <wgt id="421">8.10173e-12</wgt>
  <wgt id="422">8.15789e-12</wgt>
  <wgt id="423">8.17757e-12</wgt>
  <wgt id="424">8.33371e-12</wgt>
  <wgt id="425">8.06757e-12</wgt>
  <wgt id="426">8.17016e-12</wgt>
  <wgt id="427">8.09956e-12</wgt>
  <wgt id="428">8.37962e-12</wgt>
  <wgt id="429">8.24281e-12</wgt>
  <wgt id="430">8.47159e-12</wgt>
  <wgt id="431">8.42576e-12</wgt>
  <wgt id="432">8.3826e-12</wgt>
  <wgt id="433">8.34071e-12</wgt>
  <wgt id="434">8.2899e-12</wgt>
  <wgt id="435">8.18384e-12</wgt>
  <wgt id="436">8.12942e-12</wgt>
  <wgt id="437">8.07738e-12</wgt>
  <wgt id="438">8.24281e-12</wgt>
  <wgt id="439">8.27009e-12</wgt>
  <wgt id="440">8.25393e-12</wgt>
  <wgt id="441">8.23442e-12</wgt>
  <wgt id="442">8.22726e-12</wgt>
  <wgt id="443">7.99596e-12</wgt>
  <wgt id="444">8.03928e-12</wgt>
  <wgt id="445">7.96227e-12</wgt>
  <wgt id="446">7.94535e-12</wgt>
  <wgt id="447">7.9669e-12</wgt>
  <wgt id="448">7.78587e-12</wgt>
  <wgt id="449">8.11803e-12</wgt>
  <wgt id="450">7.96518e-12</wgt>
  <wgt id="451">7.98318e-12</wgt>
  <wgt id="452">8.17449e-12</wgt>
  <wgt id="453">8.0712e-12</wgt>
  <wgt id="454">7.68117e-12</wgt>
  <wgt id="455">8.0052e-12</wgt>
  <wgt id="456">7.91279e-12</wgt>
  <wgt id="457">8.02887e-12</wgt>
  <wgt id="458">8.08565e-12</wgt>
  <wgt id="459">8.04833e-12</wgt>
  <wgt id="460">8.03909e-12</wgt>
  <wgt id="461">7.85117e-12</wgt>
  <wgt id="462">7.93075e-12</wgt>
  <wgt id="463">7.91095e-12</wgt>
  <wgt id="464">7.95082e-12</wgt>
  <wgt id="465">8.0789e-12</wgt>
  <wgt id="466">7.90614e-12</wgt>
  <wgt id="467">7.91915e-12</wgt>
  <wgt id="468">7.97423e-12</wgt>
  <wgt id="469">7.97334e-12</wgt>
  <wgt id="470">7.92644e-12</wgt>
  <wgt id="471">7.92648e-12</wgt>
  <wgt id="472">8.03257e-12</wgt>
  <wgt id="473">7.73961e-12</wgt>
  <wgt id="474">5.79e-12</wgt>
  <wgt id="475">6.14788e-12</wgt>
  <wgt id="476">5.66071e-12</wgt>
  <wgt id="477">5.60028e-12</wgt>
  <wgt id="478">5.81896e-12</wgt>
  <wgt id="479">5.68219e-12</wgt>
  <wgt id="480">5.99761e-12</wgt>
  <wgt id="481">5.66911e-12</wgt>
  <wgt id="482">5.57589e-12</wgt>
  <wgt id="483">5.63741e-12</wgt>
  <wgt id="484">6.18076e-12</wgt>
  <wgt id="485">5.78929e-12</wgt>
  <wgt id="486">5.93899e-12</wgt>
  <wgt id="487">5.90247e-12</wgt>
  <wgt id="488">5.87262e-12</wgt>
  <wgt id="489">5.59801e-12</wgt>
  <wgt id="490">5.60547e-12</wgt>
  <wgt id="491">5.72578e-12</wgt>
  <wgt id="492">5.61312e-12</wgt>
  <wgt id="493">5.57633e-12</wgt>
  <wgt id="494">5.61633e-12</wgt>
  <wgt id="495">5.91559e-12</wgt>
  <wgt id="496">5.59864e-12</wgt>
  <wgt id="497">5.56509e-12</wgt>
  <wgt id="498">5.87346e-12</wgt>
  <wgt id="499">5.64746e-12</wgt>
  <wgt id="500">5.6982e-12</wgt>
  <wgt id="501">6.05504e-12</wgt>
  <wgt id="502">5.64493e-12</wgt>
  <wgt id="503">5.78354e-12</wgt>
  <wgt id="504">5.83447e-12</wgt>
  <wgt id="505">5.77489e-12</wgt>
  <wgt id="506">5.91402e-12</wgt>
  <wgt id="507">5.73636e-12</wgt>
  <wgt id="508">5.87581e-12</wgt>
  <wgt id="509">5.66547e-12</wgt>
  <wgt id="510">5.94532e-12</wgt>
  <wgt id="511">5.67399e-12</wgt>
  <wgt id="512">5.87756e-12</wgt>
  <wgt id="513">6.04549e-12</wgt>
  <wgt id="514">5.74968e-12</wgt>
  <wgt id="515">5.71403e-12</wgt>
  <wgt id="516">5.95515e-12</wgt>
  <wgt id="517">5.9113e-12</wgt>
  <wgt id="518">5.92566e-12</wgt>
  <wgt id="519">5.6269e-12</wgt>
  <wgt id="520">5.8449e-12</wgt>
  <wgt id="521">5.98942e-12</wgt>
  <wgt id="522">6.01335e-12</wgt>
  <wgt id="523">5.92186e-12</wgt>
  <wgt id="524">5.87998e-12</wgt>
  <wgt id="525">5.96922e-12</wgt>
  <wgt id="526">5.81042e-12</wgt>
  <wgt id="527">5.87877e-12</wgt>
  <wgt id="528">5.81711e-12</wgt>
  <wgt id="529">5.69109e-12</wgt>
  <wgt id="530">5.8465e-12</wgt>
  <wgt id="531">5.72792e-12</wgt>
  <wgt id="532">6.11455e-12</wgt>
  <wgt id="533">5.44727e-12</wgt>
  <wgt id="534">5.81387e-12</wgt>
  <wgt id="535">5.90558e-12</wgt>
  <wgt id="536">5.76499e-12</wgt>
  <wgt id="537">5.80974e-12</wgt>
  <wgt id="538">5.8605e-12</wgt>
  <wgt id="539">5.67979e-12</wgt>
  <wgt id="540">5.68389e-12</wgt>
  <wgt id="541">5.63786e-12</wgt>
  <wgt id="542">5.68891e-12</wgt>
  <wgt id="543">5.78061e-12</wgt>
  <wgt id="544">6.07387e-12</wgt>
  <wgt id="545">5.71539e-12</wgt>
  <wgt id="546">5.71761e-12</wgt>
  <wgt id="547">5.61446e-12</wgt>
  <wgt id="548">5.55388e-12</wgt>
  <wgt id="549">5.68974e-12</wgt>
  <wgt id="550">5.75681e-12</wgt>
  <wgt id="551">5.84793e-12</wgt>
  <wgt id="552">5.73565e-12</wgt>
  <wgt id="553">5.77319e-12</wgt>
  <wgt id="554">6.21699e-12</wgt>
  <wgt id="555">5.9379e-12</wgt>
  <wgt id="556">5.60547e-12</wgt>
  <wgt id="557">5.88607e-12</wgt>
  <wgt id="558">5.60342e-12</wgt>
  <wgt id="559">5.71213e-12</wgt>
  <wgt id="560">6.27394e-12</wgt>
  <wgt id="561">5.67518e-12</wgt>
  <wgt id="562">5.88257e-12</wgt>
  <wgt id="563">5.62601e-12</wgt>
  <wgt id="564">5.79451e-12</wgt>
  <wgt id="565">5.57631e-12</wgt>
  <wgt id="566">5.87985e-12</wgt>
  <wgt id="567">5.70848e-12</wgt>
  <wgt id="568">5.77039e-12</wgt>
  <wgt id="569">5.89254e-12</wgt>
  <wgt id="570">5.61236e-12</wgt>
  <wgt id="571">6.4156e-12</wgt>
  <wgt id="572">5.65643e-12</wgt>
  <wgt id="573">5.53401e-12</wgt>
  <wgt id="574">5.58465e-12</wgt>
  <wgt id="575">6.37359e-12</wgt>
  <wgt id="576">6.31599e-12</wgt>
  <wgt id="577">6.55161e-12</wgt>
  <wgt id="578">6.53583e-12</wgt>
  <wgt id="579">6.47698e-12</wgt>
  <wgt id="580">6.49475e-12</wgt>
  <wgt id="581">6.7814e-12</wgt>
  <wgt id="582">6.30038e-12</wgt>
  <wgt id="583">6.44238e-12</wgt>
  <wgt id="584">6.38202e-12</wgt>
  <wgt id="585">6.41672e-12</wgt>
  <wgt id="586">6.23006e-12</wgt>
  <wgt id="587">6.46209e-12</wgt>
  <wgt id="588">6.33999e-12</wgt>
  <wgt id="589">6.49267e-12</wgt>
  <wgt id="590">6.48107e-12</wgt>
  <wgt id="591">6.61505e-12</wgt>
  <wgt id="592">6.23623e-12</wgt>
  <wgt id="593">6.34532e-12</wgt>
  <wgt id="594">6.57227e-12</wgt>
  <wgt id="595">6.34716e-12</wgt>
  <wgt id="596">6.43207e-12</wgt>
  <wgt id="597">6.17633e-12</wgt>
  <wgt id="598">6.21233e-12</wgt>
  <wgt id="599">6.70317e-12</wgt>
  <wgt id="600">6.31168e-12</wgt>
  <wgt id="601">6.19483e-12</wgt>
  <wgt id="602">6.23957e-12</wgt>
  <wgt id="603">6.25747e-12</wgt>
  <wgt id="604">6.46587e-12</wgt>
  <wgt id="605">6.6306e-12</wgt>
  <wgt id="606">6.23071e-12</wgt>
  <wgt id="607">6.29327e-12</wgt>
  <wgt id="608">6.4126e-12</wgt>
  <wgt id="609">6.02519e-12</wgt>
  <wgt id="610">6.13414e-12</wgt>
  <wgt id="611">6.44041e-12</wgt>
  <wgt id="612">6.82012e-12</wgt>
  <wgt id="613">6.36142e-12</wgt>
  <wgt id="614">6.45822e-12</wgt>
  <wgt id="615">6.24464e-12</wgt>
  <wgt id="616">6.73873e-12</wgt>
  <wgt id="617">6.61126e-12</wgt>
  <wgt id="618">6.48252e-12</wgt>
  <wgt id="619">6.30396e-12</wgt>
  <wgt id="620">6.642e-12</wgt>
  <wgt id="621">6.46301e-12</wgt>
  <wgt id="622">6.46209e-12</wgt>
  <wgt id="623">6.55349e-12</wgt>
  <wgt id="624">6.3513e-12</wgt>
  <wgt id="625">6.29911e-12</wgt>
  <wgt id="626">6.21861e-12</wgt>
  <wgt id="627">6.12465e-12</wgt>
  <wgt id="628">6.74148e-12</wgt>
  <wgt id="629">6.22865e-12</wgt>
  <wgt id="630">6.14879e-12</wgt>
  <wgt id="631">6.4016e-12</wgt>
  <wgt id="632">6.15535e-12</wgt>
  <wgt id="633">6.30198e-12</wgt>
  <wgt id="634">6.36492e-12</wgt>
  <wgt id="635">6.24948e-12</wgt>
  <wgt id="636">6.41106e-12</wgt>
  <wgt id="637">6.35711e-12</wgt>
  <wgt id="638">6.13168e-12</wgt>
  <wgt id="639">6.2897e-12</wgt>
  <wgt id="640">6.3778e-12</wgt>
  <wgt id="641">6.41037e-12</wgt>
  <wgt id="642">6.13774e-12</wgt>
  <wgt id="643">6.33772e-12</wgt>
  <wgt id="644">6.12764e-12</wgt>
  <wgt id="645">6.43002e-12</wgt>
  <wgt id="646">6.46741e-12</wgt>
  <wgt id="647">6.28957e-12</wgt>
  <wgt id="648">6.40888e-12</wgt>
  <wgt id="649">6.47073e-12</wgt>
  <wgt id="650">6.25409e-12</wgt>
  <wgt id="651">6.40811e-12</wgt>
  <wgt id="652">6.3336e-12</wgt>
  <wgt id="653">6.19663e-12</wgt>
  <wgt id="654">6.33854e-12</wgt>
  <wgt id="655">6.26711e-12</wgt>
  <wgt id="656">6.40804e-12</wgt>
  <wgt id="657">6.59355e-12</wgt>
  <wgt id="658">6.40772e-12</wgt>
  <wgt id="659">6.12708e-12</wgt>
  <wgt id="660">6.49631e-12</wgt>
  <wgt id="661">6.26953e-12</wgt>
  <wgt id="662">6.36963e-12</wgt>
  <wgt id="663">6.37108e-12</wgt>
  <wgt id="664">6.27956e-12</wgt>
  <wgt id="665">6.35279e-12</wgt>
  <wgt id="666">6.32656e-12</wgt>
  <wgt id="667">6.57209e-12</wgt>
  <wgt id="668">6.36156e-12</wgt>
  <wgt id="669">6.52737e-12</wgt>
  <wgt id="670">6.4929e-12</wgt>
  <wgt id="671">6.30979e-12</wgt>
  <wgt id="672">6.10734e-12</wgt>
  <wgt id="673">6.38402e-12</wgt>
  <wgt id="674">6.25122e-12</wgt>
  <wgt id="675">6.27853e-12</wgt>
  <wgt id="676">8.02494e-12</wgt>
  <wgt id="677">8.11715e-12</wgt>
  <wgt id="678">8.40505e-12</wgt>
  <wgt id="679">7.53234e-12</wgt>
  <wgt id="680">7.81887e-12</wgt>
  <wgt id="681">8.21198e-12</wgt>
  <wgt id="682">8.24339e-12</wgt>
  <wgt id="683">7.9236e-12</wgt>
  <wgt id="684">8.38728e-12</wgt>
  <wgt id="685">7.60162e-12</wgt>
  <wgt id="686">7.90787e-12</wgt>
  <wgt id="687">8.41831e-12</wgt>
  <wgt id="688">7.9967e-12</wgt>
  <wgt id="689">8.67398e-12</wgt>
  <wgt id="690">8.44296e-12</wgt>
  <wgt id="691">8.51046e-12</wgt>
  <wgt id="692">7.94565e-12</wgt>
  <wgt id="693">9.38776e-12</wgt>
  <wgt id="694">8.49745e-12</wgt>
  <wgt id="695">7.77463e-12</wgt>
  <wgt id="696">7.6022e-12</wgt>
  <wgt id="697">7.80711e-12</wgt>
  <wgt id="698">7.39652e-12</wgt>
  <wgt id="699">7.33505e-12</wgt>
  <wgt id="700">7.0279e-12</wgt>
  <wgt id="701">8.05287e-12</wgt>
  <wgt id="702">7.74533e-12</wgt>
  <wgt id="703">9.18811e-12</wgt>
  <wgt id="704">8.73996e-12</wgt>
  <wgt id="705">8.36816e-12</wgt>
  <wgt id="706">7.47917e-12</wgt>
  <wgt id="707">7.70766e-12</wgt>
  <wgt id="708">7.92237e-12</wgt>
  <wgt id="709">7.88635e-12</wgt>
  <wgt id="710">7.2088e-12</wgt>
  <wgt id="711">7.98436e-12</wgt>
  <wgt id="712">7.89429e-12</wgt>
  <wgt id="713">8.66841e-12</wgt>
  <wgt id="714">7.91498e-12</wgt>
  <wgt id="715">7.94422e-12</wgt>
  <wgt id="716">7.71908e-12</wgt>
  <wgt id="717">7.66319e-12</wgt>
  <wgt id="718">7.98233e-12</wgt>
  <wgt id="719">7.29635e-12</wgt>
  <wgt id="720">7.56048e-12</wgt>
  <wgt id="721">7.43061e-12</wgt>
  <wgt id="722">7.14458e-12</wgt>
  <wgt id="723">8.54495e-12</wgt>
  <wgt id="724">8.39368e-12</wgt>
  <wgt id="725">8.47232e-12</wgt>
  <wgt id="726">8.10589e-12</wgt>
  <wgt id="727">7.83827e-12</wgt>
  <wgt id="728">7.8689e-12</wgt>
  <wgt id="729">7.30488e-12</wgt>
  <wgt id="730">8.64748e-12</wgt>
  <wgt id="731">7.93058e-12</wgt>
  <wgt id="732">8.80411e-12</wgt>
  <wgt id="733">8.01926e-12</wgt>
  <wgt id="734">8.2196e-12</wgt>
  <wgt id="735">7.98649e-12</wgt>
  <wgt id="736">7.88032e-12</wgt>
  <wgt id="737">8.15996e-12</wgt>
  <wgt id="738">7.63303e-12</wgt>
  <wgt id="739">8.11855e-12</wgt>
  <wgt id="740">8.9086e-12</wgt>
  <wgt id="741">7.14963e-12</wgt>
  <wgt id="742">7.89941e-12</wgt>
  <wgt id="743">7.68083e-12</wgt>
  <wgt id="744">7.86271e-12</wgt>
  <wgt id="745">8.38383e-12</wgt>
  <wgt id="746">8.51591e-12</wgt>
  <wgt id="747">7.2925e-12</wgt>
  <wgt id="748">7.92089e-12</wgt>
  <wgt id="749">8.45472e-12</wgt>
  <wgt id="750">8.12479e-12</wgt>
  <wgt id="751">8.28893e-12</wgt>
  <wgt id="752">7.3633e-12</wgt>
  <wgt id="753">7.63851e-12</wgt>
  <wgt id="754">8.38136e-12</wgt>
  <wgt id="755">8.05789e-12</wgt>
  <wgt id="756">8.07803e-12</wgt>
  <wgt id="757">7.396e-12</wgt>
  <wgt id="758">8.10217e-12</wgt>
  <wgt id="759">8.15246e-12</wgt>
  <wgt id="760">8.13062e-12</wgt>
  <wgt id="761">8.45306e-12</wgt>
  <wgt id="762">8.49925e-12</wgt>
  <wgt id="763">8.00095e-12</wgt>
  <wgt id="764">8.34076e-12</wgt>
  <wgt id="765">8.167e-12</wgt>
  <wgt id="766">8.01025e-12</wgt>
  <wgt id="767">8.23088e-12</wgt>
  <wgt id="768">7.58003e-12</wgt>
  <wgt id="769">8.50968e-12</wgt>
  <wgt id="770">7.78978e-12</wgt>
  <wgt id="771">9.4788e-12</wgt>
  <wgt id="772">7.57131e-12</wgt>
  <wgt id="773">7.96843e-12</wgt>
  <wgt id="774">7.15269e-12</wgt>
  <wgt id="775">8.45869e-12</wgt>
  <wgt id="776">8.76885e-12</wgt>
  <wgt id="777">7.64723e-12</wgt>
  <wgt id="778">5.91993e-12</wgt>
  <wgt id="779">4.92492e-12</wgt>
  <wgt id="780">4.01013e-12</wgt>
  <wgt id="781">6.04064e-12</wgt>
  <wgt id="782">6.27714e-12</wgt>
  <wgt id="783">4.98508e-12</wgt>
  <wgt id="784">5.17323e-12</wgt>
  <wgt id="785">7.20429e-12</wgt>
  <wgt id="786">4.55889e-12</wgt>
  <wgt id="787">6.74423e-12</wgt>
  <wgt id="788">3.71996e-12</wgt>
  <wgt id="789">4.73114e-12</wgt>
  <wgt id="790">4.505e-12</wgt>
  <wgt id="791">5.54344e-12</wgt>
  <wgt id="792">7.6945e-12</wgt>
  <wgt id="793">5.77448e-12</wgt>
  <wgt id="794">4.52135e-12</wgt>
  <wgt id="795">6.946e-12</wgt>
  <wgt id="796">7.7946e-12</wgt>
  <wgt id="797">6.86813e-12</wgt>
  <wgt id="798">5.45139e-12</wgt>
  <wgt id="799">6.74776e-12</wgt>
  <wgt id="800">4.78625e-12</wgt>
  <wgt id="801">5.52538e-12</wgt>
  <wgt id="802">4.54971e-12</wgt>
  <wgt id="803">7.70263e-12</wgt>
  <wgt id="804">6.89228e-12</wgt>
  <wgt id="805">7.0202e-12</wgt>
  <wgt id="806">6.63051e-12</wgt>
  <wgt id="807">5.63596e-12</wgt>
  <wgt id="808">5.76109e-12</wgt>
  <wgt id="809">5.45012e-12</wgt>
  <wgt id="810">6.74051e-12</wgt>
  <wgt id="811">6.46857e-12</wgt>
  <wgt id="812">4.48757e-12</wgt>
  <wgt id="813">4.59572e-12</wgt>
  <wgt id="814">5.05519e-12</wgt>
  <wgt id="815">4.93598e-12</wgt>
  <wgt id="816">4.33363e-12</wgt>
  <wgt id="817">6.21801e-12</wgt>
  <wgt id="818">5.8735e-12</wgt>
  <wgt id="819">4.9221e-12</wgt>
  <wgt id="820">5.92828e-12</wgt>
  <wgt id="821">6.82679e-12</wgt>
  <wgt id="822">4.91221e-12</wgt>
  <wgt id="823">6.86804e-12</wgt>
  <wgt id="824">7.96651e-12</wgt>
  <wgt id="825">4.36393e-12</wgt>
  <wgt id="826">6.26577e-12</wgt>
  <wgt id="827">3.59492e-12</wgt>
  <wgt id="828">7.59417e-12</wgt>
  <wgt id="829">6.1651e-12</wgt>
  <wgt id="830">4.13632e-12</wgt>
  <wgt id="831">6.38515e-12</wgt>
  <wgt id="832">9.73687e-12</wgt>
  <wgt id="833">5.51062e-12</wgt>
  <wgt id="834">9.09695e-12</wgt>
  <wgt id="835">4.79427e-12</wgt>
  <wgt id="836">5.88709e-12</wgt>
  <wgt id="837">6.73799e-12</wgt>
  <wgt id="838">5.64766e-12</wgt>
  <wgt id="839">6.34258e-12</wgt>
  <wgt id="840">5.52847e-12</wgt>
  <wgt id="841">7.31171e-12</wgt>
  <wgt id="842">5.35926e-12</wgt>
  <wgt id="843">5.8246e-12</wgt>
  <wgt id="844">6.19035e-12</wgt>
  <wgt id="845">8.31759e-12</wgt>
  <wgt id="846">5.52061e-12</wgt>
  <wgt id="847">5.98796e-12</wgt>
  <wgt id="848">5.10396e-12</wgt>
  <wgt id="849">6.07767e-12</wgt>
  <wgt id="850">7.74541e-12</wgt>
  <wgt id="851">6.50062e-12</wgt>
  <wgt id="852">5.06323e-12</wgt>
  <wgt id="853">6.50483e-12</wgt>
  <wgt id="854">7.22626e-12</wgt>
  <wgt id="855">6.89201e-12</wgt>
  <wgt id="856">4.24567e-12</wgt>
  <wgt id="857">5.92883e-12</wgt>
  <wgt id="858">5.87101e-12</wgt>
  <wgt id="859">5.49948e-12</wgt>
  <wgt id="860">6.38493e-12</wgt>
  <wgt id="861">5.19551e-12</wgt>
  <wgt id="862">6.04109e-12</wgt>
  <wgt id="863">6.2779e-12</wgt>
  <wgt id="864">6.3052e-12</wgt>
  <wgt id="865">8.53015e-12</wgt>
  <wgt id="866">9.33015e-12</wgt>
  <wgt id="867">6.05182e-12</wgt>
  <wgt id="868">5.87993e-12</wgt>
  <wgt id="869">4.58435e-12</wgt>
  <wgt id="870">4.82198e-12</wgt>
  <wgt id="871">4.67755e-12</wgt>
  <wgt id="872">7.09171e-12</wgt>
  <wgt id="873">4.85876e-12</wgt>
  <wgt id="874">6.24343e-12</wgt>
  <wgt id="875">5.13991e-12</wgt>
  <wgt id="876">7.10865e-12</wgt>
  <wgt id="877">6.81312e-12</wgt>
  <wgt id="878">5.07071e-12</wgt>
  <wgt id="879">8.02494e-12</wgt>
  <wgt id="880">8.11715e-12</wgt>
  <wgt id="881">8.40505e-12</wgt>
  <wgt id="882">7.53234e-12</wgt>
  <wgt id="883">7.81887e-12</wgt>
  <wgt id="884">8.21198e-12</wgt>
  <wgt id="885">8.24339e-12</wgt>
  <wgt id="886">7.9236e-12</wgt>
  <wgt id="887">8.38728e-12</wgt>
  <wgt id="888">7.60162e-12</wgt>
  <wgt id="889">7.90787e-12</wgt>
  <wgt id="890">8.41831e-12</wgt>
  <wgt id="891">7.9967e-12</wgt>
  <wgt id="892">8.67398e-12</wgt>
  <wgt id="893">8.44296e-12</wgt>
  <wgt id="894">8.51046e-12</wgt>
  <wgt id="895">7.94565e-12</wgt>
  <wgt id="896">9.38776e-12</wgt>
  <wgt id="897">8.49745e-12</wgt>
  <wgt id="898">7.77463e-12</wgt>
  <wgt id="899">7.6022e-12</wgt>
  <wgt id="900">7.80711e-12</wgt>
  <wgt id="901">7.39652e-12</wgt>
  <wgt id="902">7.33505e-12</wgt>
  <wgt id="903">7.0279e-12</wgt>
  <wgt id="904">8.05287e-12</wgt>
  <wgt id="905">7.74533e-12</wgt>
  <wgt id="906">9.18811e-12</wgt>
  <wgt id="907">8.73996e-12</wgt>
  <wgt id="908">8.36816e-12</wgt>
  <wgt id="909">7.47917e-12</wgt>
  <wgt id="910">7.70766e-12</wgt>
  <wgt id="911">7.92237e-12</wgt>
  <wgt id="912">7.88635e-12</wgt>
  <wgt id="913">7.2088e-12</wgt>
  <wgt id="914">7.98436e-12</wgt>
  <wgt id="915">7.89429e-12</wgt>
  <wgt id="916">8.66841e-12</wgt>
  <wgt id="917">7.91498e-12</wgt>
  <wgt id="918">7.94422e-12</wgt>
  <wgt id="919">7.71908e-12</wgt>
  <wgt id="920">7.66319e-12</wgt>
  <wgt id="921">7.98233e-12</wgt>
  <wgt id="922">7.29635e-12</wgt>
  <wgt id="923">7.56048e-12</wgt>
  <wgt id="924">7.43061e-12</wgt>
  <wgt id="925">7.14458e-12</wgt>
  <wgt id="926">8.54495e-12</wgt>
  <wgt id="927">8.39368e-12</wgt>
  <wgt id="928">8.47232e-12</wgt>
  <wgt id="929">8.10589e-12</wgt>
  <wgt id="930">7.83827e-12</wgt>
  <wgt id="931">7.8689e-12</wgt>
  <wgt id="932">7.30488e-12</wgt>
  <wgt id="933">8.64748e-12</wgt>
  <wgt id="934">7.93058e-12</wgt>
  <wgt id="935">8.80411e-12</wgt>
  <wgt id="936">8.01926e-12</wgt>
  <wgt id="937">8.2196e-12</wgt>
  <wgt id="938">7.98649e-12</wgt>
  <wgt id="939">7.88032e-12</wgt>
  <wgt id="940">8.15996e-12</wgt>
  <wgt id="941">7.63303e-12</wgt>
  <wgt id="942">8.11855e-12</wgt>
  <wgt id="943">8.9086e-12</wgt>
  <wgt id="944">7.14963e-12</wgt>
  <wgt id="945">7.89941e-12</wgt>
  <wgt id="946">7.68083e-12</wgt>
  <wgt id="947">7.86271e-12</wgt>
  <wgt id="948">8.38383e-12</wgt>
  <wgt id="949">8.51591e-12</wgt>
  <wgt id="950">7.2925e-12</wgt>
  <wgt id="951">7.92089e-12</wgt>
  <wgt id="952">8.45472e-12</wgt>
  <wgt id="953">8.12479e-12</wgt>
  <wgt id="954">8.28893e-12</wgt>
  <wgt id="955">7.3633e-12</wgt>
  <wgt id="956">7.63851e-12</wgt>
  <wgt id="957">8.38136e-12</wgt>
  <wgt id="958">8.05789e-12</wgt>
  <wgt id="959">8.07803e-12</wgt>
  <wgt id="960">7.396e-12</wgt>
  <wgt id="961">8.10217e-12</wgt>
  <wgt id="962">8.15246e-12</wgt>
  <wgt id="963">8.13062e-12</wgt>
  <wgt id="964">8.45306e-12</wgt>
  <wgt id="965">8.49925e-12</wgt>
  <wgt id="966">8.00095e-12</wgt>
  <wgt id="967">8.34076e-12</wgt>
  <wgt id="968">8.167e-12</wgt>
  <wgt id="969">8.01025e-12</wgt>
  <wgt id="970">8.23088e-12</wgt>
  <wgt id="971">7.58003e-12</wgt>
  <wgt id="972">8.50968e-12</wgt>
  <wgt id="973">7.78978e-12</wgt>
  <wgt id="974">9.4788e-12</wgt>
  <wgt id="975">7.57131e-12</wgt>
  <wgt id="976">7.96843e-12</wgt>
  <wgt id="977">7.15269e-12</wgt>
  <wgt id="978">8.45869e-12</wgt>
  <wgt id="979">8.76885e-12</wgt>
  <wgt id="980">8.02479e-12</wgt>
  <wgt id="981">8.06983e-12</wgt>
  <wgt id="982">7.79541e-12</wgt>
</rwgt>
</event>
<event>
 5   1  0.5790000E-11  0.2187576E+04  0.7818608E-02  0.7753565E-01
       21   -1    0    0  502  501  0.00000000000E+00  0.00000000000E+00  0.15660382153E+04  0.15660382153E+04  0.00000000000E+00 0.  1.
       21   -1    0    0  501  502 -0.00000000000E+00 -0.00000000000E+00 -0.76394810277E+03  0.76394810277E+03  0.00000000000E+00 0. -1.
       39    2    1    2    0    0  0.00000000000E+00  0.00000000000E+00  0.80209011258E+03  0.23299863181E+04  0.21875757573E+04 0.  0.
       25    1    3    3    0    0 -0.84323564608E+03 -0.65419857307E+03  0.18348088434E+03  0.10900974098E+04  0.12500000000E+03 0.  0.
       25    1    3    3    0    0  0.84323564608E+03  0.65419857307E+03  0.61860922824E+03  0.12398889084E+04  0.12500000000E+03 0.  0.
<mgrwt>
<rscale>  0 0.21875758E+04</rscale>
<asrwt>0</asrwt>
<pdfrwt beam="1">  1       21 0.24092896E+00 0.21875758E+04</pdfrwt>
<pdfrwt beam="2">  1       21 0.11753048E+00 0.21875758E+04</pdfrwt>
<totfact> 0.16293465E+01</totfact>
</mgrwt>
<rwgt>
  <wgt id="1">5.79e-12</wgt>
  <wgt id="2">5.04745e-12</wgt>
  <wgt id="3">6.71014e-12</wgt>
  <wgt id="4">5.79e-12</wgt>
  <wgt id="5">5.04745e-12</wgt>
  <wgt id="6">6.71014e-12</wgt>
  <wgt id="7">5.79e-12</wgt>
  <wgt id="8">5.04745e-12</wgt>
  <wgt id="9">6.71014e-12</wgt>
  <wgt id="10">5.99189e-12</wgt>
  <wgt id="11">5.988e-12</wgt>
  <wgt id="12">5.9823e-12</wgt>
  <wgt id="13">5.97347e-12</wgt>
  <wgt id="14">6.0136e-12</wgt>
  <wgt id="15">6.00197e-12</wgt>
  <wgt id="16">5.98263e-12</wgt>
  <wgt id="17">6.00912e-12</wgt>
  <wgt id="18">5.9823e-12</wgt>
  <wgt id="19">6.00515e-12</wgt>
  <wgt id="20">5.97826e-12</wgt>
  <wgt id="21">5.95098e-12</wgt>
  <wgt id="22">5.96245e-12</wgt>
  <wgt id="23">5.9299e-12</wgt>
  <wgt id="24">5.95918e-12</wgt>
  <wgt id="25">5.97517e-12</wgt>
  <wgt id="26">6.01151e-12</wgt>
  <wgt id="27">5.98851e-12</wgt>
  <wgt id="28">5.96146e-12</wgt>
  <wgt id="29">5.99596e-12</wgt>
  <wgt id="30">5.96471e-12</wgt>
  <wgt id="31">6.014e-12</wgt>
  <wgt id="32">5.9728e-12</wgt>
  <wgt id="33">6.00372e-12</wgt>
  <wgt id="34">5.96698e-12</wgt>
  <wgt id="35">5.97799e-12</wgt>
  <wgt id="36">6.01118e-12</wgt>
  <wgt id="37">5.97582e-12</wgt>
  <wgt id="38">5.97461e-12</wgt>
  <wgt id="39">6.06502e-12</wgt>
  <wgt id="40">5.99929e-12</wgt>
  <wgt id="41">5.98932e-12</wgt>
  <wgt id="42">6.00241e-12</wgt>
  <wgt id="43">5.99154e-12</wgt>
  <wgt id="44">5.98691e-12</wgt>
  <wgt id="45">6.00256e-12</wgt>
  <wgt id="46">5.99184e-12</wgt>
  <wgt id="47">5.9899e-12</wgt>
  <wgt id="48">5.99368e-12</wgt>
  <wgt id="49">5.98347e-12</wgt>
  <wgt id="50">5.99819e-12</wgt>
  <wgt id="51">5.99754e-12</wgt>
  <wgt id="52">5.99624e-12</wgt>
  <wgt id="53">5.96782e-12</wgt>
  <wgt id="54">5.98908e-12</wgt>
  <wgt id="55">5.99116e-12</wgt>
  <wgt id="56">6.01449e-12</wgt>
  <wgt id="57">6.00443e-12</wgt>
  <wgt id="58">5.96531e-12</wgt>
  <wgt id="59">5.97781e-12</wgt>
  <wgt id="60">5.9952e-12</wgt>
  <wgt id="61">5.96347e-12</wgt>
  <wgt id="62">5.97558e-12</wgt>
  <wgt id="63">5.98623e-12</wgt>
  <wgt id="64">5.99477e-12</wgt>
  <wgt id="65">5.99989e-12</wgt>
  <wgt id="66">5.98508e-12</wgt>
  <wgt id="67">5.96608e-12</wgt>
  <wgt id="68">5.98901e-12</wgt>
  <wgt id="69">5.99313e-12</wgt>
  <wgt id="70">5.99286e-12</wgt>
  <wgt id="71">5.98995e-12</wgt>
  <wgt id="72">5.97752e-12</wgt>
  <wgt id="73">5.99828e-12</wgt>
  <wgt id="74">5.99436e-12</wgt>
  <wgt id="75">5.98471e-12</wgt>
  <wgt id="76">6.00642e-12</wgt>
  <wgt id="77">5.98953e-12</wgt>
  <wgt id="78">5.99082e-12</wgt>
  <wgt id="79">6.0066e-12</wgt>
  <wgt id="80">5.96852e-12</wgt>
  <wgt id="81">5.98824e-12</wgt>
  <wgt id="82">5.99223e-12</wgt>
  <wgt id="83">5.96983e-12</wgt>
  <wgt id="84">5.98467e-12</wgt>
  <wgt id="85">5.97766e-12</wgt>
  <wgt id="86">6.01028e-12</wgt>
  <wgt id="87">5.95949e-12</wgt>
  <wgt id="88">5.99807e-12</wgt>
  <wgt id="89">5.99669e-12</wgt>
  <wgt id="90">6.00564e-12</wgt>
  <wgt id="91">5.99839e-12</wgt>
  <wgt id="92">6.00388e-12</wgt>
  <wgt id="93">5.99569e-12</wgt>
  <wgt id="94">5.98626e-12</wgt>
  <wgt id="95">6.00234e-12</wgt>
  <wgt id="96">5.99669e-12</wgt>
  <wgt id="97">5.97971e-12</wgt>
  <wgt id="98">5.99434e-12</wgt>
  <wgt id="99">5.98123e-12</wgt>
  <wgt id="100">5.99886e-12</wgt>
  <wgt id="101">5.99345e-12</wgt>
  <wgt id="102">5.98777e-12</wgt>
  <wgt id="103">6.00048e-12</wgt>
  <wgt id="104">5.98949e-12</wgt>
  <wgt id="105">6.00085e-12</wgt>
  <wgt id="106">5.9825e-12</wgt>
  <wgt id="107">6.00987e-12</wgt>
  <wgt id="108">5.98522e-12</wgt>
  <wgt id="109">5.99282e-12</wgt>
  <wgt id="110">5.99231e-12</wgt>
  <wgt id="111">6.04195e-12</wgt>
  <wgt id="112">6.00739e-12</wgt>
  <wgt id="113">8.07193e-12</wgt>
  <wgt id="114">8.18397e-12</wgt>
  <wgt id="115">8.05727e-12</wgt>
  <wgt id="116">1.10024e-11</wgt>
  <wgt id="117">6.61164e-12</wgt>
  <wgt id="118">6.63347e-12</wgt>
  <wgt id="119">6.59903e-12</wgt>
  <wgt id="120">6.61229e-12</wgt>
  <wgt id="121">6.61129e-12</wgt>
  <wgt id="122">6.59993e-12</wgt>
  <wgt id="123">6.62751e-12</wgt>
  <wgt id="124">6.60211e-12</wgt>
  <wgt id="125">6.61758e-12</wgt>
  <wgt id="126">6.62212e-12</wgt>
  <wgt id="127">6.60452e-12</wgt>
  <wgt id="128">6.63218e-12</wgt>
  <wgt id="129">6.5912e-12</wgt>
  <wgt id="130">6.64809e-12</wgt>
  <wgt id="131">6.57408e-12</wgt>
  <wgt id="132">6.4416e-12</wgt>
  <wgt id="133">6.81227e-12</wgt>
  <wgt id="134">6.54285e-12</wgt>
  <wgt id="135">6.66533e-12</wgt>
  <wgt id="136">6.69601e-12</wgt>
  <wgt id="137">6.50945e-12</wgt>
  <wgt id="138">6.86623e-12</wgt>
  <wgt id="139">6.36571e-12</wgt>
  <wgt id="140">6.5696e-12</wgt>
  <wgt id="141">6.64428e-12</wgt>
  <wgt id="142">6.61193e-12</wgt>
  <wgt id="143">6.62268e-12</wgt>
  <wgt id="144">6.42417e-12</wgt>
  <wgt id="145">6.78591e-12</wgt>
  <wgt id="146">6.6705e-12</wgt>
  <wgt id="147">6.56473e-12</wgt>
  <wgt id="148">6.63194e-12</wgt>
  <wgt id="149">6.61014e-12</wgt>
  <wgt id="150">6.6672e-12</wgt>
  <wgt id="151">6.58565e-12</wgt>
  <wgt id="152">6.61413e-12</wgt>
  <wgt id="153">6.61068e-12</wgt>
  <wgt id="154">6.65971e-12</wgt>
  <wgt id="155">6.552e-12</wgt>
  <wgt id="156">6.74603e-12</wgt>
  <wgt id="157">6.47132e-12</wgt>
  <wgt id="158">7.95353e-12</wgt>
  <wgt id="159">7.9868e-12</wgt>
  <wgt id="160">7.92681e-12</wgt>
  <wgt id="161">7.93466e-12</wgt>
  <wgt id="162">7.97438e-12</wgt>
  <wgt id="163">7.945e-12</wgt>
  <wgt id="164">7.96539e-12</wgt>
  <wgt id="165">7.95654e-12</wgt>
  <wgt id="166">7.95092e-12</wgt>
  <wgt id="167">7.94765e-12</wgt>
  <wgt id="168">7.96161e-12</wgt>
  <wgt id="169">7.91929e-12</wgt>
  <wgt id="170">7.97463e-12</wgt>
  <wgt id="171">7.94559e-12</wgt>
  <wgt id="172">7.96393e-12</wgt>
  <wgt id="173">7.95071e-12</wgt>
  <wgt id="174">7.95429e-12</wgt>
  <wgt id="175">7.73598e-12</wgt>
  <wgt id="176">8.23616e-12</wgt>
  <wgt id="177">7.9929e-12</wgt>
  <wgt id="178">7.91727e-12</wgt>
  <wgt id="179">8.28536e-12</wgt>
  <wgt id="180">7.43012e-12</wgt>
  <wgt id="181">7.72486e-12</wgt>
  <wgt id="182">8.10446e-12</wgt>
  <wgt id="183">7.81391e-12</wgt>
  <wgt id="184">8.02241e-12</wgt>
  <wgt id="185">7.88592e-12</wgt>
  <wgt id="186">8.03369e-12</wgt>
  <wgt id="187">7.87975e-12</wgt>
  <wgt id="188">8.08495e-12</wgt>
  <wgt id="189">7.9021e-12</wgt>
  <wgt id="190">7.9742e-12</wgt>
  <wgt id="191">7.97544e-12</wgt>
  <wgt id="192">7.93999e-12</wgt>
  <wgt id="193">8.06463e-12</wgt>
  <wgt id="194">7.89814e-12</wgt>
  <wgt id="195">7.76271e-12</wgt>
  <wgt id="196">8.29468e-12</wgt>
  <wgt id="197">7.9923e-12</wgt>
  <wgt id="198">7.94419e-12</wgt>
  <wgt id="199">7.95353e-12</wgt>
  <wgt id="200">8.02116e-12</wgt>
  <wgt id="201">7.99667e-12</wgt>
  <wgt id="202">7.9732e-12</wgt>
  <wgt id="203">7.93755e-12</wgt>
  <wgt id="204">7.92069e-12</wgt>
  <wgt id="205">7.90653e-12</wgt>
  <wgt id="206">7.75322e-12</wgt>
  <wgt id="207">7.7985e-12</wgt>
  <wgt id="208">7.70886e-12</wgt>
  <wgt id="209">7.77494e-12</wgt>
  <wgt id="210">7.73779e-12</wgt>
  <wgt id="211">7.75106e-12</wgt>
  <wgt id="212">7.75501e-12</wgt>
  <wgt id="213">7.75259e-12</wgt>
  <wgt id="214">7.75429e-12</wgt>
  <wgt id="215">7.75847e-12</wgt>
  <wgt id="216">7.74966e-12</wgt>
  <wgt id="217">7.77357e-12</wgt>
  <wgt id="218">7.73775e-12</wgt>
  <wgt id="219">7.7433e-12</wgt>
  <wgt id="220">7.75943e-12</wgt>
  <wgt id="221">7.75137e-12</wgt>
  <wgt id="222">7.75752e-12</wgt>
  <wgt id="223">7.35224e-12</wgt>
  <wgt id="224">8.11861e-12</wgt>
  <wgt id="225">7.66398e-12</wgt>
  <wgt id="226">7.86596e-12</wgt>
  <wgt id="227">7.68254e-12</wgt>
  <wgt id="228">7.7845e-12</wgt>
  <wgt id="229">7.64881e-12</wgt>
  <wgt id="230">7.80529e-12</wgt>
  <wgt id="231">7.97459e-12</wgt>
  <wgt id="232">7.57116e-12</wgt>
  <wgt id="233">7.7133e-12</wgt>
  <wgt id="234">7.81696e-12</wgt>
  <wgt id="235">7.5824e-12</wgt>
  <wgt id="236">7.90908e-12</wgt>
  <wgt id="237">7.6407e-12</wgt>
  <wgt id="238">7.79164e-12</wgt>
  <wgt id="239">7.70503e-12</wgt>
  <wgt id="240">7.84086e-12</wgt>
  <wgt id="241">7.6753e-12</wgt>
  <wgt id="242">7.84678e-12</wgt>
  <wgt id="243">7.84182e-12</wgt>
  <wgt id="244">7.79059e-12</wgt>
  <wgt id="245">7.74779e-12</wgt>
  <wgt id="246">7.80847e-12</wgt>
  <wgt id="247">7.75322e-12</wgt>
  <wgt id="248">7.82157e-12</wgt>
  <wgt id="249">7.79626e-12</wgt>
  <wgt id="250">7.77187e-12</wgt>
  <wgt id="251">7.73612e-12</wgt>
  <wgt id="252">7.71908e-12</wgt>
  <wgt id="253">7.7067e-12</wgt>
  <wgt id="254">7.56523e-12</wgt>
  <wgt id="255">7.57214e-12</wgt>
  <wgt id="256">7.55754e-12</wgt>
  <wgt id="257">7.57104e-12</wgt>
  <wgt id="258">7.56087e-12</wgt>
  <wgt id="259">7.61535e-12</wgt>
  <wgt id="260">7.51661e-12</wgt>
  <wgt id="261">7.57413e-12</wgt>
  <wgt id="262">7.55447e-12</wgt>
  <wgt id="263">7.56161e-12</wgt>
  <wgt id="264">7.56906e-12</wgt>
  <wgt id="265">7.55703e-12</wgt>
  <wgt id="266">7.58155e-12</wgt>
  <wgt id="267">7.5674e-12</wgt>
  <wgt id="268">7.56186e-12</wgt>
  <wgt id="269">7.58747e-12</wgt>
  <wgt id="270">7.55003e-12</wgt>
  <wgt id="271">7.55086e-12</wgt>
  <wgt id="272">7.58117e-12</wgt>
  <wgt id="273">7.54343e-12</wgt>
  <wgt id="274">7.58158e-12</wgt>
  <wgt id="275">7.53282e-12</wgt>
  <wgt id="276">7.5986e-12</wgt>
  <wgt id="277">7.52296e-12</wgt>
  <wgt id="278">7.60409e-12</wgt>
  <wgt id="279">7.42807e-12</wgt>
  <wgt id="280">7.73721e-12</wgt>
  <wgt id="281">7.53378e-12</wgt>
  <wgt id="282">7.56732e-12</wgt>
  <wgt id="283">7.35346e-12</wgt>
  <wgt id="284">7.82566e-12</wgt>
  <wgt id="285">7.21234e-12</wgt>
  <wgt id="286">7.85692e-12</wgt>
  <wgt id="287">7.58863e-12</wgt>
  <wgt id="288">7.53515e-12</wgt>
  <wgt id="289">7.61725e-12</wgt>
  <wgt id="290">7.44465e-12</wgt>
  <wgt id="291">7.54427e-12</wgt>
  <wgt id="292">7.56929e-12</wgt>
  <wgt id="293">7.50816e-12</wgt>
  <wgt id="294">7.62178e-12</wgt>
  <wgt id="295">7.42491e-12</wgt>
  <wgt id="296">7.73626e-12</wgt>
  <wgt id="297">7.56396e-12</wgt>
  <wgt id="298">7.5919e-12</wgt>
  <wgt id="299">7.5419e-12</wgt>
  <wgt id="300">7.62656e-12</wgt>
  <wgt id="301">7.46729e-12</wgt>
  <wgt id="302">7.81656e-12</wgt>
  <wgt id="303">7.50977e-12</wgt>
  <wgt id="304">7.59689e-12</wgt>
  <wgt id="305">7.57957e-12</wgt>
  <wgt id="306">7.5869e-12</wgt>
  <wgt id="307">7.57124e-12</wgt>
  <wgt id="308">7.58611e-12</wgt>
  <wgt id="309">7.57502e-12</wgt>
  <wgt id="310">7.63154e-12</wgt>
  <wgt id="311">7.53105e-12</wgt>
  <wgt id="312">7.58625e-12</wgt>
  <wgt id="313">7.57235e-12</wgt>
  <wgt id="314">7.57586e-12</wgt>
  <wgt id="315">7.58257e-12</wgt>
  <wgt id="316">7.57152e-12</wgt>
  <wgt id="317">7.59649e-12</wgt>
  <wgt id="318">7.58441e-12</wgt>
  <wgt id="319">7.57041e-12</wgt>
  <wgt id="320">7.60286e-12</wgt>
  <wgt id="321">7.56624e-12</wgt>
  <wgt id="322">7.56133e-12</wgt>
  <wgt id="323">7.60019e-12</wgt>
  <wgt id="324">7.56165e-12</wgt>
  <wgt id="325">7.59468e-12</wgt>
  <wgt id="326">7.55315e-12</wgt>
  <wgt id="327">7.61295e-12</wgt>
  <wgt id="328">7.54045e-12</wgt>
  <wgt id="329">7.60153e-12</wgt>
  <wgt id="330">7.79224e-12</wgt>
  <wgt id="331">7.37623e-12</wgt>
  <wgt id="332">7.55324e-12</wgt>
  <wgt id="333">7.58007e-12</wgt>
  <wgt id="334">7.41386e-12</wgt>
  <wgt id="335">7.78502e-12</wgt>
  <wgt id="336">7.32377e-12</wgt>
  <wgt id="337">7.89031e-12</wgt>
  <wgt id="338">7.66189e-12</wgt>
  <wgt id="339">7.5029e-12</wgt>
  <wgt id="340">7.62817e-12</wgt>
  <wgt id="341">7.45385e-12</wgt>
  <wgt id="342">7.56489e-12</wgt>
  <wgt id="343">7.57162e-12</wgt>
  <wgt id="344">7.52787e-12</wgt>
  <wgt id="345">7.63907e-12</wgt>
  <wgt id="346">7.4338e-12</wgt>
  <wgt id="347">7.74661e-12</wgt>
  <wgt id="348">7.58161e-12</wgt>
  <wgt id="349">7.60132e-12</wgt>
  <wgt id="350">7.55009e-12</wgt>
  <wgt id="351">7.65363e-12</wgt>
  <wgt id="352">7.47345e-12</wgt>
  <wgt id="353">7.83941e-12</wgt>
  <wgt id="354">7.49619e-12</wgt>
  <wgt id="355">7.63053e-12</wgt>
  <wgt id="356">7.56523e-12</wgt>
  <wgt id="357">7.60786e-12</wgt>
  <wgt id="358">7.57957e-12</wgt>
  <wgt id="359">7.58885e-12</wgt>
  <wgt id="360">7.62204e-12</wgt>
  <wgt id="361">7.58982e-12</wgt>
  <wgt id="362">7.7181e-12</wgt>
  <wgt id="363">7.70053e-12</wgt>
  <wgt id="364">7.67387e-12</wgt>
  <wgt id="365">7.64887e-12</wgt>
  <wgt id="366">7.62103e-12</wgt>
  <wgt id="367">7.56437e-12</wgt>
  <wgt id="368">7.53225e-12</wgt>
  <wgt id="369">7.49763e-12</wgt>
  <wgt id="370">7.58982e-12</wgt>
  <wgt id="371">7.62291e-12</wgt>
  <wgt id="372">7.60474e-12</wgt>
  <wgt id="373">7.5777e-12</wgt>
  <wgt id="374">7.57692e-12</wgt>
  <wgt id="375">8.15691e-12</wgt>
  <wgt id="376">8.15767e-12</wgt>
  <wgt id="377">8.15575e-12</wgt>
  <wgt id="378">8.18654e-12</wgt>
  <wgt id="379">8.12783e-12</wgt>
  <wgt id="380">8.17944e-12</wgt>
  <wgt id="381">8.14823e-12</wgt>
  <wgt id="382">8.19616e-12</wgt>
  <wgt id="383">8.11819e-12</wgt>
  <wgt id="384">8.16209e-12</wgt>
  <wgt id="385">8.15172e-12</wgt>
  <wgt id="386">8.18644e-12</wgt>
  <wgt id="387">8.14446e-12</wgt>
  <wgt id="388">8.14957e-12</wgt>
  <wgt id="389">8.16586e-12</wgt>
  <wgt id="390">8.17755e-12</wgt>
  <wgt id="391">8.13537e-12</wgt>
  <wgt id="392">8.09745e-12</wgt>
  <wgt id="393">8.19106e-12</wgt>
  <wgt id="394">8.16713e-12</wgt>
  <wgt id="395">8.14326e-12</wgt>
  <wgt id="396">8.16248e-12</wgt>
  <wgt id="397">8.15315e-12</wgt>
  <wgt id="398">8.12992e-12</wgt>
  <wgt id="399">8.18339e-12</wgt>
  <wgt id="400">8.14519e-12</wgt>
  <wgt id="401">8.18394e-12</wgt>
  <wgt id="402">8.09325e-12</wgt>
  <wgt id="403">8.18645e-12</wgt>
  <wgt id="404">8.34291e-12</wgt>
  <wgt id="405">7.70827e-12</wgt>
  <wgt id="406">8.02248e-12</wgt>
  <wgt id="407">8.44958e-12</wgt>
  <wgt id="408">8.22596e-12</wgt>
  <wgt id="409">8.02517e-12</wgt>
  <wgt id="410">7.93648e-12</wgt>
  <wgt id="411">8.25949e-12</wgt>
  <wgt id="412">8.14243e-12</wgt>
  <wgt id="413">8.1781e-12</wgt>
  <wgt id="414">8.06886e-12</wgt>
  <wgt id="415">8.22544e-12</wgt>
  <wgt id="416">8.36843e-12</wgt>
  <wgt id="417">7.86449e-12</wgt>
  <wgt id="418">8.16821e-12</wgt>
  <wgt id="419">8.09489e-12</wgt>
  <wgt id="420">8.2734e-12</wgt>
  <wgt id="421">8.08968e-12</wgt>
  <wgt id="422">8.14403e-12</wgt>
  <wgt id="423">8.16464e-12</wgt>
  <wgt id="424">8.31739e-12</wgt>
  <wgt id="425">8.05494e-12</wgt>
  <wgt id="426">8.15691e-12</wgt>
  <wgt id="427">8.0777e-12</wgt>
  <wgt id="428">8.37505e-12</wgt>
  <wgt id="429">8.2298e-12</wgt>
  <wgt id="430">8.45513e-12</wgt>
  <wgt id="431">8.41049e-12</wgt>
  <wgt id="432">8.36801e-12</wgt>
  <wgt id="433">8.32698e-12</wgt>
  <wgt id="434">8.27673e-12</wgt>
  <wgt id="435">8.1718e-12</wgt>
  <wgt id="436">8.11813e-12</wgt>
  <wgt id="437">8.06687e-12</wgt>
  <wgt id="438">8.2298e-12</wgt>
  <wgt id="439">8.25642e-12</wgt>
  <wgt id="440">8.24066e-12</wgt>
  <wgt id="441">8.22176e-12</wgt>
  <wgt id="442">8.21522e-12</wgt>
  <wgt id="443">7.9026e-12</wgt>
  <wgt id="444">7.95124e-12</wgt>
  <wgt id="445">7.90162e-12</wgt>
  <wgt id="446">7.85027e-12</wgt>
  <wgt id="447">7.8877e-12</wgt>
  <wgt id="448">7.70763e-12</wgt>
  <wgt id="449">8.02548e-12</wgt>
  <wgt id="450">7.90748e-12</wgt>
  <wgt id="451">7.88838e-12</wgt>
  <wgt id="452">8.06835e-12</wgt>
  <wgt id="453">7.97049e-12</wgt>
  <wgt id="454">7.57946e-12</wgt>
  <wgt id="455">7.92549e-12</wgt>
  <wgt id="456">7.87573e-12</wgt>
  <wgt id="457">7.92913e-12</wgt>
  <wgt id="458">8.00308e-12</wgt>
  <wgt id="459">7.96019e-12</wgt>
  <wgt id="460">7.97322e-12</wgt>
  <wgt id="461">7.75763e-12</wgt>
  <wgt id="462">7.84918e-12</wgt>
  <wgt id="463">7.81083e-12</wgt>
  <wgt id="464">7.86515e-12</wgt>
  <wgt id="465">7.97965e-12</wgt>
  <wgt id="466">7.80169e-12</wgt>
  <wgt id="467">7.83468e-12</wgt>
  <wgt id="468">7.88493e-12</wgt>
  <wgt id="469">7.88687e-12</wgt>
  <wgt id="470">7.82393e-12</wgt>
  <wgt id="471">7.83392e-12</wgt>
  <wgt id="472">7.93749e-12</wgt>
  <wgt id="473">7.67706e-12</wgt>
  <wgt id="474">5.79e-12</wgt>
  <wgt id="475">5.99952e-12</wgt>
  <wgt id="476">5.69478e-12</wgt>
  <wgt id="477">5.64057e-12</wgt>
  <wgt id="478">5.8376e-12</wgt>
  <wgt id="479">5.68e-12</wgt>
  <wgt id="480">6.01321e-12</wgt>
  <wgt id="481">5.73339e-12</wgt>
  <wgt id="482">5.6646e-12</wgt>
  <wgt id="483">5.65519e-12</wgt>
  <wgt id="484">6.02283e-12</wgt>
  <wgt id="485">5.68384e-12</wgt>
  <wgt id="486">6.00565e-12</wgt>
  <wgt id="487">5.81307e-12</wgt>
  <wgt id="488">5.89504e-12</wgt>
  <wgt id="489">5.5043e-12</wgt>
  <wgt id="490">5.58668e-12</wgt>
  <wgt id="491">5.75953e-12</wgt>
  <wgt id="492">5.67058e-12</wgt>
  <wgt id="493">5.55779e-12</wgt>
  <wgt id="494">5.60128e-12</wgt>
  <wgt id="495">5.82258e-12</wgt>
  <wgt id="496">5.60272e-12</wgt>
  <wgt id="497">5.55711e-12</wgt>
  <wgt id="498">5.9251e-12</wgt>
  <wgt id="499">5.70915e-12</wgt>
  <wgt id="500">5.67075e-12</wgt>
  <wgt id="501">6.01834e-12</wgt>
  <wgt id="502">5.73359e-12</wgt>
  <wgt id="503">5.79244e-12</wgt>
  <wgt id="504">5.88062e-12</wgt>
  <wgt id="505">5.71786e-12</wgt>
  <wgt id="506">5.76425e-12</wgt>
  <wgt id="507">5.78132e-12</wgt>
  <wgt id="508">5.96491e-12</wgt>
  <wgt id="509">5.46751e-12</wgt>
  <wgt id="510">5.91223e-12</wgt>
  <wgt id="511">5.61831e-12</wgt>
  <wgt id="512">5.94285e-12</wgt>
  <wgt id="513">5.97711e-12</wgt>
  <wgt id="514">5.83983e-12</wgt>
  <wgt id="515">5.76564e-12</wgt>
  <wgt id="516">6.06885e-12</wgt>
  <wgt id="517">5.92658e-12</wgt>
  <wgt id="518">5.95168e-12</wgt>
  <wgt id="519">5.63665e-12</wgt>
  <wgt id="520">5.88944e-12</wgt>
  <wgt id="521">5.93677e-12</wgt>
  <wgt id="522">6.03627e-12</wgt>
  <wgt id="523">5.76702e-12</wgt>
  <wgt id="524">5.78196e-12</wgt>
  <wgt id="525">5.93329e-12</wgt>
  <wgt id="526">5.85724e-12</wgt>
  <wgt id="527">5.84363e-12</wgt>
  <wgt id="528">5.81598e-12</wgt>
  <wgt id="529">5.71746e-12</wgt>
  <wgt id="530">5.91572e-12</wgt>
  <wgt id="531">5.69155e-12</wgt>
  <wgt id="532">6.14306e-12</wgt>
  <wgt id="533">5.53587e-12</wgt>
  <wgt id="534">5.76594e-12</wgt>
  <wgt id="535">5.81402e-12</wgt>
  <wgt id="536">5.76127e-12</wgt>
  <wgt id="537">5.7707e-12</wgt>
  <wgt id="538">5.8563e-12</wgt>
  <wgt id="539">5.68547e-12</wgt>
  <wgt id="540">5.77426e-12</wgt>
  <wgt id="541">5.62837e-12</wgt>
  <wgt id="542">5.71727e-12</wgt>
  <wgt id="543">5.76862e-12</wgt>
  <wgt id="544">6.03388e-12</wgt>
  <wgt id="545">5.67269e-12</wgt>
  <wgt id="546">5.62125e-12</wgt>
  <wgt id="547">5.65198e-12</wgt>
  <wgt id="548">5.55932e-12</wgt>
  <wgt id="549">5.70257e-12</wgt>
  <wgt id="550">5.68182e-12</wgt>
  <wgt id="551">5.87277e-12</wgt>
  <wgt id="552">5.61157e-12</wgt>
  <wgt id="553">5.72564e-12</wgt>
  <wgt id="554">6.19063e-12</wgt>
  <wgt id="555">5.95267e-12</wgt>
  <wgt id="556">5.58668e-12</wgt>
  <wgt id="557">5.92909e-12</wgt>
  <wgt id="558">5.65397e-12</wgt>
  <wgt id="559">5.66692e-12</wgt>
  <wgt id="560">6.32882e-12</wgt>
  <wgt id="561">5.72436e-12</wgt>
  <wgt id="562">5.94445e-12</wgt>
  <wgt id="563">5.80093e-12</wgt>
  <wgt id="564">5.92123e-12</wgt>
  <wgt id="565">5.66604e-12</wgt>
  <wgt id="566">5.85595e-12</wgt>
  <wgt id="567">5.74059e-12</wgt>
  <wgt id="568">5.7664e-12</wgt>
  <wgt id="569">5.87827e-12</wgt>
  <wgt id="570">5.57337e-12</wgt>
  <wgt id="571">6.39612e-12</wgt>
  <wgt id="572">5.69219e-12</wgt>
  <wgt id="573">5.58747e-12</wgt>
  <wgt id="574">5.61955e-12</wgt>
  <wgt id="575">6.36179e-12</wgt>
  <wgt id="576">6.43936e-12</wgt>
  <wgt id="577">6.56517e-12</wgt>
  <wgt id="578">6.54509e-12</wgt>
  <wgt id="579">6.51542e-12</wgt>
  <wgt id="580">6.56971e-12</wgt>
  <wgt id="581">6.83978e-12</wgt>
  <wgt id="582">6.42924e-12</wgt>
  <wgt id="583">6.4154e-12</wgt>
  <wgt id="584">6.34015e-12</wgt>
  <wgt id="585">6.24982e-12</wgt>
  <wgt id="586">6.16217e-12</wgt>
  <wgt id="587">6.45671e-12</wgt>
  <wgt id="588">6.40508e-12</wgt>
  <wgt id="589">6.56307e-12</wgt>
  <wgt id="590">6.38502e-12</wgt>
  <wgt id="591">6.59704e-12</wgt>
  <wgt id="592">6.06366e-12</wgt>
  <wgt id="593">6.30142e-12</wgt>
  <wgt id="594">6.52166e-12</wgt>
  <wgt id="595">6.39951e-12</wgt>
  <wgt id="596">6.59229e-12</wgt>
  <wgt id="597">6.2461e-12</wgt>
  <wgt id="598">6.15166e-12</wgt>
  <wgt id="599">6.61694e-12</wgt>
  <wgt id="600">6.38426e-12</wgt>
  <wgt id="601">6.17471e-12</wgt>
  <wgt id="602">6.18171e-12</wgt>
  <wgt id="603">6.19904e-12</wgt>
  <wgt id="604">6.46226e-12</wgt>
  <wgt id="605">6.58871e-12</wgt>
  <wgt id="606">6.33249e-12</wgt>
  <wgt id="607">6.36457e-12</wgt>
  <wgt id="608">6.4588e-12</wgt>
  <wgt id="609">6.09806e-12</wgt>
  <wgt id="610">6.13838e-12</wgt>
  <wgt id="611">6.35103e-12</wgt>
  <wgt id="612">6.79823e-12</wgt>
  <wgt id="613">6.30627e-12</wgt>
  <wgt id="614">6.38486e-12</wgt>
  <wgt id="615">6.29329e-12</wgt>
  <wgt id="616">6.61694e-12</wgt>
  <wgt id="617">6.52287e-12</wgt>
  <wgt id="618">6.72273e-12</wgt>
  <wgt id="619">6.29675e-12</wgt>
  <wgt id="620">6.57522e-12</wgt>
  <wgt id="621">6.37604e-12</wgt>
  <wgt id="622">6.45671e-12</wgt>
  <wgt id="623">6.51283e-12</wgt>
  <wgt id="624">6.3581e-12</wgt>
  <wgt id="625">6.23888e-12</wgt>
  <wgt id="626">6.11253e-12</wgt>
  <wgt id="627">6.06812e-12</wgt>
  <wgt id="628">6.49371e-12</wgt>
  <wgt id="629">6.28529e-12</wgt>
  <wgt id="630">6.15888e-12</wgt>
  <wgt id="631">6.40365e-12</wgt>
  <wgt id="632">6.06848e-12</wgt>
  <wgt id="633">6.32148e-12</wgt>
  <wgt id="634">6.28329e-12</wgt>
  <wgt id="635">6.12182e-12</wgt>
  <wgt id="636">6.43839e-12</wgt>
  <wgt id="637">6.37732e-12</wgt>
  <wgt id="638">6.15246e-12</wgt>
  <wgt id="639">6.26368e-12</wgt>
  <wgt id="640">6.35653e-12</wgt>
  <wgt id="641">6.47755e-12</wgt>
  <wgt id="642">6.1123e-12</wgt>
  <wgt id="643">6.31629e-12</wgt>
  <wgt id="644">5.94863e-12</wgt>
  <wgt id="645">6.39304e-12</wgt>
  <wgt id="646">6.3129e-12</wgt>
  <wgt id="647">6.29857e-12</wgt>
  <wgt id="648">6.46253e-12</wgt>
  <wgt id="649">6.42043e-12</wgt>
  <wgt id="650">6.19393e-12</wgt>
  <wgt id="651">6.53613e-12</wgt>
  <wgt id="652">6.28297e-12</wgt>
  <wgt id="653">6.17462e-12</wgt>
  <wgt id="654">6.27055e-12</wgt>
  <wgt id="655">6.2603e-12</wgt>
  <wgt id="656">6.35153e-12</wgt>
  <wgt id="657">6.71701e-12</wgt>
  <wgt id="658">6.38317e-12</wgt>
  <wgt id="659">6.10573e-12</wgt>
  <wgt id="660">6.42413e-12</wgt>
  <wgt id="661">6.27305e-12</wgt>
  <wgt id="662">6.32558e-12</wgt>
  <wgt id="663">6.39023e-12</wgt>
  <wgt id="664">6.31263e-12</wgt>
  <wgt id="665">6.35714e-12</wgt>
  <wgt id="666">6.30349e-12</wgt>
  <wgt id="667">6.6014e-12</wgt>
  <wgt id="668">6.35081e-12</wgt>
  <wgt id="669">6.49515e-12</wgt>
  <wgt id="670">6.52829e-12</wgt>
  <wgt id="671">6.32789e-12</wgt>
  <wgt id="672">6.10863e-12</wgt>
  <wgt id="673">6.45255e-12</wgt>
  <wgt id="674">6.21677e-12</wgt>
  <wgt id="675">6.26959e-12</wgt>
  <wgt id="676">8.02513e-12</wgt>
  <wgt id="677">8.12831e-12</wgt>
  <wgt id="678">8.46299e-12</wgt>
  <wgt id="679">7.67094e-12</wgt>
  <wgt id="680">7.89184e-12</wgt>
  <wgt id="681">8.12638e-12</wgt>
  <wgt id="682">8.25688e-12</wgt>
  <wgt id="683">7.85059e-12</wgt>
  <wgt id="684">8.35428e-12</wgt>
  <wgt id="685">7.75591e-12</wgt>
  <wgt id="686">7.84507e-12</wgt>
  <wgt id="687">8.33279e-12</wgt>
  <wgt id="688">7.90788e-12</wgt>
  <wgt id="689">8.45768e-12</wgt>
  <wgt id="690">8.3547e-12</wgt>
  <wgt id="691">8.39372e-12</wgt>
  <wgt id="692">7.95052e-12</wgt>
  <wgt id="693">9.5194e-12</wgt>
  <wgt id="694">8.55045e-12</wgt>
  <wgt id="695">7.76042e-12</wgt>
  <wgt id="696">7.74108e-12</wgt>
  <wgt id="697">7.68666e-12</wgt>
  <wgt id="698">7.27262e-12</wgt>
  <wgt id="699">7.21534e-12</wgt>
  <wgt id="700">7.1028e-12</wgt>
  <wgt id="701">8.02634e-12</wgt>
  <wgt id="702">7.86094e-12</wgt>
  <wgt id="703">9.23069e-12</wgt>
  <wgt id="704">8.80203e-12</wgt>
  <wgt id="705">8.56368e-12</wgt>
  <wgt id="706">7.599e-12</wgt>
  <wgt id="707">7.68799e-12</wgt>
  <wgt id="708">7.87757e-12</wgt>
  <wgt id="709">7.85799e-12</wgt>
  <wgt id="710">7.32482e-12</wgt>
  <wgt id="711">8.01524e-12</wgt>
  <wgt id="712">7.79806e-12</wgt>
  <wgt id="713">8.6082e-12</wgt>
  <wgt id="714">7.76958e-12</wgt>
  <wgt id="715">7.89948e-12</wgt>
  <wgt id="716">7.74509e-12</wgt>
  <wgt id="717">7.5372e-12</wgt>
  <wgt id="718">8.07414e-12</wgt>
  <wgt id="719">7.31919e-12</wgt>
  <wgt id="720">7.72894e-12</wgt>
  <wgt id="721">7.30054e-12</wgt>
  <wgt id="722">7.05366e-12</wgt>
  <wgt id="723">8.58525e-12</wgt>
  <wgt id="724">8.43002e-12</wgt>
  <wgt id="725">8.41403e-12</wgt>
  <wgt id="726">8.05629e-12</wgt>
  <wgt id="727">7.8885e-12</wgt>
  <wgt id="728">7.83011e-12</wgt>
  <wgt id="729">7.67568e-12</wgt>
  <wgt id="730">8.57714e-12</wgt>
  <wgt id="731">7.89596e-12</wgt>
  <wgt id="732">8.86928e-12</wgt>
  <wgt id="733">7.85601e-12</wgt>
  <wgt id="734">8.2051e-12</wgt>
  <wgt id="735">8.0929e-12</wgt>
  <wgt id="736">7.79447e-12</wgt>
  <wgt id="737">8.07606e-12</wgt>
  <wgt id="738">7.70163e-12</wgt>
  <wgt id="739">8.25506e-12</wgt>
  <wgt id="740">8.9497e-12</wgt>
  <wgt id="741">7.35082e-12</wgt>
  <wgt id="742">7.93209e-12</wgt>
  <wgt id="743">7.62654e-12</wgt>
  <wgt id="744">7.8586e-12</wgt>
  <wgt id="745">8.38822e-12</wgt>
  <wgt id="746">8.54345e-12</wgt>
  <wgt id="747">7.18356e-12</wgt>
  <wgt id="748">7.91274e-12</wgt>
  <wgt id="749">8.37544e-12</wgt>
  <wgt id="750">8.37603e-12</wgt>
  <wgt id="751">8.19217e-12</wgt>
  <wgt id="752">7.37721e-12</wgt>
  <wgt id="753">7.53975e-12</wgt>
  <wgt id="754">8.30955e-12</wgt>
  <wgt id="755">8.01058e-12</wgt>
  <wgt id="756">7.98541e-12</wgt>
  <wgt id="757">7.3508e-12</wgt>
  <wgt id="758">8.00386e-12</wgt>
  <wgt id="759">8.45275e-12</wgt>
  <wgt id="760">8.03138e-12</wgt>
  <wgt id="761">8.49896e-12</wgt>
  <wgt id="762">8.52339e-12</wgt>
  <wgt id="763">8.01561e-12</wgt>
  <wgt id="764">8.34579e-12</wgt>
  <wgt id="765">8.11073e-12</wgt>
  <wgt id="766">8.02143e-12</wgt>
  <wgt id="767">8.18122e-12</wgt>
  <wgt id="768">7.54149e-12</wgt>
  <wgt id="769">8.48514e-12</wgt>
  <wgt id="770">7.87823e-12</wgt>
  <wgt id="771">9.43555e-12</wgt>
  <wgt id="772">7.6512e-12</wgt>
  <wgt id="773">7.96897e-12</wgt>
  <wgt id="774">6.9811e-12</wgt>
  <wgt id="775">8.38361e-12</wgt>
  <wgt id="776">8.69696e-12</wgt>
  <wgt id="777">7.58016e-12</wgt>
  <wgt id="778">5.85721e-12</wgt>
  <wgt id="779">4.65819e-12</wgt>
  <wgt id="780">3.67849e-12</wgt>
  <wgt id="781">6.44916e-12</wgt>
  <wgt id="782">6.34512e-12</wgt>
  <wgt id="783">4.67398e-12</wgt>
  <wgt id="784">4.9846e-12</wgt>
  <wgt id="785">7.38714e-12</wgt>
  <wgt id="786">4.41859e-12</wgt>
  <wgt id="787">6.75811e-12</wgt>
  <wgt id="788">3.34366e-12</wgt>
  <wgt id="789">4.83592e-12</wgt>
  <wgt id="790">4.33562e-12</wgt>
  <wgt id="791">5.78836e-12</wgt>
  <wgt id="792">7.77854e-12</wgt>
  <wgt id="793">5.77593e-12</wgt>
  <wgt id="794">4.27607e-12</wgt>
  <wgt id="795">6.98437e-12</wgt>
  <wgt id="796">7.6855e-12</wgt>
  <wgt id="797">6.97299e-12</wgt>
  <wgt id="798">5.2097e-12</wgt>
  <wgt id="799">6.70052e-12</wgt>
  <wgt id="800">4.86281e-12</wgt>
  <wgt id="801">5.42944e-12</wgt>
  <wgt id="802">4.27103e-12</wgt>
  <wgt id="803">8.18372e-12</wgt>
  <wgt id="804">6.95372e-12</wgt>
  <wgt id="805">6.98054e-12</wgt>
  <wgt id="806">6.43783e-12</wgt>
  <wgt id="807">5.60225e-12</wgt>
  <wgt id="808">5.6364e-12</wgt>
  <wgt id="809">5.43544e-12</wgt>
  <wgt id="810">6.51798e-12</wgt>
  <wgt id="811">6.30001e-12</wgt>
  <wgt id="812">4.32848e-12</wgt>
  <wgt id="813">4.45809e-12</wgt>
  <wgt id="814">4.77519e-12</wgt>
  <wgt id="815">4.6475e-12</wgt>
  <wgt id="816">4.28965e-12</wgt>
  <wgt id="817">6.04545e-12</wgt>
  <wgt id="818">6.1405e-12</wgt>
  <wgt id="819">4.67161e-12</wgt>
  <wgt id="820">5.79385e-12</wgt>
  <wgt id="821">6.71031e-12</wgt>
  <wgt id="822">4.80815e-12</wgt>
  <wgt id="823">6.83011e-12</wgt>
  <wgt id="824">7.98555e-12</wgt>
  <wgt id="825">4.13913e-12</wgt>
  <wgt id="826">6.35107e-12</wgt>
  <wgt id="827">3.47168e-12</wgt>
  <wgt id="828">7.47116e-12</wgt>
  <wgt id="829">6.03965e-12</wgt>
  <wgt id="830">3.92947e-12</wgt>
  <wgt id="831">6.37386e-12</wgt>
  <wgt id="832">9.61733e-12</wgt>
  <wgt id="833">5.3081e-12</wgt>
  <wgt id="834">9.15296e-12</wgt>
  <wgt id="835">4.73841e-12</wgt>
  <wgt id="836">5.57749e-12</wgt>
  <wgt id="837">6.62155e-12</wgt>
  <wgt id="838">5.3795e-12</wgt>
  <wgt id="839">6.3331e-12</wgt>
  <wgt id="840">5.38344e-12</wgt>
  <wgt id="841">7.33707e-12</wgt>
  <wgt id="842">5.41362e-12</wgt>
  <wgt id="843">5.90427e-12</wgt>
  <wgt id="844">6.14556e-12</wgt>
  <wgt id="845">8.65217e-12</wgt>
  <wgt id="846">5.92691e-12</wgt>
  <wgt id="847">5.98065e-12</wgt>
  <wgt id="848">4.82247e-12</wgt>
  <wgt id="849">6.045e-12</wgt>
  <wgt id="850">7.76528e-12</wgt>
  <wgt id="851">6.4829e-12</wgt>
  <wgt id="852">4.62447e-12</wgt>
  <wgt id="853">6.55047e-12</wgt>
  <wgt id="854">7.25718e-12</wgt>
  <wgt id="855">6.76512e-12</wgt>
  <wgt id="856">3.99114e-12</wgt>
  <wgt id="857">5.71345e-12</wgt>
  <wgt id="858">5.58199e-12</wgt>
  <wgt id="859">5.52575e-12</wgt>
  <wgt id="860">6.52443e-12</wgt>
  <wgt id="861">5.1327e-12</wgt>
  <wgt id="862">5.92074e-12</wgt>
  <wgt id="863">6.2809e-12</wgt>
  <wgt id="864">6.16446e-12</wgt>
  <wgt id="865">8.41836e-12</wgt>
  <wgt id="866">9.281e-12</wgt>
  <wgt id="867">5.94132e-12</wgt>
  <wgt id="868">5.78276e-12</wgt>
  <wgt id="869">4.38076e-12</wgt>
  <wgt id="870">4.66225e-12</wgt>
  <wgt id="871">4.52841e-12</wgt>
  <wgt id="872">7.16759e-12</wgt>
  <wgt id="873">4.90839e-12</wgt>
  <wgt id="874">6.20757e-12</wgt>
  <wgt id="875">5.0214e-12</wgt>
  <wgt id="876">7.08932e-12</wgt>
  <wgt id="877">6.62988e-12</wgt>
  <wgt id="878">4.91911e-12</wgt>
  <wgt id="879">8.02513e-12</wgt>
  <wgt id="880">8.12831e-12</wgt>
  <wgt id="881">8.46299e-12</wgt>
  <wgt id="882">7.67094e-12</wgt>
  <wgt id="883">7.89184e-12</wgt>
  <wgt id="884">8.12638e-12</wgt>
  <wgt id="885">8.25688e-12</wgt>
  <wgt id="886">7.85059e-12</wgt>
  <wgt id="887">8.35428e-12</wgt>
  <wgt id="888">7.75591e-12</wgt>
  <wgt id="889">7.84507e-12</wgt>
  <wgt id="890">8.33279e-12</wgt>
  <wgt id="891">7.90788e-12</wgt>
  <wgt id="892">8.45768e-12</wgt>
  <wgt id="893">8.3547e-12</wgt>
  <wgt id="894">8.39372e-12</wgt>
  <wgt id="895">7.95052e-12</wgt>
  <wgt id="896">9.5194e-12</wgt>
  <wgt id="897">8.55045e-12</wgt>
  <wgt id="898">7.76042e-12</wgt>
  <wgt id="899">7.74108e-12</wgt>
  <wgt id="900">7.68666e-12</wgt>
  <wgt id="901">7.27262e-12</wgt>
  <wgt id="902">7.21534e-12</wgt>
  <wgt id="903">7.1028e-12</wgt>
  <wgt id="904">8.02634e-12</wgt>
  <wgt id="905">7.86094e-12</wgt>
  <wgt id="906">9.23069e-12</wgt>
  <wgt id="907">8.80203e-12</wgt>
  <wgt id="908">8.56368e-12</wgt>
  <wgt id="909">7.599e-12</wgt>
  <wgt id="910">7.68799e-12</wgt>
  <wgt id="911">7.87757e-12</wgt>
  <wgt id="912">7.85799e-12</wgt>
  <wgt id="913">7.32482e-12</wgt>
  <wgt id="914">8.01524e-12</wgt>
  <wgt id="915">7.79806e-12</wgt>
  <wgt id="916">8.6082e-12</wgt>
  <wgt id="917">7.76958e-12</wgt>
  <wgt id="918">7.89948e-12</wgt>
  <wgt id="919">7.74509e-12</wgt>
  <wgt id="920">7.5372e-12</wgt>
  <wgt id="921">8.07414e-12</wgt>
  <wgt id="922">7.31919e-12</wgt>
  <wgt id="923">7.72894e-12</wgt>
  <wgt id="924">7.30054e-12</wgt>
  <wgt id="925">7.05366e-12</wgt>
  <wgt id="926">8.58525e-12</wgt>
  <wgt id="927">8.43002e-12</wgt>
  <wgt id="928">8.41403e-12</wgt>
  <wgt id="929">8.05629e-12</wgt>
  <wgt id="930">7.8885e-12</wgt>
  <wgt id="931">7.83011e-12</wgt>
  <wgt id="932">7.67568e-12</wgt>
  <wgt id="933">8.57714e-12</wgt>
  <wgt id="934">7.89596e-12</wgt>
  <wgt id="935">8.86928e-12</wgt>
  <wgt id="936">7.85601e-12</wgt>
  <wgt id="937">8.2051e-12</wgt>
  <wgt id="938">8.0929e-12</wgt>
  <wgt id="939">7.79447e-12</wgt>
  <wgt id="940">8.07606e-12</wgt>
  <wgt id="941">7.70163e-12</wgt>
  <wgt id="942">8.25506e-12</wgt>
  <wgt id="943">8.9497e-12</wgt>
  <wgt id="944">7.35082e-12</wgt>
  <wgt id="945">7.93209e-12</wgt>
  <wgt id="946">7.62654e-12</wgt>
  <wgt id="947">7.8586e-12</wgt>
  <wgt id="948">8.38822e-12</wgt>
  <wgt id="949">8.54345e-12</wgt>
  <wgt id="950">7.18356e-12</wgt>
  <wgt id="951">7.91274e-12</wgt>
  <wgt id="952">8.37544e-12</wgt>
  <wgt id="953">8.37603e-12</wgt>
  <wgt id="954">8.19217e-12</wgt>
  <wgt id="955">7.37721e-12</wgt>
  <wgt id="956">7.53975e-12</wgt>
  <wgt id="957">8.30955e-12</wgt>
  <wgt id="958">8.01058e-12</wgt>
  <wgt id="959">7.98541e-12</wgt>
  <wgt id="960">7.3508e-12</wgt>
  <wgt id="961">8.00386e-12</wgt>
  <wgt id="962">8.45275e-12</wgt>
  <wgt id="963">8.03138e-12</wgt>
  <wgt id="964">8.49896e-12</wgt>
  <wgt id="965">8.52339e-12</wgt>
  <wgt id="966">8.01561e-12</wgt>
  <wgt id="967">8.34579e-12</wgt>
  <wgt id="968">8.11073e-12</wgt>
  <wgt id="969">8.02143e-12</wgt>
  <wgt id="970">8.18122e-12</wgt>
  <wgt id="971">7.54149e-12</wgt>
  <wgt id="972">8.48514e-12</wgt>
  <wgt id="973">7.87823e-12</wgt>
  <wgt id="974">9.43555e-12</wgt>
  <wgt id="975">7.6512e-12</wgt>
  <wgt id="976">7.96897e-12</wgt>
  <wgt id="977">6.9811e-12</wgt>
  <wgt id="978">8.38361e-12</wgt>
  <wgt id="979">8.69696e-12</wgt>
  <wgt id="980">8.01075e-12</wgt>
  <wgt id="981">8.07467e-12</wgt>
  <wgt id="982">7.78152e-12</wgt>
</rwgt>
</event>
<event>
 5   1  0.5790000E-11  0.2196627E+04  0.7818608E-02  0.7750140E-01
       21   -1    0    0  502  501  0.00000000000E+00  0.00000000000E+00  0.24411406970E+04  0.24411406970E+04  0.00000000000E+00 0. -1.
       21   -1    0    0  501  502 -0.00000000000E+00 -0.00000000000E+00 -0.49415099195E+03  0.49415099195E+03  0.00000000000E+00 0.  1.
       39    2    1    2    0    0  0.00000000000E+00  0.00000000000E+00  0.19469897050E+04  0.29352916889E+04  0.21966265927E+04 0.  0.
       25    1    3    3    0    0 -0.28954229291E+03 -0.96127599039E+03  0.15447897536E+04  0.18465878403E+04  0.12500000000E+03 0.  0.
       25    1    3    3    0    0  0.28954229291E+03  0.96127599039E+03  0.40219995141E+03  0.10887038486E+04  0.12500000000E+03 0.  0.
<mgrwt>
<rscale>  0 0.21966266E+04</rscale>
<asrwt>0</asrwt>
<pdfrwt beam="1">  1       21 0.37556010E+00 0.21966266E+04</pdfrwt>
<pdfrwt beam="2">  1       21 0.76023231E-01 0.21966266E+04</pdfrwt>
<totfact> 0.66715842E+00</totfact>
</mgrwt>
<rwgt>
  <wgt id="1">5.79e-12</wgt>
  <wgt id="2">4.97214e-12</wgt>
  <wgt id="3">6.82238e-12</wgt>
  <wgt id="4">5.79e-12</wgt>
  <wgt id="5">4.97214e-12</wgt>
  <wgt id="6">6.82238e-12</wgt>
  <wgt id="7">5.79e-12</wgt>
  <wgt id="8">4.97214e-12</wgt>
  <wgt id="9">6.82238e-12</wgt>
  <wgt id="10">6.14425e-12</wgt>
  <wgt id="11">6.14653e-12</wgt>
  <wgt id="12">6.12402e-12</wgt>
  <wgt id="13">6.13789e-12</wgt>
  <wgt id="14">6.15473e-12</wgt>
  <wgt id="15">6.15168e-12</wgt>
  <wgt id="16">6.11696e-12</wgt>
  <wgt id="17">6.19052e-12</wgt>
  <wgt id="18">6.14208e-12</wgt>
  <wgt id="19">6.17792e-12</wgt>
  <wgt id="20">6.15172e-12</wgt>
  <wgt id="21">6.08651e-12</wgt>
  <wgt id="22">6.09042e-12</wgt>
  <wgt id="23">6.03221e-12</wgt>
  <wgt id="24">6.08957e-12</wgt>
  <wgt id="25">6.12422e-12</wgt>
  <wgt id="26">6.15814e-12</wgt>
  <wgt id="27">6.1285e-12</wgt>
  <wgt id="28">6.10265e-12</wgt>
  <wgt id="29">6.14462e-12</wgt>
  <wgt id="30">6.08122e-12</wgt>
  <wgt id="31">6.16992e-12</wgt>
  <wgt id="32">6.0767e-12</wgt>
  <wgt id="33">6.14894e-12</wgt>
  <wgt id="34">6.09071e-12</wgt>
  <wgt id="35">6.07945e-12</wgt>
  <wgt id="36">6.18021e-12</wgt>
  <wgt id="37">6.1236e-12</wgt>
  <wgt id="38">6.10997e-12</wgt>
  <wgt id="39">6.27842e-12</wgt>
  <wgt id="40">6.15858e-12</wgt>
  <wgt id="41">6.14008e-12</wgt>
  <wgt id="42">6.15641e-12</wgt>
  <wgt id="43">6.15537e-12</wgt>
  <wgt id="44">6.19855e-12</wgt>
  <wgt id="45">6.15334e-12</wgt>
  <wgt id="46">6.10048e-12</wgt>
  <wgt id="47">6.252e-12</wgt>
  <wgt id="48">6.21121e-12</wgt>
  <wgt id="49">6.10559e-12</wgt>
  <wgt id="50">6.06017e-12</wgt>
  <wgt id="51">6.08401e-12</wgt>
  <wgt id="52">6.15868e-12</wgt>
  <wgt id="53">6.2761e-12</wgt>
  <wgt id="54">6.19746e-12</wgt>
  <wgt id="55">6.12723e-12</wgt>
  <wgt id="56">6.04939e-12</wgt>
  <wgt id="57">6.06053e-12</wgt>
  <wgt id="58">6.14526e-12</wgt>
  <wgt id="59">6.17245e-12</wgt>
  <wgt id="60">6.04538e-12</wgt>
  <wgt id="61">6.13483e-12</wgt>
  <wgt id="62">6.16645e-12</wgt>
  <wgt id="63">6.13749e-12</wgt>
  <wgt id="64">6.1337e-12</wgt>
  <wgt id="65">6.09065e-12</wgt>
  <wgt id="66">6.17843e-12</wgt>
  <wgt id="67">6.18861e-12</wgt>
  <wgt id="68">6.14063e-12</wgt>
  <wgt id="69">6.12834e-12</wgt>
  <wgt id="70">6.09326e-12</wgt>
  <wgt id="71">6.17028e-12</wgt>
  <wgt id="72">6.14339e-12</wgt>
  <wgt id="73">6.14193e-12</wgt>
  <wgt id="74">6.18934e-12</wgt>
  <wgt id="75">6.09939e-12</wgt>
  <wgt id="76">6.19565e-12</wgt>
  <wgt id="77">6.1268e-12</wgt>
  <wgt id="78">6.13831e-12</wgt>
  <wgt id="79">6.15831e-12</wgt>
  <wgt id="80">6.08605e-12</wgt>
  <wgt id="81">6.13433e-12</wgt>
  <wgt id="82">6.15079e-12</wgt>
  <wgt id="83">6.08821e-12</wgt>
  <wgt id="84">6.10243e-12</wgt>
  <wgt id="85">6.09988e-12</wgt>
  <wgt id="86">6.19792e-12</wgt>
  <wgt id="87">6.05333e-12</wgt>
  <wgt id="88">6.17348e-12</wgt>
  <wgt id="89">6.16702e-12</wgt>
  <wgt id="90">6.17831e-12</wgt>
  <wgt id="91">6.15214e-12</wgt>
  <wgt id="92">6.1735e-12</wgt>
  <wgt id="93">6.15191e-12</wgt>
  <wgt id="94">6.1135e-12</wgt>
  <wgt id="95">6.17199e-12</wgt>
  <wgt id="96">6.17402e-12</wgt>
  <wgt id="97">6.10132e-12</wgt>
  <wgt id="98">6.1465e-12</wgt>
  <wgt id="99">6.13969e-12</wgt>
  <wgt id="100">6.15682e-12</wgt>
  <wgt id="101">6.12359e-12</wgt>
  <wgt id="102">6.12594e-12</wgt>
  <wgt id="103">6.17529e-12</wgt>
  <wgt id="104">6.13513e-12</wgt>
  <wgt id="105">6.17685e-12</wgt>
  <wgt id="106">6.1159e-12</wgt>
  <wgt id="107">6.19953e-12</wgt>
  <wgt id="108">6.12727e-12</wgt>
  <wgt id="109">6.13895e-12</wgt>
  <wgt id="110">6.1473e-12</wgt>
  <wgt id="111">6.0883e-12</wgt>
  <wgt id="112">6.25736e-12</wgt>
  <wgt id="113">9.18499e-12</wgt>
  <wgt id="114">7.90402e-12</wgt>
  <wgt id="115">7.74265e-12</wgt>
  <wgt id="116">1.04886e-11</wgt>
  <wgt id="117">6.69136e-12</wgt>
  <wgt id="118">6.71616e-12</wgt>
  <wgt id="119">6.67717e-12</wgt>
  <wgt id="120">6.69129e-12</wgt>
  <wgt id="121">6.69127e-12</wgt>
  <wgt id="122">6.68124e-12</wgt>
  <wgt id="123">6.70521e-12</wgt>
  <wgt id="124">6.68264e-12</wgt>
  <wgt id="125">6.69671e-12</wgt>
  <wgt id="126">6.69867e-12</wgt>
  <wgt id="127">6.68652e-12</wgt>
  <wgt id="128">6.71121e-12</wgt>
  <wgt id="129">6.67165e-12</wgt>
  <wgt id="130">6.71961e-12</wgt>
  <wgt id="131">6.66184e-12</wgt>
  <wgt id="132">6.50002e-12</wgt>
  <wgt id="133">6.91968e-12</wgt>
  <wgt id="134">6.62138e-12</wgt>
  <wgt id="135">6.74628e-12</wgt>
  <wgt id="136">6.80439e-12</wgt>
  <wgt id="137">6.55577e-12</wgt>
  <wgt id="138">7.02374e-12</wgt>
  <wgt id="139">6.37952e-12</wgt>
  <wgt id="140">6.66783e-12</wgt>
  <wgt id="141">6.7081e-12</wgt>
  <wgt id="142">6.68821e-12</wgt>
  <wgt id="143">6.71817e-12</wgt>
  <wgt id="144">6.35996e-12</wgt>
  <wgt id="145">7.02201e-12</wgt>
  <wgt id="146">6.80085e-12</wgt>
  <wgt id="147">6.6006e-12</wgt>
  <wgt id="148">6.717e-12</wgt>
  <wgt id="149">6.68951e-12</wgt>
  <wgt id="150">6.74596e-12</wgt>
  <wgt id="151">6.66561e-12</wgt>
  <wgt id="152">6.69198e-12</wgt>
  <wgt id="153">6.69094e-12</wgt>
  <wgt id="154">6.68044e-12</wgt>
  <wgt id="155">6.68304e-12</wgt>
  <wgt id="156">6.97979e-12</wgt>
  <wgt id="157">6.44199e-12</wgt>
  <wgt id="158">7.98472e-12</wgt>
  <wgt id="159">8.01964e-12</wgt>
  <wgt id="160">7.95694e-12</wgt>
  <wgt id="161">7.96495e-12</wgt>
  <wgt id="162">8.00708e-12</wgt>
  <wgt id="163">7.97617e-12</wgt>
  <wgt id="164">7.998e-12</wgt>
  <wgt id="165">7.98786e-12</wgt>
  <wgt id="166">7.98285e-12</wgt>
  <wgt id="167">7.97951e-12</wgt>
  <wgt id="168">7.99246e-12</wgt>
  <wgt id="169">7.95275e-12</wgt>
  <wgt id="170">8.00503e-12</wgt>
  <wgt id="171">7.98162e-12</wgt>
  <wgt id="172">7.98971e-12</wgt>
  <wgt id="173">7.96143e-12</wgt>
  <wgt id="174">7.99331e-12</wgt>
  <wgt id="175">7.75046e-12</wgt>
  <wgt id="176">8.29267e-12</wgt>
  <wgt id="177">8.01572e-12</wgt>
  <wgt id="178">7.95733e-12</wgt>
  <wgt id="179">8.43685e-12</wgt>
  <wgt id="180">7.29859e-12</wgt>
  <wgt id="181">7.69838e-12</wgt>
  <wgt id="182">8.17747e-12</wgt>
  <wgt id="183">7.81142e-12</wgt>
  <wgt id="184">8.07127e-12</wgt>
  <wgt id="185">7.88255e-12</wgt>
  <wgt id="186">8.10803e-12</wgt>
  <wgt id="187">7.88163e-12</wgt>
  <wgt id="188">8.16542e-12</wgt>
  <wgt id="189">7.91615e-12</wgt>
  <wgt id="190">8.01306e-12</wgt>
  <wgt id="191">8.01803e-12</wgt>
  <wgt id="192">7.96504e-12</wgt>
  <wgt id="193">8.13058e-12</wgt>
  <wgt id="194">7.91084e-12</wgt>
  <wgt id="195">7.63947e-12</wgt>
  <wgt id="196">8.53336e-12</wgt>
  <wgt id="197">8.02821e-12</wgt>
  <wgt id="198">7.97435e-12</wgt>
  <wgt id="199">7.98472e-12</wgt>
  <wgt id="200">8.06774e-12</wgt>
  <wgt id="201">8.04118e-12</wgt>
  <wgt id="202">8.01416e-12</wgt>
  <wgt id="203">7.97875e-12</wgt>
  <wgt id="204">7.95938e-12</wgt>
  <wgt id="205">7.94352e-12</wgt>
  <wgt id="206">7.86335e-12</wgt>
  <wgt id="207">7.91064e-12</wgt>
  <wgt id="208">7.81589e-12</wgt>
  <wgt id="209">7.88474e-12</wgt>
  <wgt id="210">7.84735e-12</wgt>
  <wgt id="211">7.86086e-12</wgt>
  <wgt id="212">7.86508e-12</wgt>
  <wgt id="213">7.86231e-12</wgt>
  <wgt id="214">7.86377e-12</wgt>
  <wgt id="215">7.86873e-12</wgt>
  <wgt id="216">7.85946e-12</wgt>
  <wgt id="217">7.87737e-12</wgt>
  <wgt id="218">7.85157e-12</wgt>
  <wgt id="219">7.85106e-12</wgt>
  <wgt id="220">7.87071e-12</wgt>
  <wgt id="221">7.86996e-12</wgt>
  <wgt id="222">7.84353e-12</wgt>
  <wgt id="223">7.39376e-12</wgt>
  <wgt id="224">8.29469e-12</wgt>
  <wgt id="225">7.76506e-12</wgt>
  <wgt id="226">7.98844e-12</wgt>
  <wgt id="227">7.78725e-12</wgt>
  <wgt id="228">7.89654e-12</wgt>
  <wgt id="229">7.74766e-12</wgt>
  <wgt id="230">7.9202e-12</wgt>
  <wgt id="231">8.15936e-12</wgt>
  <wgt id="232">7.62169e-12</wgt>
  <wgt id="233">7.8052e-12</wgt>
  <wgt id="234">7.96185e-12</wgt>
  <wgt id="235">7.42891e-12</wgt>
  <wgt id="236">8.21037e-12</wgt>
  <wgt id="237">7.62014e-12</wgt>
  <wgt id="238">7.94345e-12</wgt>
  <wgt id="239">7.76704e-12</wgt>
  <wgt id="240">8.03517e-12</wgt>
  <wgt id="241">7.75599e-12</wgt>
  <wgt id="242">7.98786e-12</wgt>
  <wgt id="243">8.02793e-12</wgt>
  <wgt id="244">7.83742e-12</wgt>
  <wgt id="245">7.86216e-12</wgt>
  <wgt id="246">7.89576e-12</wgt>
  <wgt id="247">7.86335e-12</wgt>
  <wgt id="248">7.95718e-12</wgt>
  <wgt id="249">7.92655e-12</wgt>
  <wgt id="250">7.8916e-12</wgt>
  <wgt id="251">7.84804e-12</wgt>
  <wgt id="252">7.82418e-12</wgt>
  <wgt id="253">7.80875e-12</wgt>
  <wgt id="254">7.50811e-12</wgt>
  <wgt id="255">7.51438e-12</wgt>
  <wgt id="256">7.50125e-12</wgt>
  <wgt id="257">7.51428e-12</wgt>
  <wgt id="258">7.50371e-12</wgt>
  <wgt id="259">7.55848e-12</wgt>
  <wgt id="260">7.45951e-12</wgt>
  <wgt id="261">7.51979e-12</wgt>
  <wgt id="262">7.49456e-12</wgt>
  <wgt id="263">7.50171e-12</wgt>
  <wgt id="264">7.51545e-12</wgt>
  <wgt id="265">7.49924e-12</wgt>
  <wgt id="266">7.52596e-12</wgt>
  <wgt id="267">7.51081e-12</wgt>
  <wgt id="268">7.50481e-12</wgt>
  <wgt id="269">7.52998e-12</wgt>
  <wgt id="270">7.49349e-12</wgt>
  <wgt id="271">7.48231e-12</wgt>
  <wgt id="272">7.53723e-12</wgt>
  <wgt id="273">7.49063e-12</wgt>
  <wgt id="274">7.52142e-12</wgt>
  <wgt id="275">7.45335e-12</wgt>
  <wgt id="276">7.56536e-12</wgt>
  <wgt id="277">7.46589e-12</wgt>
  <wgt id="278">7.54687e-12</wgt>
  <wgt id="279">7.37246e-12</wgt>
  <wgt id="280">7.67949e-12</wgt>
  <wgt id="281">7.46872e-12</wgt>
  <wgt id="282">7.52838e-12</wgt>
  <wgt id="283">7.24093e-12</wgt>
  <wgt id="284">7.84491e-12</wgt>
  <wgt id="285">7.06784e-12</wgt>
  <wgt id="286">7.88627e-12</wgt>
  <wgt id="287">7.53694e-12</wgt>
  <wgt id="288">7.47143e-12</wgt>
  <wgt id="289">7.57477e-12</wgt>
  <wgt id="290">7.36604e-12</wgt>
  <wgt id="291">7.4757e-12</wgt>
  <wgt id="292">7.5031e-12</wgt>
  <wgt id="293">7.43626e-12</wgt>
  <wgt id="294">7.57995e-12</wgt>
  <wgt id="295">7.33376e-12</wgt>
  <wgt id="296">7.722e-12</wgt>
  <wgt id="297">7.47643e-12</wgt>
  <wgt id="298">7.55246e-12</wgt>
  <wgt id="299">7.4814e-12</wgt>
  <wgt id="300">7.57919e-12</wgt>
  <wgt id="301">7.31969e-12</wgt>
  <wgt id="302">7.92712e-12</wgt>
  <wgt id="303">7.40554e-12</wgt>
  <wgt id="304">7.56505e-12</wgt>
  <wgt id="305">7.3766e-12</wgt>
  <wgt id="306">7.38309e-12</wgt>
  <wgt id="307">7.36981e-12</wgt>
  <wgt id="308">7.38306e-12</wgt>
  <wgt id="309">7.37254e-12</wgt>
  <wgt id="310">7.42729e-12</wgt>
  <wgt id="311">7.33028e-12</wgt>
  <wgt id="312">7.38773e-12</wgt>
  <wgt id="313">7.36471e-12</wgt>
  <wgt id="314">7.36978e-12</wgt>
  <wgt id="315">7.38344e-12</wgt>
  <wgt id="316">7.36769e-12</wgt>
  <wgt id="317">7.39682e-12</wgt>
  <wgt id="318">7.38244e-12</wgt>
  <wgt id="319">7.36709e-12</wgt>
  <wgt id="320">7.4004e-12</wgt>
  <wgt id="321">7.36381e-12</wgt>
  <wgt id="322">7.35039e-12</wgt>
  <wgt id="323">7.40794e-12</wgt>
  <wgt id="324">7.36575e-12</wgt>
  <wgt id="325">7.38613e-12</wgt>
  <wgt id="326">7.33103e-12</wgt>
  <wgt id="327">7.43567e-12</wgt>
  <wgt id="328">7.34038e-12</wgt>
  <wgt id="329">7.39654e-12</wgt>
  <wgt id="330">7.58157e-12</wgt>
  <wgt id="331">7.18286e-12</wgt>
  <wgt id="332">7.34404e-12</wgt>
  <wgt id="333">7.391e-12</wgt>
  <wgt id="334">7.17803e-12</wgt>
  <wgt id="335">7.62771e-12</wgt>
  <wgt id="336">7.07078e-12</wgt>
  <wgt id="337">7.76076e-12</wgt>
  <wgt id="338">7.4749e-12</wgt>
  <wgt id="339">7.28719e-12</wgt>
  <wgt id="340">7.43441e-12</wgt>
  <wgt id="341">7.23837e-12</wgt>
  <wgt id="342">7.35503e-12</wgt>
  <wgt id="343">7.35391e-12</wgt>
  <wgt id="344">7.31553e-12</wgt>
  <wgt id="345">7.44826e-12</wgt>
  <wgt id="346">7.20173e-12</wgt>
  <wgt id="347">7.57649e-12</wgt>
  <wgt id="348">7.34609e-12</wgt>
  <wgt id="349">7.41791e-12</wgt>
  <wgt id="350">7.34441e-12</wgt>
  <wgt id="351">7.45936e-12</wgt>
  <wgt id="352">7.1932e-12</wgt>
  <wgt id="353">7.7679e-12</wgt>
  <wgt id="354">7.23712e-12</wgt>
  <wgt id="355">7.45822e-12</wgt>
  <wgt id="356">7.50811e-12</wgt>
  <wgt id="357">7.36519e-12</wgt>
  <wgt id="358">7.3766e-12</wgt>
  <wgt id="359">7.48634e-12</wgt>
  <wgt id="360">7.69733e-12</wgt>
  <wgt id="361">7.55833e-12</wgt>
  <wgt id="362">7.72465e-12</wgt>
  <wgt id="363">7.70373e-12</wgt>
  <wgt id="364">7.65731e-12</wgt>
  <wgt id="365">7.62566e-12</wgt>
  <wgt id="366">7.5951e-12</wgt>
  <wgt id="367">7.53965e-12</wgt>
  <wgt id="368">7.50106e-12</wgt>
  <wgt id="369">7.45927e-12</wgt>
  <wgt id="370">7.55833e-12</wgt>
  <wgt id="371">7.58725e-12</wgt>
  <wgt id="372">7.57049e-12</wgt>
  <wgt id="373">7.5481e-12</wgt>
  <wgt id="374">7.56635e-12</wgt>
  <wgt id="375">9.12046e-12</wgt>
  <wgt id="376">9.12018e-12</wgt>
  <wgt id="377">9.12025e-12</wgt>
  <wgt id="378">9.15638e-12</wgt>
  <wgt id="379">9.0844e-12</wgt>
  <wgt id="380">9.14766e-12</wgt>
  <wgt id="381">9.10921e-12</wgt>
  <wgt id="382">9.15732e-12</wgt>
  <wgt id="383">9.08367e-12</wgt>
  <wgt id="384">9.12629e-12</wgt>
  <wgt id="385">9.11464e-12</wgt>
  <wgt id="386">9.14208e-12</wgt>
  <wgt id="387">9.11095e-12</wgt>
  <wgt id="388">9.11322e-12</wgt>
  <wgt id="389">9.12844e-12</wgt>
  <wgt id="390">9.13713e-12</wgt>
  <wgt id="391">9.10271e-12</wgt>
  <wgt id="392">9.03294e-12</wgt>
  <wgt id="393">9.16965e-12</wgt>
  <wgt id="394">9.12227e-12</wgt>
  <wgt id="395">9.11741e-12</wgt>
  <wgt id="396">9.14166e-12</wgt>
  <wgt id="397">9.10523e-12</wgt>
  <wgt id="398">9.12002e-12</wgt>
  <wgt id="399">9.12067e-12</wgt>
  <wgt id="400">9.10664e-12</wgt>
  <wgt id="401">9.14999e-12</wgt>
  <wgt id="402">9.02483e-12</wgt>
  <wgt id="403">9.19354e-12</wgt>
  <wgt id="404">9.42867e-12</wgt>
  <wgt id="405">8.39384e-12</wgt>
  <wgt id="406">8.89621e-12</wgt>
  <wgt id="407">9.62376e-12</wgt>
  <wgt id="408">9.23691e-12</wgt>
  <wgt id="409">8.90772e-12</wgt>
  <wgt id="410">8.76133e-12</wgt>
  <wgt id="411">9.29631e-12</wgt>
  <wgt id="412">9.09572e-12</wgt>
  <wgt id="413">9.15458e-12</wgt>
  <wgt id="414">8.97782e-12</wgt>
  <wgt id="415">9.23051e-12</wgt>
  <wgt id="416">9.49292e-12</wgt>
  <wgt id="417">8.61241e-12</wgt>
  <wgt id="418">9.14398e-12</wgt>
  <wgt id="419">8.99305e-12</wgt>
  <wgt id="420">9.41479e-12</wgt>
  <wgt id="421">8.9149e-12</wgt>
  <wgt id="422">9.0288e-12</wgt>
  <wgt id="423">9.16107e-12</wgt>
  <wgt id="424">9.46887e-12</wgt>
  <wgt id="425">8.87667e-12</wgt>
  <wgt id="426">9.12046e-12</wgt>
  <wgt id="427">8.85544e-12</wgt>
  <wgt id="428">9.68627e-12</wgt>
  <wgt id="429">9.28001e-12</wgt>
  <wgt id="430">9.63177e-12</wgt>
  <wgt id="431">9.55884e-12</wgt>
  <wgt id="432">9.49481e-12</wgt>
  <wgt id="433">9.43168e-12</wgt>
  <wgt id="434">9.34838e-12</wgt>
  <wgt id="435">9.19483e-12</wgt>
  <wgt id="436">9.11875e-12</wgt>
  <wgt id="437">9.04267e-12</wgt>
  <wgt id="438">9.28001e-12</wgt>
  <wgt id="439">9.30646e-12</wgt>
  <wgt id="440">9.28881e-12</wgt>
  <wgt id="441">9.27458e-12</wgt>
  <wgt id="442">9.27084e-12</wgt>
  <wgt id="443">7.86906e-12</wgt>
  <wgt id="444">7.98006e-12</wgt>
  <wgt id="445">8.02731e-12</wgt>
  <wgt id="446">7.81191e-12</wgt>
  <wgt id="447">7.8732e-12</wgt>
  <wgt id="448">7.69494e-12</wgt>
  <wgt id="449">8.08034e-12</wgt>
  <wgt id="450">8.04337e-12</wgt>
  <wgt id="451">7.8434e-12</wgt>
  <wgt id="452">8.03526e-12</wgt>
  <wgt id="453">8.01374e-12</wgt>
  <wgt id="454">7.39452e-12</wgt>
  <wgt id="455">7.97446e-12</wgt>
  <wgt id="456">8.1096e-12</wgt>
  <wgt id="457">7.89199e-12</wgt>
  <wgt id="458">8.04167e-12</wgt>
  <wgt id="459">7.94498e-12</wgt>
  <wgt id="460">8.11286e-12</wgt>
  <wgt id="461">7.64798e-12</wgt>
  <wgt id="462">7.8123e-12</wgt>
  <wgt id="463">7.71932e-12</wgt>
  <wgt id="464">7.8331e-12</wgt>
  <wgt id="465">7.9515e-12</wgt>
  <wgt id="466">7.58924e-12</wgt>
  <wgt id="467">7.82045e-12</wgt>
  <wgt id="468">7.87993e-12</wgt>
  <wgt id="469">7.84269e-12</wgt>
  <wgt id="470">7.70846e-12</wgt>
  <wgt id="471">7.74187e-12</wgt>
  <wgt id="472">7.9408e-12</wgt>
  <wgt id="473">7.59029e-12</wgt>
  <wgt id="474">5.79e-12</wgt>
  <wgt id="475">5.80895e-12</wgt>
  <wgt id="476">5.84617e-12</wgt>
  <wgt id="477">6.03805e-12</wgt>
  <wgt id="478">5.99277e-12</wgt>
  <wgt id="479">5.28284e-12</wgt>
  <wgt id="480">6.23842e-12</wgt>
  <wgt id="481">5.88989e-12</wgt>
  <wgt id="482">5.96903e-12</wgt>
  <wgt id="483">6.18894e-12</wgt>
  <wgt id="484">6.1062e-12</wgt>
  <wgt id="485">5.1021e-12</wgt>
  <wgt id="486">6.11372e-12</wgt>
  <wgt id="487">5.48861e-12</wgt>
  <wgt id="488">5.72346e-12</wgt>
  <wgt id="489">4.87663e-12</wgt>
  <wgt id="490">5.82365e-12</wgt>
  <wgt id="491">5.67166e-12</wgt>
  <wgt id="492">5.70315e-12</wgt>
  <wgt id="493">5.09149e-12</wgt>
  <wgt id="494">5.07283e-12</wgt>
  <wgt id="495">5.93627e-12</wgt>
  <wgt id="496">5.28863e-12</wgt>
  <wgt id="497">5.30067e-12</wgt>
  <wgt id="498">5.92999e-12</wgt>
  <wgt id="499">5.955e-12</wgt>
  <wgt id="500">5.97664e-12</wgt>
  <wgt id="501">6.08689e-12</wgt>
  <wgt id="502">6.38435e-12</wgt>
  <wgt id="503">5.60331e-12</wgt>
  <wgt id="504">6.04174e-12</wgt>
  <wgt id="505">6.22817e-12</wgt>
  <wgt id="506">5.03929e-12</wgt>
  <wgt id="507">5.42992e-12</wgt>
  <wgt id="508">6.1746e-12</wgt>
  <wgt id="509">5.73161e-12</wgt>
  <wgt id="510">5.73164e-12</wgt>
  <wgt id="511">5.41712e-12</wgt>
  <wgt id="512">6.40245e-12</wgt>
  <wgt id="513">6.22137e-12</wgt>
  <wgt id="514">6.42271e-12</wgt>
  <wgt id="515">6.25456e-12</wgt>
  <wgt id="516">6.67185e-12</wgt>
  <wgt id="517">5.93734e-12</wgt>
  <wgt id="518">6.16356e-12</wgt>
  <wgt id="519">5.56254e-12</wgt>
  <wgt id="520">5.71497e-12</wgt>
  <wgt id="521">5.40721e-12</wgt>
  <wgt id="522">5.92863e-12</wgt>
  <wgt id="523">5.45381e-12</wgt>
  <wgt id="524">6.12609e-12</wgt>
  <wgt id="525">5.47688e-12</wgt>
  <wgt id="526">6.34353e-12</wgt>
  <wgt id="527">5.67269e-12</wgt>
  <wgt id="528">5.63426e-12</wgt>
  <wgt id="529">5.19294e-12</wgt>
  <wgt id="530">6.24578e-12</wgt>
  <wgt id="531">5.44236e-12</wgt>
  <wgt id="532">6.34084e-12</wgt>
  <wgt id="533">6.01253e-12</wgt>
  <wgt id="534">5.3322e-12</wgt>
  <wgt id="535">6.05261e-12</wgt>
  <wgt id="536">6.16469e-12</wgt>
  <wgt id="537">5.24119e-12</wgt>
  <wgt id="538">5.68419e-12</wgt>
  <wgt id="539">5.64588e-12</wgt>
  <wgt id="540">5.96745e-12</wgt>
  <wgt id="541">5.74894e-12</wgt>
  <wgt id="542">5.49488e-12</wgt>
  <wgt id="543">5.38748e-12</wgt>
  <wgt id="544">5.74666e-12</wgt>
  <wgt id="545">5.28988e-12</wgt>
  <wgt id="546">5.12414e-12</wgt>
  <wgt id="547">5.46109e-12</wgt>
  <wgt id="548">5.74986e-12</wgt>
  <wgt id="549">5.68308e-12</wgt>
  <wgt id="550">5.29029e-12</wgt>
  <wgt id="551">5.6665e-12</wgt>
  <wgt id="552">5.42657e-12</wgt>
  <wgt id="553">5.12838e-12</wgt>
  <wgt id="554">5.96702e-12</wgt>
  <wgt id="555">5.87501e-12</wgt>
  <wgt id="556">5.82365e-12</wgt>
  <wgt id="557">5.77518e-12</wgt>
  <wgt id="558">5.79305e-12</wgt>
  <wgt id="559">6.00136e-12</wgt>
  <wgt id="560">6.38524e-12</wgt>
  <wgt id="561">6.24475e-12</wgt>
  <wgt id="562">6.06331e-12</wgt>
  <wgt id="563">6.3892e-12</wgt>
  <wgt id="564">6.31946e-12</wgt>
  <wgt id="565">6.4181e-12</wgt>
  <wgt id="566">5.25829e-12</wgt>
  <wgt id="567">5.90208e-12</wgt>
  <wgt id="568">5.33872e-12</wgt>
  <wgt id="569">5.92888e-12</wgt>
  <wgt id="570">6.15312e-12</wgt>
  <wgt id="571">6.46735e-12</wgt>
  <wgt id="572">5.429e-12</wgt>
  <wgt id="573">5.64115e-12</wgt>
  <wgt id="574">5.7404e-12</wgt>
  <wgt id="575">6.34899e-12</wgt>
  <wgt id="576">7.27833e-12</wgt>
  <wgt id="577">6.42769e-12</wgt>
  <wgt id="578">6.15636e-12</wgt>
  <wgt id="579">6.62706e-12</wgt>
  <wgt id="580">6.70658e-12</wgt>
  <wgt id="581">7.04601e-12</wgt>
  <wgt id="582">7.04348e-12</wgt>
  <wgt id="583">6.682e-12</wgt>
  <wgt id="584">6.30295e-12</wgt>
  <wgt id="585">5.66028e-12</wgt>
  <wgt id="586">5.86119e-12</wgt>
  <wgt id="587">6.51341e-12</wgt>
  <wgt id="588">7.58149e-12</wgt>
  <wgt id="589">7.35062e-12</wgt>
  <wgt id="590">6.4188e-12</wgt>
  <wgt id="591">6.5388e-12</wgt>
  <wgt id="592">6.04673e-12</wgt>
  <wgt id="593">6.04748e-12</wgt>
  <wgt id="594">5.89167e-12</wgt>
  <wgt id="595">7.07088e-12</wgt>
  <wgt id="596">7.55429e-12</wgt>
  <wgt id="597">6.54615e-12</wgt>
  <wgt id="598">6.71058e-12</wgt>
  <wgt id="599">7.00495e-12</wgt>
  <wgt id="600">7.39624e-12</wgt>
  <wgt id="601">6.02426e-12</wgt>
  <wgt id="602">5.95435e-12</wgt>
  <wgt id="603">5.66972e-12</wgt>
  <wgt id="604">6.68765e-12</wgt>
  <wgt id="605">6.20543e-12</wgt>
  <wgt id="606">6.342e-12</wgt>
  <wgt id="607">6.93719e-12</wgt>
  <wgt id="608">6.60914e-12</wgt>
  <wgt id="609">6.25776e-12</wgt>
  <wgt id="610">5.90238e-12</wgt>
  <wgt id="611">5.80939e-12</wgt>
  <wgt id="612">6.31068e-12</wgt>
  <wgt id="613">5.87217e-12</wgt>
  <wgt id="614">6.35582e-12</wgt>
  <wgt id="615">6.73811e-12</wgt>
  <wgt id="616">5.56701e-12</wgt>
  <wgt id="617">6.69545e-12</wgt>
  <wgt id="618">7.09305e-12</wgt>
  <wgt id="619">6.21155e-12</wgt>
  <wgt id="620">6.48912e-12</wgt>
  <wgt id="621">6.23209e-12</wgt>
  <wgt id="622">6.51341e-12</wgt>
  <wgt id="623">6.23993e-12</wgt>
  <wgt id="624">6.31081e-12</wgt>
  <wgt id="625">5.93026e-12</wgt>
  <wgt id="626">4.9982e-12</wgt>
  <wgt id="627">5.45444e-12</wgt>
  <wgt id="628">6.27843e-12</wgt>
  <wgt id="629">7.302e-12</wgt>
  <wgt id="630">6.21897e-12</wgt>
  <wgt id="631">6.74601e-12</wgt>
  <wgt id="632">5.66903e-12</wgt>
  <wgt id="633">6.29279e-12</wgt>
  <wgt id="634">5.88532e-12</wgt>
  <wgt id="635">5.81562e-12</wgt>
  <wgt id="636">6.2775e-12</wgt>
  <wgt id="637">6.41268e-12</wgt>
  <wgt id="638">5.92844e-12</wgt>
  <wgt id="639">5.84957e-12</wgt>
  <wgt id="640">5.97639e-12</wgt>
  <wgt id="641">6.82228e-12</wgt>
  <wgt id="642">5.31337e-12</wgt>
  <wgt id="643">6.05491e-12</wgt>
  <wgt id="644">5.72761e-12</wgt>
  <wgt id="645">6.36763e-12</wgt>
  <wgt id="646">5.34114e-12</wgt>
  <wgt id="647">6.71355e-12</wgt>
  <wgt id="648">6.91333e-12</wgt>
  <wgt id="649">6.43668e-12</wgt>
  <wgt id="650">6.19741e-12</wgt>
  <wgt id="651">6.79413e-12</wgt>
  <wgt id="652">5.91755e-12</wgt>
  <wgt id="653">5.99495e-12</wgt>
  <wgt id="654">6.46076e-12</wgt>
  <wgt id="655">5.81337e-12</wgt>
  <wgt id="656">6.47442e-12</wgt>
  <wgt id="657">7.14381e-12</wgt>
  <wgt id="658">6.16202e-12</wgt>
  <wgt id="659">6.11818e-12</wgt>
  <wgt id="660">5.82587e-12</wgt>
  <wgt id="661">6.07106e-12</wgt>
  <wgt id="662">6.27786e-12</wgt>
  <wgt id="663">6.60363e-12</wgt>
  <wgt id="664">6.68185e-12</wgt>
  <wgt id="665">6.13891e-12</wgt>
  <wgt id="666">6.11171e-12</wgt>
  <wgt id="667">6.76022e-12</wgt>
  <wgt id="668">6.16974e-12</wgt>
  <wgt id="669">6.14101e-12</wgt>
  <wgt id="670">6.80795e-12</wgt>
  <wgt id="671">6.55045e-12</wgt>
  <wgt id="672">6.5314e-12</wgt>
  <wgt id="673">7.09822e-12</wgt>
  <wgt id="674">6.06373e-12</wgt>
  <wgt id="675">5.91475e-12</wgt>
  <wgt id="676">8.35833e-12</wgt>
  <wgt id="677">8.38636e-12</wgt>
  <wgt id="678">9.55036e-12</wgt>
  <wgt id="679">9.37651e-12</wgt>
  <wgt id="680">8.54497e-12</wgt>
  <wgt id="681">7.94644e-12</wgt>
  <wgt id="682">8.99028e-12</wgt>
  <wgt id="683">7.1814e-12</wgt>
  <wgt id="684">9.08457e-12</wgt>
  <wgt id="685">8.59201e-12</wgt>
  <wgt id="686">8.91628e-12</wgt>
  <wgt id="687">8.39663e-12</wgt>
  <wgt id="688">8.11349e-12</wgt>
  <wgt id="689">9e-12</wgt>
  <wgt id="690">8.63226e-12</wgt>
  <wgt id="691">8.56718e-12</wgt>
  <wgt id="692">7.99309e-12</wgt>
  <wgt id="693">1.23791e-11</wgt>
  <wgt id="694">9.56893e-12</wgt>
  <wgt id="695">7.43644e-12</wgt>
  <wgt id="696">7.72274e-12</wgt>
  <wgt id="697">6.99142e-12</wgt>
  <wgt id="698">6.24337e-12</wgt>
  <wgt id="699">6.85824e-12</wgt>
  <wgt id="700">7.30951e-12</wgt>
  <wgt id="701">8.36334e-12</wgt>
  <wgt id="702">7.71375e-12</wgt>
  <wgt id="703">1.13353e-11</wgt>
  <wgt id="704">9.61157e-12</wgt>
  <wgt id="705">9.55882e-12</wgt>
  <wgt id="706">7.45166e-12</wgt>
  <wgt id="707">7.59985e-12</wgt>
  <wgt id="708">7.54534e-12</wgt>
  <wgt id="709">7.87419e-12</wgt>
  <wgt id="710">5.92489e-12</wgt>
  <wgt id="711">9.49361e-12</wgt>
  <wgt id="712">7.64728e-12</wgt>
  <wgt id="713">9.04412e-12</wgt>
  <wgt id="714">6.96049e-12</wgt>
  <wgt id="715">7.6586e-12</wgt>
  <wgt id="716">7.90644e-12</wgt>
  <wgt id="717">6.64098e-12</wgt>
  <wgt id="718">8.59263e-12</wgt>
  <wgt id="719">7.71624e-12</wgt>
  <wgt id="720">9.00536e-12</wgt>
  <wgt id="721">6.8934e-12</wgt>
  <wgt id="722">5.66496e-12</wgt>
  <wgt id="723">1.00106e-11</wgt>
  <wgt id="724">9.3756e-12</wgt>
  <wgt id="725">8.83033e-12</wgt>
  <wgt id="726">8.24017e-12</wgt>
  <wgt id="727">8.57498e-12</wgt>
  <wgt id="728">8.62328e-12</wgt>
  <wgt id="729">6.82779e-12</wgt>
  <wgt id="730">9.67023e-12</wgt>
  <wgt id="731">8.28713e-12</wgt>
  <wgt id="732">1.01412e-11</wgt>
  <wgt id="733">7.449e-12</wgt>
  <wgt id="734">8.75741e-12</wgt>
  <wgt id="735">8.05488e-12</wgt>
  <wgt id="736">7.39739e-12</wgt>
  <wgt id="737">6.61768e-12</wgt>
  <wgt id="738">7.82303e-12</wgt>
  <wgt id="739">8.58999e-12</wgt>
  <wgt id="740">1.06279e-11</wgt>
  <wgt id="741">9.58772e-12</wgt>
  <wgt id="742">7.33384e-12</wgt>
  <wgt id="743">7.46916e-12</wgt>
  <wgt id="744">8.03633e-12</wgt>
  <wgt id="745">9.64539e-12</wgt>
  <wgt id="746">9.96757e-12</wgt>
  <wgt id="747">6.53238e-12</wgt>
  <wgt id="748">7.84762e-12</wgt>
  <wgt id="749">8.86651e-12</wgt>
  <wgt id="750">9.27585e-12</wgt>
  <wgt id="751">8.47939e-12</wgt>
  <wgt id="752">7.304e-12</wgt>
  <wgt id="753">7.14327e-12</wgt>
  <wgt id="754">8.78731e-12</wgt>
  <wgt id="755">7.92681e-12</wgt>
  <wgt id="756">7.88631e-12</wgt>
  <wgt id="757">6.78271e-12</wgt>
  <wgt id="758">8.02966e-12</wgt>
  <wgt id="759">9.18462e-12</wgt>
  <wgt id="760">7.60339e-12</wgt>
  <wgt id="761">9.80441e-12</wgt>
  <wgt id="762">9.89156e-12</wgt>
  <wgt id="763">9.14787e-12</wgt>
  <wgt id="764">9.33609e-12</wgt>
  <wgt id="765">8.63515e-12</wgt>
  <wgt id="766">8.7109e-12</wgt>
  <wgt id="767">8.65799e-12</wgt>
  <wgt id="768">7.29809e-12</wgt>
  <wgt id="769">8.69866e-12</wgt>
  <wgt id="770">7.16498e-12</wgt>
  <wgt id="771">1.09048e-11</wgt>
  <wgt id="772">8.0529e-12</wgt>
  <wgt id="773">8.64158e-12</wgt>
  <wgt id="774">6.24337e-12</wgt>
  <wgt id="775">8.88417e-12</wgt>
  <wgt id="776">1.07165e-11</wgt>
  <wgt id="777">6.62511e-12</wgt>
  <wgt id="778">4.6525e-12</wgt>
  <wgt id="779">1.75005e-12</wgt>
  <wgt id="780">2.97475e-20</wgt>
  <wgt id="781">5.04665e-12</wgt>
  <wgt id="782">5.95736e-12</wgt>
  <wgt id="783">7.05005e-13</wgt>
  <wgt id="784">1.99828e-12</wgt>
  <wgt id="785">8.06294e-12</wgt>
  <wgt id="786">3.79382e-13</wgt>
  <wgt id="787">7.13606e-12</wgt>
  <wgt id="788">2.88429e-20</wgt>
  <wgt id="789">1.85842e-12</wgt>
  <wgt id="790">9.16844e-13</wgt>
  <wgt id="791">5.93952e-12</wgt>
  <wgt id="792">6.67973e-12</wgt>
  <wgt id="793">3.60468e-12</wgt>
  <wgt id="794">5.01521e-13</wgt>
  <wgt id="795">7.78913e-12</wgt>
  <wgt id="796">7.8673e-12</wgt>
  <wgt id="797">6.64968e-12</wgt>
  <wgt id="798">2.64918e-12</wgt>
  <wgt id="799">7.24374e-12</wgt>
  <wgt id="800">2.79557e-12</wgt>
  <wgt id="801">5.65937e-12</wgt>
  <wgt id="802">5.39836e-13</wgt>
  <wgt id="803">8.35123e-12</wgt>
  <wgt id="804">8.03736e-12</wgt>
  <wgt id="805">7.52924e-12</wgt>
  <wgt id="806">5.78702e-12</wgt>
  <wgt id="807">4.82621e-12</wgt>
  <wgt id="808">4.85212e-12</wgt>
  <wgt id="809">3.83461e-12</wgt>
  <wgt id="810">8.18757e-12</wgt>
  <wgt id="811">5.13811e-12</wgt>
  <wgt id="812">8.25343e-13</wgt>
  <wgt id="813">1.20232e-12</wgt>
  <wgt id="814">2.36719e-12</wgt>
  <wgt id="815">9.64616e-13</wgt>
  <wgt id="816">1.75307e-12</wgt>
  <wgt id="817">5.08006e-12</wgt>
  <wgt id="818">7.66152e-12</wgt>
  <wgt id="819">1.60924e-12</wgt>
  <wgt id="820">3.99205e-12</wgt>
  <wgt id="821">6.402e-12</wgt>
  <wgt id="822">3.25184e-12</wgt>
  <wgt id="823">7.17559e-12</wgt>
  <wgt id="824">7.5844e-12</wgt>
  <wgt id="825">2.95438e-20</wgt>
  <wgt id="826">7.47943e-12</wgt>
  <wgt id="827">1.06353e-13</wgt>
  <wgt id="828">6.50208e-12</wgt>
  <wgt id="829">4.99567e-12</wgt>
  <wgt id="830">2.95564e-20</wgt>
  <wgt id="831">6.51024e-12</wgt>
  <wgt id="832">1.01921e-11</wgt>
  <wgt id="833">3.06363e-12</wgt>
  <wgt id="834">1.02431e-11</wgt>
  <wgt id="835">2.03935e-12</wgt>
  <wgt id="836">2.82699e-12</wgt>
  <wgt id="837">6.23105e-12</wgt>
  <wgt id="838">2.70163e-12</wgt>
  <wgt id="839">6.74672e-12</wgt>
  <wgt id="840">3.69834e-12</wgt>
  <wgt id="841">7.67815e-12</wgt>
  <wgt id="842">5.23076e-12</wgt>
  <wgt id="843">5.07187e-12</wgt>
  <wgt id="844">6.02851e-12</wgt>
  <wgt id="845">1.07927e-11</wgt>
  <wgt id="846">3.67593e-12</wgt>
  <wgt id="847">5.61086e-12</wgt>
  <wgt id="848">9.5314e-13</wgt>
  <wgt id="849">5.97505e-12</wgt>
  <wgt id="850">9.23476e-12</wgt>
  <wgt id="851">6.43968e-12</wgt>
  <wgt id="852">1.60282e-14</wgt>
  <wgt id="853">6.8325e-12</wgt>
  <wgt id="854">8.26925e-12</wgt>
  <wgt id="855">6.44517e-12</wgt>
  <wgt id="856">2.94961e-20</wgt>
  <wgt id="857">3.18253e-12</wgt>
  <wgt id="858">4.95688e-12</wgt>
  <wgt id="859">4.58591e-12</wgt>
  <wgt id="860">6.68951e-12</wgt>
  <wgt id="861">3.09081e-12</wgt>
  <wgt id="862">5.21543e-12</wgt>
  <wgt id="863">6.29623e-12</wgt>
  <wgt id="864">4.80594e-12</wgt>
  <wgt id="865">9.36576e-12</wgt>
  <wgt id="866">1.01486e-11</wgt>
  <wgt id="867">4.76231e-12</wgt>
  <wgt id="868">5.62709e-12</wgt>
  <wgt id="869">8.68221e-13</wgt>
  <wgt id="870">2.29867e-12</wgt>
  <wgt id="871">3.02183e-12</wgt>
  <wgt id="872">8.90041e-12</wgt>
  <wgt id="873">3.15347e-12</wgt>
  <wgt id="874">5.91015e-12</wgt>
  <wgt id="875">2.568e-12</wgt>
  <wgt id="876">8.15928e-12</wgt>
  <wgt id="877">5.94117e-12</wgt>
  <wgt id="878">3.30982e-12</wgt>
  <wgt id="879">8.35833e-12</wgt>
  <wgt id="880">8.38636e-12</wgt>
  <wgt id="881">9.55036e-12</wgt>
  <wgt id="882">9.37651e-12</wgt>
  <wgt id="883">8.54497e-12</wgt>
  <wgt id="884">7.94644e-12</wgt>
  <wgt id="885">8.99028e-12</wgt>
  <wgt id="886">7.1814e-12</wgt>
  <wgt id="887">9.08457e-12</wgt>
  <wgt id="888">8.59201e-12</wgt>
  <wgt id="889">8.91628e-12</wgt>
  <wgt id="890">8.39663e-12</wgt>
  <wgt id="891">8.11349e-12</wgt>
  <wgt id="892">9e-12</wgt>
  <wgt id="893">8.63226e-12</wgt>
  <wgt id="894">8.56718e-12</wgt>
  <wgt id="895">7.99309e-12</wgt>
  <wgt id="896">1.23791e-11</wgt>
  <wgt id="897">9.56893e-12</wgt>
  <wgt id="898">7.43644e-12</wgt>
  <wgt id="899">7.72274e-12</wgt>
  <wgt id="900">6.99142e-12</wgt>
  <wgt id="901">6.24337e-12</wgt>
  <wgt id="902">6.85824e-12</wgt>
  <wgt id="903">7.30951e-12</wgt>
  <wgt id="904">8.36334e-12</wgt>
  <wgt id="905">7.71375e-12</wgt>
  <wgt id="906">1.13353e-11</wgt>
  <wgt id="907">9.61157e-12</wgt>
  <wgt id="908">9.55882e-12</wgt>
  <wgt id="909">7.45166e-12</wgt>
  <wgt id="910">7.59985e-12</wgt>
  <wgt id="911">7.54534e-12</wgt>
  <wgt id="912">7.87419e-12</wgt>
  <wgt id="913">5.92489e-12</wgt>
  <wgt id="914">9.49361e-12</wgt>
  <wgt id="915">7.64728e-12</wgt>
  <wgt id="916">9.04412e-12</wgt>
  <wgt id="917">6.96049e-12</wgt>
  <wgt id="918">7.6586e-12</wgt>
  <wgt id="919">7.90644e-12</wgt>
  <wgt id="920">6.64098e-12</wgt>
  <wgt id="921">8.59263e-12</wgt>
  <wgt id="922">7.71624e-12</wgt>
  <wgt id="923">9.00536e-12</wgt>
  <wgt id="924">6.8934e-12</wgt>
  <wgt id="925">5.66496e-12</wgt>
  <wgt id="926">1.00106e-11</wgt>
  <wgt id="927">9.3756e-12</wgt>
  <wgt id="928">8.83033e-12</wgt>
  <wgt id="929">8.24017e-12</wgt>
  <wgt id="930">8.57498e-12</wgt>
  <wgt id="931">8.62328e-12</wgt>
  <wgt id="932">6.82779e-12</wgt>
  <wgt id="933">9.67023e-12</wgt>
  <wgt id="934">8.28713e-12</wgt>
  <wgt id="935">1.01412e-11</wgt>
  <wgt id="936">7.449e-12</wgt>
  <wgt id="937">8.75741e-12</wgt>
  <wgt id="938">8.05488e-12</wgt>
  <wgt id="939">7.39739e-12</wgt>
  <wgt id="940">6.61768e-12</wgt>
  <wgt id="941">7.82303e-12</wgt>
  <wgt id="942">8.58999e-12</wgt>
  <wgt id="943">1.06279e-11</wgt>
  <wgt id="944">9.58772e-12</wgt>
  <wgt id="945">7.33384e-12</wgt>
  <wgt id="946">7.46916e-12</wgt>
  <wgt id="947">8.03633e-12</wgt>
  <wgt id="948">9.64539e-12</wgt>
  <wgt id="949">9.96757e-12</wgt>
  <wgt id="950">6.53238e-12</wgt>
  <wgt id="951">7.84762e-12</wgt>
  <wgt id="952">8.86651e-12</wgt>
  <wgt id="953">9.27585e-12</wgt>
  <wgt id="954">8.47939e-12</wgt>
  <wgt id="955">7.304e-12</wgt>
  <wgt id="956">7.14327e-12</wgt>
  <wgt id="957">8.78731e-12</wgt>
  <wgt id="958">7.92681e-12</wgt>
  <wgt id="959">7.88631e-12</wgt>
  <wgt id="960">6.78271e-12</wgt>
  <wgt id="961">8.02966e-12</wgt>
  <wgt id="962">9.18462e-12</wgt>
  <wgt id="963">7.60339e-12</wgt>
  <wgt id="964">9.80441e-12</wgt>
  <wgt id="965">9.89156e-12</wgt>
  <wgt id="966">9.14787e-12</wgt>
  <wgt id="967">9.33609e-12</wgt>
  <wgt id="968">8.63515e-12</wgt>
  <wgt id="969">8.7109e-12</wgt>
  <wgt id="970">8.65799e-12</wgt>
  <wgt id="971">7.29809e-12</wgt>
  <wgt id="972">8.69866e-12</wgt>
  <wgt id="973">7.16498e-12</wgt>
  <wgt id="974">1.09048e-11</wgt>
  <wgt id="975">8.0529e-12</wgt>
  <wgt id="976">8.64158e-12</wgt>
  <wgt id="977">6.24337e-12</wgt>
  <wgt id="978">8.88417e-12</wgt>
  <wgt id="979">1.07165e-11</wgt>
  <wgt id="980">8.27986e-12</wgt>
  <wgt id="981">8.72736e-12</wgt>
  <wgt id="982">8.17549e-12</wgt>
</rwgt>
</event>
<event>
 5   1  0.5790000E-11  0.2140282E+04  0.7818608E-02  0.7771744E-01
       21   -1    0    0  502  501  0.00000000000E+00  0.00000000000E+00  0.92710959759E+03  0.92710959759E+03  0.00000000000E+00 0. -1.
       21   -1    0    0  501  502 -0.00000000000E+00 -0.00000000000E+00 -0.12352393440E+04  0.12352393440E+04  0.00000000000E+00 0.  1.
       39    2    1    2    0    0  0.00000000000E+00  0.00000000000E+00 -0.30812974645E+03  0.21623489416E+04  0.21402824591E+04 0.  0.
       25    1    3    3    0    0  0.82085331013E+03 -0.66054377591E+03 -0.29499865542E+03  0.11012572103E+04  0.12500000000E+03 0.  0.
       25    1    3    3    0    0 -0.82085331013E+03  0.66054377591E+03 -0.13131091031E+02  0.10610917313E+04  0.12500000000E+03 0.  0.
<mgrwt>
<rscale>  0 0.21402825E+04</rscale>
<asrwt>0</asrwt>
<pdfrwt beam="1">  1       21 0.14263225E+00 0.21402825E+04</pdfrwt>
<pdfrwt beam="2">  1       21 0.19003682E+00 0.21402825E+04</pdfrwt>
<totfact> 0.22254450E+01</totfact>
</mgrwt>
<rwgt>
  <wgt id="1">5.79e-12</wgt>
  <wgt id="2">5.06208e-12</wgt>
  <wgt id="3">6.68935e-12</wgt>
  <wgt id="4">5.79e-12</wgt>
  <wgt id="5">5.06208e-12</wgt>
  <wgt id="6">6.68935e-12</wgt>
  <wgt id="7">5.79e-12</wgt>
  <wgt id="8">5.06208e-12</wgt>
  <wgt id="9">6.68935e-12</wgt>
  <wgt id="10">5.94533e-12</wgt>
  <wgt id="11">5.93964e-12</wgt>
  <wgt id="12">5.93418e-12</wgt>
  <wgt id="13">5.92514e-12</wgt>
  <wgt id="14">5.96621e-12</wgt>
  <wgt id="15">5.95383e-12</wgt>
  <wgt id="16">5.93233e-12</wgt>
  <wgt id="17">5.95569e-12</wgt>
  <wgt id="18">5.9382e-12</wgt>
  <wgt id="19">5.95702e-12</wgt>
  <wgt id="20">5.9279e-12</wgt>
  <wgt id="21">5.91425e-12</wgt>
  <wgt id="22">5.92757e-12</wgt>
  <wgt id="23">5.89577e-12</wgt>
  <wgt id="24">5.91947e-12</wgt>
  <wgt id="25">5.93076e-12</wgt>
  <wgt id="26">5.96932e-12</wgt>
  <wgt id="27">5.94453e-12</wgt>
  <wgt id="28">5.91721e-12</wgt>
  <wgt id="29">5.95156e-12</wgt>
  <wgt id="30">5.92964e-12</wgt>
  <wgt id="31">5.96105e-12</wgt>
  <wgt id="32">5.93172e-12</wgt>
  <wgt id="33">5.95738e-12</wgt>
  <wgt id="34">5.92832e-12</wgt>
  <wgt id="35">5.93681e-12</wgt>
  <wgt id="36">5.95799e-12</wgt>
  <wgt id="37">5.93026e-12</wgt>
  <wgt id="38">5.93179e-12</wgt>
  <wgt id="39">6.00565e-12</wgt>
  <wgt id="40">5.96039e-12</wgt>
  <wgt id="41">5.9438e-12</wgt>
  <wgt id="42">5.96531e-12</wgt>
  <wgt id="43">5.95133e-12</wgt>
  <wgt id="44">5.92058e-12</wgt>
  <wgt id="45">5.95319e-12</wgt>
  <wgt id="46">5.95106e-12</wgt>
  <wgt id="47">5.91985e-12</wgt>
  <wgt id="48">5.94607e-12</wgt>
  <wgt id="49">5.96909e-12</wgt>
  <wgt id="50">5.98251e-12</wgt>
  <wgt id="51">5.96858e-12</wgt>
  <wgt id="52">5.92234e-12</wgt>
  <wgt id="53">5.91258e-12</wgt>
  <wgt id="54">5.93431e-12</wgt>
  <wgt id="55">5.94353e-12</wgt>
  <wgt id="56">5.96302e-12</wgt>
  <wgt id="57">5.96569e-12</wgt>
  <wgt id="58">5.90625e-12</wgt>
  <wgt id="59">5.9266e-12</wgt>
  <wgt id="60">5.94735e-12</wgt>
  <wgt id="61">5.94066e-12</wgt>
  <wgt id="62">5.94532e-12</wgt>
  <wgt id="63">5.95297e-12</wgt>
  <wgt id="64">5.95214e-12</wgt>
  <wgt id="65">5.95076e-12</wgt>
  <wgt id="66">5.93867e-12</wgt>
  <wgt id="67">5.93887e-12</wgt>
  <wgt id="68">5.93964e-12</wgt>
  <wgt id="69">5.94344e-12</wgt>
  <wgt id="70">5.94181e-12</wgt>
  <wgt id="71">5.94187e-12</wgt>
  <wgt id="72">5.93911e-12</wgt>
  <wgt id="73">5.94955e-12</wgt>
  <wgt id="74">5.94751e-12</wgt>
  <wgt id="75">5.94496e-12</wgt>
  <wgt id="76">5.95844e-12</wgt>
  <wgt id="77">5.94453e-12</wgt>
  <wgt id="78">5.94719e-12</wgt>
  <wgt id="79">5.95443e-12</wgt>
  <wgt id="80">5.92405e-12</wgt>
  <wgt id="81">5.93847e-12</wgt>
  <wgt id="82">5.94546e-12</wgt>
  <wgt id="83">5.92668e-12</wgt>
  <wgt id="84">5.93496e-12</wgt>
  <wgt id="85">5.93695e-12</wgt>
  <wgt id="86">5.95605e-12</wgt>
  <wgt id="87">5.92148e-12</wgt>
  <wgt id="88">5.95074e-12</wgt>
  <wgt id="89">5.95006e-12</wgt>
  <wgt id="90">5.95193e-12</wgt>
  <wgt id="91">5.94907e-12</wgt>
  <wgt id="92">5.95457e-12</wgt>
  <wgt id="93">5.9449e-12</wgt>
  <wgt id="94">5.9413e-12</wgt>
  <wgt id="95">5.94842e-12</wgt>
  <wgt id="96">5.94829e-12</wgt>
  <wgt id="97">5.93889e-12</wgt>
  <wgt id="98">5.94797e-12</wgt>
  <wgt id="99">5.94264e-12</wgt>
  <wgt id="100">5.95016e-12</wgt>
  <wgt id="101">5.94414e-12</wgt>
  <wgt id="102">5.94062e-12</wgt>
  <wgt id="103">5.95179e-12</wgt>
  <wgt id="104">5.94197e-12</wgt>
  <wgt id="105">5.95005e-12</wgt>
  <wgt id="106">5.93906e-12</wgt>
  <wgt id="107">5.95852e-12</wgt>
  <wgt id="108">5.94047e-12</wgt>
  <wgt id="109">5.94704e-12</wgt>
  <wgt id="110">5.94457e-12</wgt>
  <wgt id="111">6.01741e-12</wgt>
  <wgt id="112">5.93141e-12</wgt>
  <wgt id="113">7.79109e-12</wgt>
  <wgt id="114">8.11765e-12</wgt>
  <wgt id="115">8.00715e-12</wgt>
  <wgt id="116">1.08738e-11</wgt>
  <wgt id="117">6.52766e-12</wgt>
  <wgt id="118">6.54826e-12</wgt>
  <wgt id="119">6.51617e-12</wgt>
  <wgt id="120">6.52858e-12</wgt>
  <wgt id="121">6.52733e-12</wgt>
  <wgt id="122">6.5159e-12</wgt>
  <wgt id="123">6.54408e-12</wgt>
  <wgt id="124">6.51811e-12</wgt>
  <wgt id="125">6.53402e-12</wgt>
  <wgt id="126">6.53845e-12</wgt>
  <wgt id="127">6.52069e-12</wgt>
  <wgt id="128">6.54821e-12</wgt>
  <wgt id="129">6.50749e-12</wgt>
  <wgt id="130">6.56513e-12</wgt>
  <wgt id="131">6.48946e-12</wgt>
  <wgt id="132">6.36529e-12</wgt>
  <wgt id="133">6.71901e-12</wgt>
  <wgt id="134">6.46157e-12</wgt>
  <wgt id="135">6.57932e-12</wgt>
  <wgt id="136">6.60489e-12</wgt>
  <wgt id="137">6.43437e-12</wgt>
  <wgt id="138">6.7619e-12</wgt>
  <wgt id="139">6.30017e-12</wgt>
  <wgt id="140">6.4827e-12</wgt>
  <wgt id="141">6.56309e-12</wgt>
  <wgt id="142">6.52882e-12</wgt>
  <wgt id="143">6.53513e-12</wgt>
  <wgt id="144">6.37632e-12</wgt>
  <wgt id="145">6.66586e-12</wgt>
  <wgt id="146">6.57563e-12</wgt>
  <wgt id="147">6.49053e-12</wgt>
  <wgt id="148">6.54605e-12</wgt>
  <wgt id="149">6.52642e-12</wgt>
  <wgt id="150">6.58221e-12</wgt>
  <wgt id="151">6.50227e-12</wgt>
  <wgt id="152">6.53027e-12</wgt>
  <wgt id="153">6.52694e-12</wgt>
  <wgt id="154">6.58712e-12</wgt>
  <wgt id="155">6.45856e-12</wgt>
  <wgt id="156">6.62792e-12</wgt>
  <wgt id="157">6.41328e-12</wgt>
  <wgt id="158">7.85732e-12</wgt>
  <wgt id="159">7.88971e-12</wgt>
  <wgt id="160">7.83089e-12</wgt>
  <wgt id="161">7.83902e-12</wgt>
  <wgt id="162">7.8773e-12</wgt>
  <wgt id="163">7.84956e-12</wgt>
  <wgt id="164">7.86878e-12</wgt>
  <wgt id="165">7.86038e-12</wgt>
  <wgt id="166">7.85494e-12</wgt>
  <wgt id="167">7.85148e-12</wgt>
  <wgt id="168">7.86532e-12</wgt>
  <wgt id="169">7.82338e-12</wgt>
  <wgt id="170">7.87848e-12</wgt>
  <wgt id="171">7.84923e-12</wgt>
  <wgt id="172">7.8685e-12</wgt>
  <wgt id="173">7.85901e-12</wgt>
  <wgt id="174">7.85633e-12</wgt>
  <wgt id="175">7.64814e-12</wgt>
  <wgt id="176">8.1286e-12</wgt>
  <wgt id="177">7.89589e-12</wgt>
  <wgt id="178">7.82122e-12</wgt>
  <wgt id="179">8.15804e-12</wgt>
  <wgt id="180">7.37909e-12</wgt>
  <wgt id="181">7.64564e-12</wgt>
  <wgt id="182">7.99649e-12</wgt>
  <wgt id="183">7.72756e-12</wgt>
  <wgt id="184">7.92149e-12</wgt>
  <wgt id="185">7.79834e-12</wgt>
  <wgt id="186">7.92622e-12</wgt>
  <wgt id="187">7.79058e-12</wgt>
  <wgt id="188">7.97746e-12</wgt>
  <wgt id="189">7.81147e-12</wgt>
  <wgt id="190">7.87606e-12</wgt>
  <wgt id="191">7.8767e-12</wgt>
  <wgt id="192">7.84571e-12</wgt>
  <wgt id="193">7.95894e-12</wgt>
  <wgt id="194">7.80692e-12</wgt>
  <wgt id="195">7.70644e-12</wgt>
  <wgt id="196">8.14742e-12</wgt>
  <wgt id="197">7.89367e-12</wgt>
  <wgt id="198">7.84846e-12</wgt>
  <wgt id="199">7.85732e-12</wgt>
  <wgt id="200">7.9204e-12</wgt>
  <wgt id="201">7.89684e-12</wgt>
  <wgt id="202">7.87426e-12</wgt>
  <wgt id="203">7.8397e-12</wgt>
  <wgt id="204">7.8235e-12</wgt>
  <wgt id="205">7.81e-12</wgt>
  <wgt id="206">7.65821e-12</wgt>
  <wgt id="207">7.70229e-12</wgt>
  <wgt id="208">7.61454e-12</wgt>
  <wgt id="209">7.67842e-12</wgt>
  <wgt id="210">7.6433e-12</wgt>
  <wgt id="211">7.65604e-12</wgt>
  <wgt id="212">7.65989e-12</wgt>
  <wgt id="213">7.65747e-12</wgt>
  <wgt id="214">7.65923e-12</wgt>
  <wgt id="215">7.66294e-12</wgt>
  <wgt id="216">7.65469e-12</wgt>
  <wgt id="217">7.67891e-12</wgt>
  <wgt id="218">7.64209e-12</wgt>
  <wgt id="219">7.64816e-12</wgt>
  <wgt id="220">7.6642e-12</wgt>
  <wgt id="221">7.65423e-12</wgt>
  <wgt id="222">7.66728e-12</wgt>
  <wgt id="223">7.27655e-12</wgt>
  <wgt id="224">8.00428e-12</wgt>
  <wgt id="225">7.5734e-12</wgt>
  <wgt id="226">7.7642e-12</wgt>
  <wgt id="227">7.58989e-12</wgt>
  <wgt id="228">7.68817e-12</wgt>
  <wgt id="229">7.55731e-12</wgt>
  <wgt id="230">7.70828e-12</wgt>
  <wgt id="231">7.86172e-12</wgt>
  <wgt id="232">7.49018e-12</wgt>
  <wgt id="233">7.62154e-12</wgt>
  <wgt id="234">7.71336e-12</wgt>
  <wgt id="235">7.54412e-12</wgt>
  <wgt id="236">7.77517e-12</wgt>
  <wgt id="237">7.57365e-12</wgt>
  <wgt id="238">7.68745e-12</wgt>
  <wgt id="239">7.62014e-12</wgt>
  <wgt id="240">7.72752e-12</wgt>
  <wgt id="241">7.58718e-12</wgt>
  <wgt id="242">7.7434e-12</wgt>
  <wgt id="243">7.72659e-12</wgt>
  <wgt id="244">7.71144e-12</wgt>
  <wgt id="245">7.65143e-12</wgt>
  <wgt id="246">7.71862e-12</wgt>
  <wgt id="247">7.65821e-12</wgt>
  <wgt id="248">7.72013e-12</wgt>
  <wgt id="249">7.69606e-12</wgt>
  <wgt id="250">7.67401e-12</wgt>
  <wgt id="251">7.64024e-12</wgt>
  <wgt id="252">7.62467e-12</wgt>
  <wgt id="253">7.61299e-12</wgt>
  <wgt id="254">7.50364e-12</wgt>
  <wgt id="255">7.51085e-12</wgt>
  <wgt id="256">7.49585e-12</wgt>
  <wgt id="257">7.50957e-12</wgt>
  <wgt id="258">7.49923e-12</wgt>
  <wgt id="259">7.55338e-12</wgt>
  <wgt id="260">7.4557e-12</wgt>
  <wgt id="261">7.51134e-12</wgt>
  <wgt id="262">7.49458e-12</wgt>
  <wgt id="263">7.50114e-12</wgt>
  <wgt id="264">7.50645e-12</wgt>
  <wgt id="265">7.49605e-12</wgt>
  <wgt id="266">7.51868e-12</wgt>
  <wgt id="267">7.50593e-12</wgt>
  <wgt id="268">7.50067e-12</wgt>
  <wgt id="269">7.52517e-12</wgt>
  <wgt id="270">7.48901e-12</wgt>
  <wgt id="271">7.49151e-12</wgt>
  <wgt id="272">7.51707e-12</wgt>
  <wgt id="273">7.48161e-12</wgt>
  <wgt id="274">7.52056e-12</wgt>
  <wgt id="275">7.47671e-12</wgt>
  <wgt id="276">7.53146e-12</wgt>
  <wgt id="277">7.46328e-12</wgt>
  <wgt id="278">7.54087e-12</wgt>
  <wgt id="279">7.36887e-12</wgt>
  <wgt id="280">7.67222e-12</wgt>
  <wgt id="281">7.47362e-12</wgt>
  <wgt id="282">7.50379e-12</wgt>
  <wgt id="283">7.30726e-12</wgt>
  <wgt id="284">7.74431e-12</wgt>
  <wgt id="285">7.17527e-12</wgt>
  <wgt id="286">7.77292e-12</wgt>
  <wgt id="287">7.52526e-12</wgt>
  <wgt id="288">7.47592e-12</wgt>
  <wgt id="289">7.55146e-12</wgt>
  <wgt id="290">7.39008e-12</wgt>
  <wgt id="291">7.48696e-12</wgt>
  <wgt id="292">7.50778e-12</wgt>
  <wgt id="293">7.45118e-12</wgt>
  <wgt id="294">7.55567e-12</wgt>
  <wgt id="295">7.3729e-12</wgt>
  <wgt id="296">7.66273e-12</wgt>
  <wgt id="297">7.50871e-12</wgt>
  <wgt id="298">7.52544e-12</wgt>
  <wgt id="299">7.48182e-12</wgt>
  <wgt id="300">7.56119e-12</wgt>
  <wgt id="301">7.429e-12</wgt>
  <wgt id="302">7.71399e-12</wgt>
  <wgt id="303">7.45959e-12</wgt>
  <wgt id="304">7.5295e-12</wgt>
  <wgt id="305">7.54763e-12</wgt>
  <wgt id="306">7.55546e-12</wgt>
  <wgt id="307">7.53945e-12</wgt>
  <wgt id="308">7.5543e-12</wgt>
  <wgt id="309">7.54329e-12</wgt>
  <wgt id="310">7.59951e-12</wgt>
  <wgt id="311">7.49966e-12</wgt>
  <wgt id="312">7.55306e-12</wgt>
  <wgt id="313">7.54263e-12</wgt>
  <wgt id="314">7.54535e-12</wgt>
  <wgt id="315">7.55008e-12</wgt>
  <wgt id="316">7.54059e-12</wgt>
  <wgt id="317">7.56333e-12</wgt>
  <wgt id="318">7.55261e-12</wgt>
  <wgt id="319">7.53956e-12</wgt>
  <wgt id="320">7.57005e-12</wgt>
  <wgt id="321">7.53534e-12</wgt>
  <wgt id="322">7.5315e-12</wgt>
  <wgt id="323">7.56688e-12</wgt>
  <wgt id="324">7.5293e-12</wgt>
  <wgt id="325">7.5639e-12</wgt>
  <wgt id="326">7.52606e-12</wgt>
  <wgt id="327">7.57549e-12</wgt>
  <wgt id="328">7.5107e-12</wgt>
  <wgt id="329">7.56913e-12</wgt>
  <wgt id="330">7.75806e-12</wgt>
  <wgt id="331">7.34641e-12</wgt>
  <wgt id="332">7.523e-12</wgt>
  <wgt id="333">7.54699e-12</wgt>
  <wgt id="334">7.39232e-12</wgt>
  <wgt id="335">7.73988e-12</wgt>
  <wgt id="336">7.30787e-12</wgt>
  <wgt id="337">7.83706e-12</wgt>
  <wgt id="338">7.62445e-12</wgt>
  <wgt id="339">7.47634e-12</wgt>
  <wgt id="340">7.59357e-12</wgt>
  <wgt id="341">7.4279e-12</wgt>
  <wgt id="342">7.53655e-12</wgt>
  <wgt id="343">7.54138e-12</wgt>
  <wgt id="344">7.49943e-12</wgt>
  <wgt id="345">7.60364e-12</wgt>
  <wgt id="346">7.41132e-12</wgt>
  <wgt id="347">7.70456e-12</wgt>
  <wgt id="348">7.55682e-12</wgt>
  <wgt id="349">7.56411e-12</wgt>
  <wgt id="350">7.51992e-12</wgt>
  <wgt id="351">7.61822e-12</wgt>
  <wgt id="352">7.46338e-12</wgt>
  <wgt id="353">7.7723e-12</wgt>
  <wgt id="354">7.47941e-12</wgt>
  <wgt id="355">7.59068e-12</wgt>
  <wgt id="356">7.50364e-12</wgt>
  <wgt id="357">7.58459e-12</wgt>
  <wgt id="358">7.54763e-12</wgt>
  <wgt id="359">7.53584e-12</wgt>
  <wgt id="360">7.53317e-12</wgt>
  <wgt id="361">7.52261e-12</wgt>
  <wgt id="362">7.64102e-12</wgt>
  <wgt id="363">7.62423e-12</wgt>
  <wgt id="364">7.6022e-12</wgt>
  <wgt id="365">7.57887e-12</wgt>
  <wgt id="366">7.55215e-12</wgt>
  <wgt id="367">7.49586e-12</wgt>
  <wgt id="368">7.46549e-12</wgt>
  <wgt id="369">7.43299e-12</wgt>
  <wgt id="370">7.52261e-12</wgt>
  <wgt id="371">7.55581e-12</wgt>
  <wgt id="372">7.53747e-12</wgt>
  <wgt id="373">7.5103e-12</wgt>
  <wgt id="374">7.50547e-12</wgt>
  <wgt id="375">7.91902e-12</wgt>
  <wgt id="376">7.91995e-12</wgt>
  <wgt id="377">7.91783e-12</wgt>
  <wgt id="378">7.94714e-12</wgt>
  <wgt id="379">7.89091e-12</wgt>
  <wgt id="380">7.94047e-12</wgt>
  <wgt id="381">7.91036e-12</wgt>
  <wgt id="382">7.95682e-12</wgt>
  <wgt id="383">7.88158e-12</wgt>
  <wgt id="384">7.92408e-12</wgt>
  <wgt id="385">7.91413e-12</wgt>
  <wgt id="386">7.94804e-12</wgt>
  <wgt id="387">7.90634e-12</wgt>
  <wgt id="388">7.91196e-12</wgt>
  <wgt id="389">7.92744e-12</wgt>
  <wgt id="390">7.93915e-12</wgt>
  <wgt id="391">7.89775e-12</wgt>
  <wgt id="392">7.86691e-12</wgt>
  <wgt id="393">7.94852e-12</wgt>
  <wgt id="394">7.93034e-12</wgt>
  <wgt id="395">7.90338e-12</wgt>
  <wgt id="396">7.9204e-12</wgt>
  <wgt id="397">7.91799e-12</wgt>
  <wgt id="398">7.88757e-12</wgt>
  <wgt id="399">7.9493e-12</wgt>
  <wgt id="400">7.90699e-12</wgt>
  <wgt id="401">7.9456e-12</wgt>
  <wgt id="402">7.86106e-12</wgt>
  <wgt id="403">7.94179e-12</wgt>
  <wgt id="404">8.08251e-12</wgt>
  <wgt id="405">7.52293e-12</wgt>
  <wgt id="406">7.80115e-12</wgt>
  <wgt id="407">8.17252e-12</wgt>
  <wgt id="408">7.97942e-12</wgt>
  <wgt id="409">7.80237e-12</wgt>
  <wgt id="410">7.72428e-12</wgt>
  <wgt id="411">8.00756e-12</wgt>
  <wgt id="412">7.90673e-12</wgt>
  <wgt id="413">7.93577e-12</wgt>
  <wgt id="414">7.84128e-12</wgt>
  <wgt id="415">7.97926e-12</wgt>
  <wgt id="416">8.09902e-12</wgt>
  <wgt id="417">7.66951e-12</wgt>
  <wgt id="418">7.92834e-12</wgt>
  <wgt id="419">7.86879e-12</wgt>
  <wgt id="420">8.00184e-12</wgt>
  <wgt id="421">7.87812e-12</wgt>
  <wgt id="422">7.91936e-12</wgt>
  <wgt id="423">7.92094e-12</wgt>
  <wgt id="424">8.04474e-12</wgt>
  <wgt id="425">7.84335e-12</wgt>
  <wgt id="426">7.91902e-12</wgt>
  <wgt id="427">7.86906e-12</wgt>
  <wgt id="428">8.07858e-12</wgt>
  <wgt id="429">7.9761e-12</wgt>
  <wgt id="430">8.17932e-12</wgt>
  <wgt id="431">8.13901e-12</wgt>
  <wgt id="432">8.1004e-12</wgt>
  <wgt id="433">8.06287e-12</wgt>
  <wgt id="434">8.01832e-12</wgt>
  <wgt id="435">7.92307e-12</wgt>
  <wgt id="436">7.87362e-12</wgt>
  <wgt id="437">7.82697e-12</wgt>
  <wgt id="438">7.9761e-12</wgt>
  <wgt id="439">8.00232e-12</wgt>
  <wgt id="440">7.98713e-12</wgt>
  <wgt id="441">7.96767e-12</wgt>
  <wgt id="442">7.96046e-12</wgt>
  <wgt id="443">7.8153e-12</wgt>
  <wgt id="444">7.84812e-12</wgt>
  <wgt id="445">7.78772e-12</wgt>
  <wgt id="446">7.76921e-12</wgt>
  <wgt id="447">7.78991e-12</wgt>
  <wgt id="448">7.62793e-12</wgt>
  <wgt id="449">7.92264e-12</wgt>
  <wgt id="450">7.78268e-12</wgt>
  <wgt id="451">7.80512e-12</wgt>
  <wgt id="452">7.96905e-12</wgt>
  <wgt id="453">7.87292e-12</wgt>
  <wgt id="454">7.52658e-12</wgt>
  <wgt id="455">7.82433e-12</wgt>
  <wgt id="456">7.69842e-12</wgt>
  <wgt id="457">7.8417e-12</wgt>
  <wgt id="458">7.89511e-12</wgt>
  <wgt id="459">7.86167e-12</wgt>
  <wgt id="460">7.85594e-12</wgt>
  <wgt id="461">7.69682e-12</wgt>
  <wgt id="462">7.76387e-12</wgt>
  <wgt id="463">7.74345e-12</wgt>
  <wgt id="464">7.78069e-12</wgt>
  <wgt id="465">7.88213e-12</wgt>
  <wgt id="466">7.74147e-12</wgt>
  <wgt id="467">7.7526e-12</wgt>
  <wgt id="468">7.79745e-12</wgt>
  <wgt id="469">7.79897e-12</wgt>
  <wgt id="470">7.75413e-12</wgt>
  <wgt id="471">7.75923e-12</wgt>
  <wgt id="472">7.84447e-12</wgt>
  <wgt id="473">7.60858e-12</wgt>
  <wgt id="474">5.79e-12</wgt>
  <wgt id="475">6.14626e-12</wgt>
  <wgt id="476">5.68142e-12</wgt>
  <wgt id="477">5.68912e-12</wgt>
  <wgt id="478">5.82479e-12</wgt>
  <wgt id="479">5.7273e-12</wgt>
  <wgt id="480">5.9587e-12</wgt>
  <wgt id="481">5.64381e-12</wgt>
  <wgt id="482">5.56215e-12</wgt>
  <wgt id="483">5.6451e-12</wgt>
  <wgt id="484">6.19696e-12</wgt>
  <wgt id="485">5.80803e-12</wgt>
  <wgt id="486">5.87857e-12</wgt>
  <wgt id="487">5.86288e-12</wgt>
  <wgt id="488">5.85803e-12</wgt>
  <wgt id="489">5.57813e-12</wgt>
  <wgt id="490">5.62944e-12</wgt>
  <wgt id="491">5.7319e-12</wgt>
  <wgt id="492">5.61576e-12</wgt>
  <wgt id="493">5.59954e-12</wgt>
  <wgt id="494">5.62129e-12</wgt>
  <wgt id="495">5.87628e-12</wgt>
  <wgt id="496">5.5951e-12</wgt>
  <wgt id="497">5.59224e-12</wgt>
  <wgt id="498">5.85709e-12</wgt>
  <wgt id="499">5.6466e-12</wgt>
  <wgt id="500">5.68608e-12</wgt>
  <wgt id="501">6.02679e-12</wgt>
  <wgt id="502">5.63439e-12</wgt>
  <wgt id="503">5.77072e-12</wgt>
  <wgt id="504">5.78923e-12</wgt>
  <wgt id="505">5.84355e-12</wgt>
  <wgt id="506">5.86093e-12</wgt>
  <wgt id="507">5.72613e-12</wgt>
  <wgt id="508">5.88744e-12</wgt>
  <wgt id="509">5.75236e-12</wgt>
  <wgt id="510">5.91587e-12</wgt>
  <wgt id="511">5.663e-12</wgt>
  <wgt id="512">5.85363e-12</wgt>
  <wgt id="513">5.97892e-12</wgt>
  <wgt id="514">5.74571e-12</wgt>
  <wgt id="515">5.72285e-12</wgt>
  <wgt id="516">5.9415e-12</wgt>
  <wgt id="517">5.92014e-12</wgt>
  <wgt id="518">5.94388e-12</wgt>
  <wgt id="519">5.66564e-12</wgt>
  <wgt id="520">5.81366e-12</wgt>
  <wgt id="521">5.99935e-12</wgt>
  <wgt id="522">6.00468e-12</wgt>
  <wgt id="523">5.89297e-12</wgt>
  <wgt id="524">5.8972e-12</wgt>
  <wgt id="525">5.92276e-12</wgt>
  <wgt id="526">5.77878e-12</wgt>
  <wgt id="527">5.89761e-12</wgt>
  <wgt id="528">5.77973e-12</wgt>
  <wgt id="529">5.728e-12</wgt>
  <wgt id="530">5.82002e-12</wgt>
  <wgt id="531">5.71307e-12</wgt>
  <wgt id="532">6.08321e-12</wgt>
  <wgt id="533">5.45075e-12</wgt>
  <wgt id="534">5.79187e-12</wgt>
  <wgt id="535">5.87579e-12</wgt>
  <wgt id="536">5.79993e-12</wgt>
  <wgt id="537">5.81046e-12</wgt>
  <wgt id="538">5.8939e-12</wgt>
  <wgt id="539">5.65798e-12</wgt>
  <wgt id="540">5.74218e-12</wgt>
  <wgt id="541">5.70568e-12</wgt>
  <wgt id="542">5.6606e-12</wgt>
  <wgt id="543">5.78055e-12</wgt>
  <wgt id="544">6.06668e-12</wgt>
  <wgt id="545">5.71243e-12</wgt>
  <wgt id="546">5.73046e-12</wgt>
  <wgt id="547">5.62406e-12</wgt>
  <wgt id="548">5.55678e-12</wgt>
  <wgt id="549">5.70638e-12</wgt>
  <wgt id="550">5.82065e-12</wgt>
  <wgt id="551">5.8632e-12</wgt>
  <wgt id="552">5.73113e-12</wgt>
  <wgt id="553">5.77599e-12</wgt>
  <wgt id="554">6.21901e-12</wgt>
  <wgt id="555">5.9536e-12</wgt>
  <wgt id="556">5.62944e-12</wgt>
  <wgt id="557">5.8765e-12</wgt>
  <wgt id="558">5.60628e-12</wgt>
  <wgt id="559">5.7205e-12</wgt>
  <wgt id="560">6.24118e-12</wgt>
  <wgt id="561">5.65424e-12</wgt>
  <wgt id="562">5.86405e-12</wgt>
  <wgt id="563">5.65753e-12</wgt>
  <wgt id="564">5.7921e-12</wgt>
  <wgt id="565">5.61795e-12</wgt>
  <wgt id="566">5.84297e-12</wgt>
  <wgt id="567">5.70246e-12</wgt>
  <wgt id="568">5.79927e-12</wgt>
  <wgt id="569">5.82849e-12</wgt>
  <wgt id="570">5.66278e-12</wgt>
  <wgt id="571">6.39287e-12</wgt>
  <wgt id="572">5.67004e-12</wgt>
  <wgt id="573">5.53772e-12</wgt>
  <wgt id="574">5.5924e-12</wgt>
  <wgt id="575">6.33154e-12</wgt>
  <wgt id="576">6.22927e-12</wgt>
  <wgt id="577">6.56503e-12</wgt>
  <wgt id="578">6.44038e-12</wgt>
  <wgt id="579">6.38558e-12</wgt>
  <wgt id="580">6.42421e-12</wgt>
  <wgt id="581">6.69748e-12</wgt>
  <wgt id="582">6.21234e-12</wgt>
  <wgt id="583">6.3876e-12</wgt>
  <wgt id="584">6.33386e-12</wgt>
  <wgt id="585">6.37063e-12</wgt>
  <wgt id="586">6.1855e-12</wgt>
  <wgt id="587">6.39725e-12</wgt>
  <wgt id="588">6.29046e-12</wgt>
  <wgt id="589">6.3956e-12</wgt>
  <wgt id="590">6.42194e-12</wgt>
  <wgt id="591">6.58402e-12</wgt>
  <wgt id="592">6.21641e-12</wgt>
  <wgt id="593">6.29923e-12</wgt>
  <wgt id="594">6.59866e-12</wgt>
  <wgt id="595">6.28649e-12</wgt>
  <wgt id="596">6.43193e-12</wgt>
  <wgt id="597">6.09888e-12</wgt>
  <wgt id="598">6.28733e-12</wgt>
  <wgt id="599">6.62388e-12</wgt>
  <wgt id="600">6.27579e-12</wgt>
  <wgt id="601">6.15221e-12</wgt>
  <wgt id="602">6.21883e-12</wgt>
  <wgt id="603">6.25535e-12</wgt>
  <wgt id="604">6.4098e-12</wgt>
  <wgt id="605">6.58538e-12</wgt>
  <wgt id="606">6.17933e-12</wgt>
  <wgt id="607">6.24569e-12</wgt>
  <wgt id="608">6.30185e-12</wgt>
  <wgt id="609">5.96333e-12</wgt>
  <wgt id="610">6.08843e-12</wgt>
  <wgt id="611">6.43782e-12</wgt>
  <wgt id="612">6.81002e-12</wgt>
  <wgt id="613">6.34391e-12</wgt>
  <wgt id="614">6.4032e-12</wgt>
  <wgt id="615">6.2098e-12</wgt>
  <wgt id="616">6.75258e-12</wgt>
  <wgt id="617">6.53131e-12</wgt>
  <wgt id="618">6.33493e-12</wgt>
  <wgt id="619">6.30631e-12</wgt>
  <wgt id="620">6.52344e-12</wgt>
  <wgt id="621">6.42013e-12</wgt>
  <wgt id="622">6.39725e-12</wgt>
  <wgt id="623">6.48564e-12</wgt>
  <wgt id="624">6.28672e-12</wgt>
  <wgt id="625">6.25859e-12</wgt>
  <wgt id="626">6.19891e-12</wgt>
  <wgt id="627">6.11614e-12</wgt>
  <wgt id="628">6.6404e-12</wgt>
  <wgt id="629">6.20553e-12</wgt>
  <wgt id="630">6.17718e-12</wgt>
  <wgt id="631">6.32734e-12</wgt>
  <wgt id="632">6.16063e-12</wgt>
  <wgt id="633">6.25267e-12</wgt>
  <wgt id="634">6.36935e-12</wgt>
  <wgt id="635">6.28677e-12</wgt>
  <wgt id="636">6.37254e-12</wgt>
  <wgt id="637">6.36436e-12</wgt>
  <wgt id="638">6.12322e-12</wgt>
  <wgt id="639">6.27014e-12</wgt>
  <wgt id="640">6.34941e-12</wgt>
  <wgt id="641">6.34211e-12</wgt>
  <wgt id="642">6.24386e-12</wgt>
  <wgt id="643">6.31406e-12</wgt>
  <wgt id="644">6.12481e-12</wgt>
  <wgt id="645">6.36292e-12</wgt>
  <wgt id="646">6.45858e-12</wgt>
  <wgt id="647">6.22468e-12</wgt>
  <wgt id="648">6.35801e-12</wgt>
  <wgt id="649">6.42259e-12</wgt>
  <wgt id="650">6.21817e-12</wgt>
  <wgt id="651">6.41056e-12</wgt>
  <wgt id="652">6.32789e-12</wgt>
  <wgt id="653">6.17223e-12</wgt>
  <wgt id="654">6.30311e-12</wgt>
  <wgt id="655">6.19365e-12</wgt>
  <wgt id="656">6.30793e-12</wgt>
  <wgt id="657">6.4639e-12</wgt>
  <wgt id="658">6.44576e-12</wgt>
  <wgt id="659">6.1081e-12</wgt>
  <wgt id="660">6.44608e-12</wgt>
  <wgt id="661">6.24536e-12</wgt>
  <wgt id="662">6.29925e-12</wgt>
  <wgt id="663">6.31085e-12</wgt>
  <wgt id="664">6.2311e-12</wgt>
  <wgt id="665">6.3093e-12</wgt>
  <wgt id="666">6.32293e-12</wgt>
  <wgt id="667">6.52889e-12</wgt>
  <wgt id="668">6.2963e-12</wgt>
  <wgt id="669">6.48755e-12</wgt>
  <wgt id="670">6.39848e-12</wgt>
  <wgt id="671">6.22503e-12</wgt>
  <wgt id="672">6.07013e-12</wgt>
  <wgt id="673">6.30497e-12</wgt>
  <wgt id="674">6.20101e-12</wgt>
  <wgt id="675">6.19277e-12</wgt>
  <wgt id="676">7.8428e-12</wgt>
  <wgt id="677">7.95576e-12</wgt>
  <wgt id="678">8.18996e-12</wgt>
  <wgt id="679">7.49687e-12</wgt>
  <wgt id="680">7.56458e-12</wgt>
  <wgt id="681">8.07329e-12</wgt>
  <wgt id="682">7.94109e-12</wgt>
  <wgt id="683">7.78584e-12</wgt>
  <wgt id="684">8.17009e-12</wgt>
  <wgt id="685">7.44909e-12</wgt>
  <wgt id="686">7.89467e-12</wgt>
  <wgt id="687">8.16763e-12</wgt>
  <wgt id="688">7.79169e-12</wgt>
  <wgt id="689">8.35709e-12</wgt>
  <wgt id="690">8.28002e-12</wgt>
  <wgt id="691">8.24002e-12</wgt>
  <wgt id="692">7.82624e-12</wgt>
  <wgt id="693">8.97335e-12</wgt>
  <wgt id="694">8.27263e-12</wgt>
  <wgt id="695">7.59085e-12</wgt>
  <wgt id="696">7.50058e-12</wgt>
  <wgt id="697">7.59489e-12</wgt>
  <wgt id="698">7.39416e-12</wgt>
  <wgt id="699">7.29603e-12</wgt>
  <wgt id="700">7.02395e-12</wgt>
  <wgt id="701">7.8546e-12</wgt>
  <wgt id="702">7.51593e-12</wgt>
  <wgt id="703">8.8325e-12</wgt>
  <wgt id="704">8.40264e-12</wgt>
  <wgt id="705">8.12802e-12</wgt>
  <wgt id="706">7.3479e-12</wgt>
  <wgt id="707">7.5562e-12</wgt>
  <wgt id="708">7.75168e-12</wgt>
  <wgt id="709">7.71631e-12</wgt>
  <wgt id="710">7.07521e-12</wgt>
  <wgt id="711">7.84144e-12</wgt>
  <wgt id="712">7.74657e-12</wgt>
  <wgt id="713">8.34256e-12</wgt>
  <wgt id="714">7.81936e-12</wgt>
  <wgt id="715">7.76383e-12</wgt>
  <wgt id="716">7.56963e-12</wgt>
  <wgt id="717">7.55115e-12</wgt>
  <wgt id="718">7.7052e-12</wgt>
  <wgt id="719">7.20753e-12</wgt>
  <wgt id="720">7.46315e-12</wgt>
  <wgt id="721">7.48225e-12</wgt>
  <wgt id="722">7.14234e-12</wgt>
  <wgt id="723">8.26077e-12</wgt>
  <wgt id="724">8.13473e-12</wgt>
  <wgt id="725">8.27827e-12</wgt>
  <wgt id="726">7.92781e-12</wgt>
  <wgt id="727">7.67062e-12</wgt>
  <wgt id="728">7.78216e-12</wgt>
  <wgt id="729">7.17187e-12</wgt>
  <wgt id="730">8.28673e-12</wgt>
  <wgt id="731">7.77012e-12</wgt>
  <wgt id="732">8.51718e-12</wgt>
  <wgt id="733">7.82849e-12</wgt>
  <wgt id="734">8.01726e-12</wgt>
  <wgt id="735">7.81124e-12</wgt>
  <wgt id="736">7.75102e-12</wgt>
  <wgt id="737">7.96751e-12</wgt>
  <wgt id="738">7.5741e-12</wgt>
  <wgt id="739">7.80558e-12</wgt>
  <wgt id="740">8.63616e-12</wgt>
  <wgt id="741">7.00666e-12</wgt>
  <wgt id="742">7.7349e-12</wgt>
  <wgt id="743">7.63385e-12</wgt>
  <wgt id="744">7.69075e-12</wgt>
  <wgt id="745">8.10999e-12</wgt>
  <wgt id="746">8.19829e-12</wgt>
  <wgt id="747">7.27467e-12</wgt>
  <wgt id="748">7.7158e-12</wgt>
  <wgt id="749">8.27408e-12</wgt>
  <wgt id="750">7.8002e-12</wgt>
  <wgt id="751">8.12036e-12</wgt>
  <wgt id="752">7.27643e-12</wgt>
  <wgt id="753">7.48521e-12</wgt>
  <wgt id="754">8.0315e-12</wgt>
  <wgt id="755">7.89351e-12</wgt>
  <wgt id="756">7.87519e-12</wgt>
  <wgt id="757">7.32488e-12</wgt>
  <wgt id="758">7.94183e-12</wgt>
  <wgt id="759">7.81722e-12</wgt>
  <wgt id="760">7.99001e-12</wgt>
  <wgt id="761">8.24835e-12</wgt>
  <wgt id="762">8.24003e-12</wgt>
  <wgt id="763">7.86997e-12</wgt>
  <wgt id="764">8.1027e-12</wgt>
  <wgt id="765">7.89106e-12</wgt>
  <wgt id="766">7.81183e-12</wgt>
  <wgt id="767">8.0065e-12</wgt>
  <wgt id="768">7.48039e-12</wgt>
  <wgt id="769">8.26898e-12</wgt>
  <wgt id="770">7.6544e-12</wgt>
  <wgt id="771">9.11029e-12</wgt>
  <wgt id="772">7.39458e-12</wgt>
  <wgt id="773">7.81829e-12</wgt>
  <wgt id="774">7.13146e-12</wgt>
  <wgt id="775">8.16997e-12</wgt>
  <wgt id="776">8.53211e-12</wgt>
  <wgt id="777">7.63786e-12</wgt>
  <wgt id="778">5.92776e-12</wgt>
  <wgt id="779">5.09837e-12</wgt>
  <wgt id="780">4.36901e-12</wgt>
  <wgt id="781">5.92904e-12</wgt>
  <wgt id="782">6.27091e-12</wgt>
  <wgt id="783">5.20483e-12</wgt>
  <wgt id="784">5.31385e-12</wgt>
  <wgt id="785">7.05291e-12</wgt>
  <wgt id="786">4.68194e-12</wgt>
  <wgt id="787">6.57684e-12</wgt>
  <wgt id="788">4.06027e-12</wgt>
  <wgt id="789">4.86285e-12</wgt>
  <wgt id="790">4.67579e-12</wgt>
  <wgt id="791">5.51588e-12</wgt>
  <wgt id="792">7.56197e-12</wgt>
  <wgt id="793">5.73449e-12</wgt>
  <wgt id="794">4.78153e-12</wgt>
  <wgt id="795">6.69025e-12</wgt>
  <wgt id="796">7.61695e-12</wgt>
  <wgt id="797">6.68024e-12</wgt>
  <wgt id="798">5.56107e-12</wgt>
  <wgt id="799">6.61271e-12</wgt>
  <wgt id="800">4.90223e-12</wgt>
  <wgt id="801">5.62484e-12</wgt>
  <wgt id="802">4.82818e-12</wgt>
  <wgt id="803">7.65063e-12</wgt>
  <wgt id="804">6.65147e-12</wgt>
  <wgt id="805">6.77292e-12</wgt>
  <wgt id="806">6.67899e-12</wgt>
  <wgt id="807">5.71376e-12</wgt>
  <wgt id="808">5.7997e-12</wgt>
  <wgt id="809">5.49664e-12</wgt>
  <wgt id="810">6.75071e-12</wgt>
  <wgt id="811">6.40222e-12</wgt>
  <wgt id="812">4.74816e-12</wgt>
  <wgt id="813">4.78845e-12</wgt>
  <wgt id="814">5.00995e-12</wgt>
  <wgt id="815">5.11933e-12</wgt>
  <wgt id="816">4.58635e-12</wgt>
  <wgt id="817">6.24068e-12</wgt>
  <wgt id="818">5.75303e-12</wgt>
  <wgt id="819">5.12613e-12</wgt>
  <wgt id="820">5.95139e-12</wgt>
  <wgt id="821">6.65127e-12</wgt>
  <wgt id="822">5.18313e-12</wgt>
  <wgt id="823">6.65896e-12</wgt>
  <wgt id="824">7.79262e-12</wgt>
  <wgt id="825">4.60581e-12</wgt>
  <wgt id="826">6.11268e-12</wgt>
  <wgt id="827">3.91339e-12</wgt>
  <wgt id="828">7.5573e-12</wgt>
  <wgt id="829">6.08695e-12</wgt>
  <wgt id="830">4.38703e-12</wgt>
  <wgt id="831">6.28398e-12</wgt>
  <wgt id="832">9.34524e-12</wgt>
  <wgt id="833">5.65437e-12</wgt>
  <wgt id="834">8.78065e-12</wgt>
  <wgt id="835">4.90951e-12</wgt>
  <wgt id="836">5.97096e-12</wgt>
  <wgt id="837">6.57236e-12</wgt>
  <wgt id="838">5.69124e-12</wgt>
  <wgt id="839">6.26177e-12</wgt>
  <wgt id="840">5.65831e-12</wgt>
  <wgt id="841">7.01489e-12</wgt>
  <wgt id="842">5.49069e-12</wgt>
  <wgt id="843">5.75058e-12</wgt>
  <wgt id="844">6.10228e-12</wgt>
  <wgt id="845">7.92397e-12</wgt>
  <wgt id="846">5.51474e-12</wgt>
  <wgt id="847">5.84514e-12</wgt>
  <wgt id="848">5.31944e-12</wgt>
  <wgt id="849">6.0464e-12</wgt>
  <wgt id="850">7.42134e-12</wgt>
  <wgt id="851">6.42089e-12</wgt>
  <wgt id="852">5.24014e-12</wgt>
  <wgt id="853">6.37954e-12</wgt>
  <wgt id="854">7.03853e-12</wgt>
  <wgt id="855">6.65286e-12</wgt>
  <wgt id="856">4.49313e-12</wgt>
  <wgt id="857">6.00065e-12</wgt>
  <wgt id="858">5.8672e-12</wgt>
  <wgt id="859">5.55358e-12</wgt>
  <wgt id="860">6.19345e-12</wgt>
  <wgt id="861">5.39025e-12</wgt>
  <wgt id="862">6.00655e-12</wgt>
  <wgt id="863">6.16328e-12</wgt>
  <wgt id="864">6.19277e-12</wgt>
  <wgt id="865">8.12254e-12</wgt>
  <wgt id="866">8.88498e-12</wgt>
  <wgt id="867">5.94743e-12</wgt>
  <wgt id="868">5.81009e-12</wgt>
  <wgt id="869">4.78374e-12</wgt>
  <wgt id="870">5.02811e-12</wgt>
  <wgt id="871">4.89609e-12</wgt>
  <wgt id="872">6.82423e-12</wgt>
  <wgt id="873">5.0089e-12</wgt>
  <wgt id="874">6.14901e-12</wgt>
  <wgt id="875">5.21539e-12</wgt>
  <wgt id="876">6.8292e-12</wgt>
  <wgt id="877">6.61465e-12</wgt>
  <wgt id="878">5.27021e-12</wgt>
  <wgt id="879">7.8428e-12</wgt>
  <wgt id="880">7.95576e-12</wgt>
  <wgt id="881">8.18996e-12</wgt>
  <wgt id="882">7.49687e-12</wgt>
  <wgt id="883">7.56458e-12</wgt>
  <wgt id="884">8.07329e-12</wgt>
  <wgt id="885">7.94109e-12</wgt>
  <wgt id="886">7.78584e-12</wgt>
  <wgt id="887">8.17009e-12</wgt>
  <wgt id="888">7.44909e-12</wgt>
  <wgt id="889">7.89467e-12</wgt>
  <wgt id="890">8.16763e-12</wgt>
  <wgt id="891">7.79169e-12</wgt>
  <wgt id="892">8.35709e-12</wgt>
  <wgt id="893">8.28002e-12</wgt>
  <wgt id="894">8.24002e-12</wgt>
  <wgt id="895">7.82624e-12</wgt>
  <wgt id="896">8.97335e-12</wgt>
  <wgt id="897">8.27263e-12</wgt>
  <wgt id="898">7.59085e-12</wgt>
  <wgt id="899">7.50058e-12</wgt>
  <wgt id="900">7.59489e-12</wgt>
  <wgt id="901">7.39416e-12</wgt>
  <wgt id="902">7.29603e-12</wgt>
  <wgt id="903">7.02395e-12</wgt>
  <wgt id="904">7.8546e-12</wgt>
  <wgt id="905">7.51593e-12</wgt>
  <wgt id="906">8.8325e-12</wgt>
  <wgt id="907">8.40264e-12</wgt>
  <wgt id="908">8.12802e-12</wgt>
  <wgt id="909">7.3479e-12</wgt>
  <wgt id="910">7.5562e-12</wgt>
  <wgt id="911">7.75168e-12</wgt>
  <wgt id="912">7.71631e-12</wgt>
  <wgt id="913">7.07521e-12</wgt>
  <wgt id="914">7.84144e-12</wgt>
  <wgt id="915">7.74657e-12</wgt>
  <wgt id="916">8.34256e-12</wgt>
  <wgt id="917">7.81936e-12</wgt>
  <wgt id="918">7.76383e-12</wgt>
  <wgt id="919">7.56963e-12</wgt>
  <wgt id="920">7.55115e-12</wgt>
  <wgt id="921">7.7052e-12</wgt>
  <wgt id="922">7.20753e-12</wgt>
  <wgt id="923">7.46315e-12</wgt>
  <wgt id="924">7.48225e-12</wgt>
  <wgt id="925">7.14234e-12</wgt>
  <wgt id="926">8.26077e-12</wgt>
  <wgt id="927">8.13473e-12</wgt>
  <wgt id="928">8.27827e-12</wgt>
  <wgt id="929">7.92781e-12</wgt>
  <wgt id="930">7.67062e-12</wgt>
  <wgt id="931">7.78216e-12</wgt>
  <wgt id="932">7.17187e-12</wgt>
  <wgt id="933">8.28673e-12</wgt>
  <wgt id="934">7.77012e-12</wgt>
  <wgt id="935">8.51718e-12</wgt>
  <wgt id="936">7.82849e-12</wgt>
  <wgt id="937">8.01726e-12</wgt>
  <wgt id="938">7.81124e-12</wgt>
  <wgt id="939">7.75102e-12</wgt>
  <wgt id="940">7.96751e-12</wgt>
  <wgt id="941">7.5741e-12</wgt>
  <wgt id="942">7.80558e-12</wgt>
  <wgt id="943">8.63616e-12</wgt>
  <wgt id="944">7.00666e-12</wgt>
  <wgt id="945">7.7349e-12</wgt>
  <wgt id="946">7.63385e-12</wgt>
  <wgt id="947">7.69075e-12</wgt>
  <wgt id="948">8.10999e-12</wgt>
  <wgt id="949">8.19829e-12</wgt>
  <wgt id="950">7.27467e-12</wgt>
  <wgt id="951">7.7158e-12</wgt>
  <wgt id="952">8.27408e-12</wgt>
  <wgt id="953">7.8002e-12</wgt>
  <wgt id="954">8.12036e-12</wgt>
  <wgt id="955">7.27643e-12</wgt>
  <wgt id="956">7.48521e-12</wgt>
  <wgt id="957">8.0315e-12</wgt>
  <wgt id="958">7.89351e-12</wgt>
  <wgt id="959">7.87519e-12</wgt>
  <wgt id="960">7.32488e-12</wgt>
  <wgt id="961">7.94183e-12</wgt>
  <wgt id="962">7.81722e-12</wgt>
  <wgt id="963">7.99001e-12</wgt>
  <wgt id="964">8.24835e-12</wgt>
  <wgt id="965">8.24003e-12</wgt>
  <wgt id="966">7.86997e-12</wgt>
  <wgt id="967">8.1027e-12</wgt>
  <wgt id="968">7.89106e-12</wgt>
  <wgt id="969">7.81183e-12</wgt>
  <wgt id="970">8.0065e-12</wgt>
  <wgt id="971">7.48039e-12</wgt>
  <wgt id="972">8.26898e-12</wgt>
  <wgt id="973">7.6544e-12</wgt>
  <wgt id="974">9.11029e-12</wgt>
  <wgt id="975">7.39458e-12</wgt>
  <wgt id="976">7.81829e-12</wgt>
  <wgt id="977">7.13146e-12</wgt>
  <wgt id="978">8.16997e-12</wgt>
  <wgt id="979">8.53211e-12</wgt>
  <wgt id="980">7.86048e-12</wgt>
  <wgt id="981">7.86378e-12</wgt>
  <wgt id="982">7.62844e-12</wgt>
</rwgt>
</event>
<event>
 5   1  0.5790000E-11  0.2234280E+04  0.7818608E-02  0.7736079E-01
       21   -1    0    0  502  501  0.00000000000E+00  0.00000000000E+00  0.27456202792E+04  0.27456202792E+04  0.00000000000E+00 0. -1.
       21   -1    0    0  501  502 -0.00000000000E+00 -0.00000000000E+00 -0.45454259729E+03  0.45454259729E+03  0.00000000000E+00 0.  1.
       39    2    1    2    0    0  0.00000000000E+00  0.00000000000E+00  0.22910776819E+04  0.32001628765E+04  0.22342796359E+04 0.  0.
       25    1    3    3    0    0  0.68579633321E+03 -0.58262442571E+03  0.20766546288E+04  0.22666908213E+04  0.12500000000E+03 0.  0.
       25    1    3    3    0    0 -0.68579633321E+03  0.58262442571E+03  0.21442305310E+03  0.93347205517E+03  0.12500000000E+03 0.  0.
<mgrwt>
<rscale>  0 0.22342796E+04</rscale>
<asrwt>0</asrwt>
<pdfrwt beam="1">  1       21 0.42240311E+00 0.22342796E+04</pdfrwt>
<pdfrwt beam="2">  1       21 0.69929632E-01 0.22342796E+04</pdfrwt>
<totfact> 0.40495053E+00</totfact>
</mgrwt>
<rwgt>
  <wgt id="1">5.79e-12</wgt>
  <wgt id="2">4.93172e-12</wgt>
  <wgt id="3">6.88618e-12</wgt>
  <wgt id="4">5.79e-12</wgt>
  <wgt id="5">4.93172e-12</wgt>
  <wgt id="6">6.88618e-12</wgt>
  <wgt id="7">5.79e-12</wgt>
  <wgt id="8">4.93172e-12</wgt>
  <wgt id="9">6.88618e-12</wgt>
  <wgt id="10">6.21393e-12</wgt>
  <wgt id="11">6.2226e-12</wgt>
  <wgt id="12">6.19064e-12</wgt>
  <wgt id="13">6.2137e-12</wgt>
  <wgt id="14">6.20772e-12</wgt>
  <wgt id="15">6.21493e-12</wgt>
  <wgt id="16">6.17443e-12</wgt>
  <wgt id="17">6.27194e-12</wgt>
  <wgt id="18">6.21387e-12</wgt>
  <wgt id="19">6.25124e-12</wgt>
  <wgt id="20">6.23005e-12</wgt>
  <wgt id="21">6.1352e-12</wgt>
  <wgt id="22">6.15195e-12</wgt>
  <wgt id="23">6.09795e-12</wgt>
  <wgt id="24">6.16163e-12</wgt>
  <wgt id="25">6.20519e-12</wgt>
  <wgt id="26">6.22845e-12</wgt>
  <wgt id="27">6.20208e-12</wgt>
  <wgt id="28">6.17463e-12</wgt>
  <wgt id="29">6.2128e-12</wgt>
  <wgt id="30">6.14989e-12</wgt>
  <wgt id="31">6.2376e-12</wgt>
  <wgt id="32">6.13311e-12</wgt>
  <wgt id="33">6.21787e-12</wgt>
  <wgt id="34">6.15135e-12</wgt>
  <wgt id="35">6.13483e-12</wgt>
  <wgt id="36">6.25075e-12</wgt>
  <wgt id="37">6.19547e-12</wgt>
  <wgt id="38">6.1746e-12</wgt>
  <wgt id="39">6.36597e-12</wgt>
  <wgt id="40">6.24076e-12</wgt>
  <wgt id="41">6.20312e-12</wgt>
  <wgt id="42">6.21672e-12</wgt>
  <wgt id="43">6.22598e-12</wgt>
  <wgt id="44">6.2709e-12</wgt>
  <wgt id="45">6.23231e-12</wgt>
  <wgt id="46">6.1551e-12</wgt>
  <wgt id="47">6.35261e-12</wgt>
  <wgt id="48">6.30643e-12</wgt>
  <wgt id="49">6.19072e-12</wgt>
  <wgt id="50">6.1186e-12</wgt>
  <wgt id="51">6.14914e-12</wgt>
  <wgt id="52">6.22242e-12</wgt>
  <wgt id="53">6.40861e-12</wgt>
  <wgt id="54">6.27821e-12</wgt>
  <wgt id="55">6.18139e-12</wgt>
  <wgt id="56">6.05444e-12</wgt>
  <wgt id="57">6.0878e-12</wgt>
  <wgt id="58">6.2123e-12</wgt>
  <wgt id="59">6.2569e-12</wgt>
  <wgt id="60">6.08091e-12</wgt>
  <wgt id="61">6.24573e-12</wgt>
  <wgt id="62">6.28349e-12</wgt>
  <wgt id="63">6.19257e-12</wgt>
  <wgt id="64">6.202e-12</wgt>
  <wgt id="65">6.15606e-12</wgt>
  <wgt id="66">6.29357e-12</wgt>
  <wgt id="67">6.32565e-12</wgt>
  <wgt id="68">6.21331e-12</wgt>
  <wgt id="69">6.20702e-12</wgt>
  <wgt id="70">6.12506e-12</wgt>
  <wgt id="71">6.28754e-12</wgt>
  <wgt id="72">6.2884e-12</wgt>
  <wgt id="73">6.14822e-12</wgt>
  <wgt id="74">6.27546e-12</wgt>
  <wgt id="75">6.08313e-12</wgt>
  <wgt id="76">6.25978e-12</wgt>
  <wgt id="77">6.18658e-12</wgt>
  <wgt id="78">6.20325e-12</wgt>
  <wgt id="79">6.22201e-12</wgt>
  <wgt id="80">6.17832e-12</wgt>
  <wgt id="81">6.1991e-12</wgt>
  <wgt id="82">6.21283e-12</wgt>
  <wgt id="83">6.15137e-12</wgt>
  <wgt id="84">6.1514e-12</wgt>
  <wgt id="85">6.14235e-12</wgt>
  <wgt id="86">6.30596e-12</wgt>
  <wgt id="87">6.09253e-12</wgt>
  <wgt id="88">6.24294e-12</wgt>
  <wgt id="89">6.24008e-12</wgt>
  <wgt id="90">6.27617e-12</wgt>
  <wgt id="91">6.21552e-12</wgt>
  <wgt id="92">6.25018e-12</wgt>
  <wgt id="93">6.23182e-12</wgt>
  <wgt id="94">6.16564e-12</wgt>
  <wgt id="95">6.2802e-12</wgt>
  <wgt id="96">6.27264e-12</wgt>
  <wgt id="97">6.13873e-12</wgt>
  <wgt id="98">6.21646e-12</wgt>
  <wgt id="99">6.18909e-12</wgt>
  <wgt id="100">6.23873e-12</wgt>
  <wgt id="101">6.18121e-12</wgt>
  <wgt id="102">6.19664e-12</wgt>
  <wgt id="103">6.26703e-12</wgt>
  <wgt id="104">6.20592e-12</wgt>
  <wgt id="105">6.27325e-12</wgt>
  <wgt id="106">6.16318e-12</wgt>
  <wgt id="107">6.30593e-12</wgt>
  <wgt id="108">6.18708e-12</wgt>
  <wgt id="109">6.20898e-12</wgt>
  <wgt id="110">6.21485e-12</wgt>
  <wgt id="111">6.10672e-12</wgt>
  <wgt id="112">6.35737e-12</wgt>
  <wgt id="113">9.87465e-12</wgt>
  <wgt id="114">7.78027e-12</wgt>
  <wgt id="115">7.6236e-12</wgt>
  <wgt id="116">1.03422e-11</wgt>
  <wgt id="117">6.8016e-12</wgt>
  <wgt id="118">6.82845e-12</wgt>
  <wgt id="119">6.78674e-12</wgt>
  <wgt id="120">6.8014e-12</wgt>
  <wgt id="121">6.80171e-12</wgt>
  <wgt id="122">6.79251e-12</wgt>
  <wgt id="123">6.81509e-12</wgt>
  <wgt id="124">6.79355e-12</wgt>
  <wgt id="125">6.80701e-12</wgt>
  <wgt id="126">6.80788e-12</wgt>
  <wgt id="127">6.79776e-12</wgt>
  <wgt id="128">6.82187e-12</wgt>
  <wgt id="129">6.7819e-12</wgt>
  <wgt id="130">6.82677e-12</wgt>
  <wgt id="131">6.77553e-12</wgt>
  <wgt id="132">6.59731e-12</wgt>
  <wgt id="133">7.04694e-12</wgt>
  <wgt id="134">6.73102e-12</wgt>
  <wgt id="135">6.85712e-12</wgt>
  <wgt id="136">6.93029e-12</wgt>
  <wgt id="137">6.64797e-12</wgt>
  <wgt id="138">7.17726e-12</wgt>
  <wgt id="139">6.45356e-12</wgt>
  <wgt id="140">6.78753e-12</wgt>
  <wgt id="141">6.81083e-12</wgt>
  <wgt id="142">6.79742e-12</wgt>
  <wgt id="143">6.8347e-12</wgt>
  <wgt id="144">6.39996e-12</wgt>
  <wgt id="145">7.21448e-12</wgt>
  <wgt id="146">6.9401e-12</wgt>
  <wgt id="147">6.686e-12</wgt>
  <wgt id="148">6.82885e-12</wgt>
  <wgt id="149">6.79976e-12</wgt>
  <wgt id="150">6.85602e-12</wgt>
  <wgt id="151">6.77598e-12</wgt>
  <wgt id="152">6.80094e-12</wgt>
  <wgt id="153">6.80188e-12</wgt>
  <wgt id="154">6.76209e-12</wgt>
  <wgt id="155">6.81935e-12</wgt>
  <wgt id="156">7.17272e-12</wgt>
  <wgt id="157">6.49689e-12</wgt>
  <wgt id="158">8.07131e-12</wgt>
  <wgt id="159">8.1065e-12</wgt>
  <wgt id="160">8.04241e-12</wgt>
  <wgt id="161">8.0505e-12</wgt>
  <wgt id="162">8.09439e-12</wgt>
  <wgt id="163">8.06185e-12</wgt>
  <wgt id="164">8.08525e-12</wgt>
  <wgt id="165">8.07398e-12</wgt>
  <wgt id="166">8.06923e-12</wgt>
  <wgt id="167">8.06629e-12</wgt>
  <wgt id="168">8.07849e-12</wgt>
  <wgt id="169">8.03984e-12</wgt>
  <wgt id="170">8.09065e-12</wgt>
  <wgt id="171">8.06947e-12</wgt>
  <wgt id="172">8.07402e-12</wgt>
  <wgt id="173">8.03861e-12</wgt>
  <wgt id="174">8.08291e-12</wgt>
  <wgt id="175">7.82468e-12</wgt>
  <wgt id="176">8.3959e-12</wgt>
  <wgt id="177">8.09676e-12</wgt>
  <wgt id="178">8.04892e-12</wgt>
  <wgt id="179">8.58721e-12</wgt>
  <wgt id="180">7.30073e-12</wgt>
  <wgt id="181">7.75401e-12</wgt>
  <wgt id="182">8.28587e-12</wgt>
  <wgt id="183">7.87892e-12</wgt>
  <wgt id="184">8.16706e-12</wgt>
  <wgt id="185">7.95404e-12</wgt>
  <wgt id="186">8.21186e-12</wgt>
  <wgt id="187">7.95162e-12</wgt>
  <wgt id="188">8.27848e-12</wgt>
  <wgt id="189">7.9939e-12</wgt>
  <wgt id="190">8.1027e-12</wgt>
  <wgt id="191">8.10973e-12</wgt>
  <wgt id="192">8.04789e-12</wgt>
  <wgt id="193">8.23372e-12</wgt>
  <wgt id="194">7.98822e-12</wgt>
  <wgt id="195">7.65005e-12</wgt>
  <wgt id="196">8.73222e-12</wgt>
  <wgt id="197">8.11613e-12</wgt>
  <wgt id="198">8.0601e-12</wgt>
  <wgt id="199">8.07131e-12</wgt>
  <wgt id="200">8.16106e-12</wgt>
  <wgt id="201">8.13358e-12</wgt>
  <wgt id="202">8.10491e-12</wgt>
  <wgt id="203">8.06909e-12</wgt>
  <wgt id="204">8.04845e-12</wgt>
  <wgt id="205">8.03217e-12</wgt>
  <wgt id="206">7.99359e-12</wgt>
  <wgt id="207">8.04239e-12</wgt>
  <wgt id="208">7.94403e-12</wgt>
  <wgt id="209">8.01562e-12</wgt>
  <wgt id="210">7.97653e-12</wgt>
  <wgt id="211">7.99077e-12</wgt>
  <wgt id="212">7.99508e-12</wgt>
  <wgt id="213">7.99229e-12</wgt>
  <wgt id="214">7.99357e-12</wgt>
  <wgt id="215">7.99911e-12</wgt>
  <wgt id="216">7.989e-12</wgt>
  <wgt id="217">8.0051e-12</wgt>
  <wgt id="218">7.98364e-12</wgt>
  <wgt id="219">7.98044e-12</wgt>
  <wgt id="220">8.00122e-12</wgt>
  <wgt id="221">8.00382e-12</wgt>
  <wgt id="222">7.96356e-12</wgt>
  <wgt id="223">7.48104e-12</wgt>
  <wgt id="224">8.46608e-12</wgt>
  <wgt id="225">7.89123e-12</wgt>
  <wgt id="226">8.12403e-12</wgt>
  <wgt id="227">7.91374e-12</wgt>
  <wgt id="228">8.02809e-12</wgt>
  <wgt id="229">7.86968e-12</wgt>
  <wgt id="230">8.05438e-12</wgt>
  <wgt id="231">8.33099e-12</wgt>
  <wgt id="232">7.71924e-12</wgt>
  <wgt id="233">7.92307e-12</wgt>
  <wgt id="234">8.11353e-12</wgt>
  <wgt id="235">7.42611e-12</wgt>
  <wgt id="236">8.4459e-12</wgt>
  <wgt id="237">7.6834e-12</wgt>
  <wgt id="238">8.09645e-12</wgt>
  <wgt id="239">7.87221e-12</wgt>
  <wgt id="240">8.21074e-12</wgt>
  <wgt id="241">7.87027e-12</wgt>
  <wgt id="242">8.13427e-12</wgt>
  <wgt id="243">8.19769e-12</wgt>
  <wgt id="244">7.94183e-12</wgt>
  <wgt id="245">7.99389e-12</wgt>
  <wgt id="246">8.01683e-12</wgt>
  <wgt id="247">7.99359e-12</wgt>
  <wgt id="248">8.09976e-12</wgt>
  <wgt id="249">8.06621e-12</wgt>
  <wgt id="250">8.02432e-12</wgt>
  <wgt id="251">7.97736e-12</wgt>
  <wgt id="252">7.94922e-12</wgt>
  <wgt id="253">7.93173e-12</wgt>
  <wgt id="254">7.56072e-12</wgt>
  <wgt id="255">7.56664e-12</wgt>
  <wgt id="256">7.55387e-12</wgt>
  <wgt id="257">7.56649e-12</wgt>
  <wgt id="258">7.55579e-12</wgt>
  <wgt id="259">7.6118e-12</wgt>
  <wgt id="260">7.51149e-12</wgt>
  <wgt id="261">7.57318e-12</wgt>
  <wgt id="262">7.54541e-12</wgt>
  <wgt id="263">7.55311e-12</wgt>
  <wgt id="264">7.56958e-12</wgt>
  <wgt id="265">7.55119e-12</wgt>
  <wgt id="266">7.57874e-12</wgt>
  <wgt id="267">7.56319e-12</wgt>
  <wgt id="268">7.55766e-12</wgt>
  <wgt id="269">7.582e-12</wgt>
  <wgt id="270">7.54592e-12</wgt>
  <wgt id="271">7.52899e-12</wgt>
  <wgt id="272">7.59606e-12</wgt>
  <wgt id="273">7.5441e-12</wgt>
  <wgt id="274">7.5729e-12</wgt>
  <wgt id="275">7.49469e-12</wgt>
  <wgt id="276">7.62885e-12</wgt>
  <wgt id="277">7.52109e-12</wgt>
  <wgt id="278">7.59669e-12</wgt>
  <wgt id="279">7.42091e-12</wgt>
  <wgt id="280">7.73736e-12</wgt>
  <wgt id="281">7.51195e-12</wgt>
  <wgt id="282">7.59689e-12</wgt>
  <wgt id="283">7.26279e-12</wgt>
  <wgt id="284">7.94006e-12</wgt>
  <wgt id="285">7.07163e-12</wgt>
  <wgt id="286">7.98675e-12</wgt>
  <wgt id="287">7.59187e-12</wgt>
  <wgt id="288">7.52114e-12</wgt>
  <wgt id="289">7.63351e-12</wgt>
  <wgt id="290">7.40709e-12</wgt>
  <wgt id="291">7.52538e-12</wgt>
  <wgt id="292">7.54752e-12</wgt>
  <wgt id="293">7.48086e-12</wgt>
  <wgt id="294">7.64046e-12</wgt>
  <wgt id="295">7.36666e-12</wgt>
  <wgt id="296">7.79851e-12</wgt>
  <wgt id="297">7.51203e-12</wgt>
  <wgt id="298">7.61394e-12</wgt>
  <wgt id="299">7.53204e-12</wgt>
  <wgt id="300">7.63644e-12</wgt>
  <wgt id="301">7.32566e-12</wgt>
  <wgt id="302">8.07147e-12</wgt>
  <wgt id="303">7.43322e-12</wgt>
  <wgt id="304">7.63093e-12</wgt>
  <wgt id="305">7.35772e-12</wgt>
  <wgt id="306">7.36388e-12</wgt>
  <wgt id="307">7.35144e-12</wgt>
  <wgt id="308">7.36454e-12</wgt>
  <wgt id="309">7.35378e-12</wgt>
  <wgt id="310">7.40827e-12</wgt>
  <wgt id="311">7.31128e-12</wgt>
  <wgt id="312">7.37111e-12</wgt>
  <wgt id="313">7.34376e-12</wgt>
  <wgt id="314">7.34925e-12</wgt>
  <wgt id="315">7.3667e-12</wgt>
  <wgt id="316">7.34814e-12</wgt>
  <wgt id="317">7.37923e-12</wgt>
  <wgt id="318">7.3635e-12</wgt>
  <wgt id="319">7.34868e-12</wgt>
  <wgt id="320">7.38124e-12</wgt>
  <wgt id="321">7.34523e-12</wgt>
  <wgt id="322">7.32722e-12</wgt>
  <wgt id="323">7.39455e-12</wgt>
  <wgt id="324">7.34962e-12</wgt>
  <wgt id="325">7.36537e-12</wgt>
  <wgt id="326">7.30314e-12</wgt>
  <wgt id="327">7.42894e-12</wgt>
  <wgt id="328">7.32733e-12</wgt>
  <wgt id="329">7.37418e-12</wgt>
  <wgt id="330">7.56394e-12</wgt>
  <wgt id="331">7.16339e-12</wgt>
  <wgt id="332">7.31725e-12</wgt>
  <wgt id="333">7.38398e-12</wgt>
  <wgt id="334">7.14197e-12</wgt>
  <wgt id="335">7.63339e-12</wgt>
  <wgt id="336">7.02529e-12</wgt>
  <wgt id="337">7.78147e-12</wgt>
  <wgt id="338">7.46304e-12</wgt>
  <wgt id="339">7.26289e-12</wgt>
  <wgt id="340">7.41923e-12</wgt>
  <wgt id="341">7.21366e-12</wgt>
  <wgt id="342">7.33625e-12</wgt>
  <wgt id="343">7.32444e-12</wgt>
  <wgt id="344">7.29192e-12</wgt>
  <wgt id="345">7.4351e-12</wgt>
  <wgt id="346">7.16665e-12</wgt>
  <wgt id="347">7.57546e-12</wgt>
  <wgt id="348">7.30895e-12</wgt>
  <wgt id="349">7.40876e-12</wgt>
  <wgt id="350">7.32412e-12</wgt>
  <wgt id="351">7.44491e-12</wgt>
  <wgt id="352">7.1365e-12</wgt>
  <wgt id="353">7.81861e-12</wgt>
  <wgt id="354">7.19055e-12</wgt>
  <wgt id="355">7.45501e-12</wgt>
  <wgt id="356">7.56072e-12</wgt>
  <wgt id="357">7.32799e-12</wgt>
  <wgt id="358">7.35772e-12</wgt>
  <wgt id="359">7.51515e-12</wgt>
  <wgt id="360">7.81862e-12</wgt>
  <wgt id="361">7.62302e-12</wgt>
  <wgt id="362">7.81252e-12</wgt>
  <wgt id="363">7.78954e-12</wgt>
  <wgt id="364">7.73242e-12</wgt>
  <wgt id="365">7.69672e-12</wgt>
  <wgt id="366">7.66387e-12</wgt>
  <wgt id="367">7.60732e-12</wgt>
  <wgt id="368">7.56406e-12</wgt>
  <wgt id="369">7.51791e-12</wgt>
  <wgt id="370">7.62302e-12</wgt>
  <wgt id="371">7.65057e-12</wgt>
  <wgt id="372">7.63466e-12</wgt>
  <wgt id="373">7.61455e-12</wgt>
  <wgt id="374">7.64105e-12</wgt>
  <wgt id="375">9.80431e-12</wgt>
  <wgt id="376">9.80441e-12</wgt>
  <wgt id="377">9.80482e-12</wgt>
  <wgt id="378">9.84546e-12</wgt>
  <wgt id="379">9.76408e-12</wgt>
  <wgt id="380">9.83511e-12</wgt>
  <wgt id="381">9.79214e-12</wgt>
  <wgt id="382">9.84066e-12</wgt>
  <wgt id="383">9.76938e-12</wgt>
  <wgt id="384">9.81122e-12</wgt>
  <wgt id="385">9.79827e-12</wgt>
  <wgt id="386">9.82134e-12</wgt>
  <wgt id="387">9.79757e-12</wgt>
  <wgt id="388">9.79798e-12</wgt>
  <wgt id="389">9.81267e-12</wgt>
  <wgt id="390">9.81921e-12</wgt>
  <wgt id="391">9.78922e-12</wgt>
  <wgt id="392">9.70241e-12</wgt>
  <wgt id="393">9.86248e-12</wgt>
  <wgt id="394">9.80239e-12</wgt>
  <wgt id="395">9.80778e-12</wgt>
  <wgt id="396">9.83201e-12</wgt>
  <wgt id="397">9.7853e-12</wgt>
  <wgt id="398">9.81517e-12</wgt>
  <wgt id="399">9.79445e-12</wgt>
  <wgt id="400">9.78818e-12</wgt>
  <wgt id="401">9.84148e-12</wgt>
  <wgt id="402">9.68333e-12</wgt>
  <wgt id="403">9.91146e-12</wgt>
  <wgt id="404">1.01956e-11</wgt>
  <wgt id="405">8.89404e-12</wgt>
  <wgt id="406">9.52124e-12</wgt>
  <wgt id="407">1.04488e-11</wgt>
  <wgt id="408">9.95269e-12</wgt>
  <wgt id="409">9.53803e-12</wgt>
  <wgt id="410">9.35294e-12</wgt>
  <wgt id="411">1.00295e-11</wgt>
  <wgt id="412">9.77442e-12</wgt>
  <wgt id="413">9.84626e-12</wgt>
  <wgt id="414">9.6271e-12</wgt>
  <wgt id="415">9.94228e-12</wgt>
  <wgt id="416">1.02846e-11</wgt>
  <wgt id="417">9.15735e-12</wgt>
  <wgt id="418">9.83517e-12</wgt>
  <wgt id="419">9.63985e-12</wgt>
  <wgt id="420">1.02165e-11</wgt>
  <wgt id="421">9.51296e-12</wgt>
  <wgt id="422">9.66215e-12</wgt>
  <wgt id="423">9.86757e-12</wgt>
  <wgt id="424">1.0279e-11</wgt>
  <wgt id="425">9.47044e-12</wgt>
  <wgt id="426">9.80431e-12</wgt>
  <wgt id="427">9.41729e-12</wgt>
  <wgt id="428">1.06036e-11</wgt>
  <wgt id="429">1.00211e-11</wgt>
  <wgt id="430">1.0468e-11</wgt>
  <wgt id="431">1.0372e-11</wgt>
  <wgt id="432">1.0292e-11</wgt>
  <wgt id="433">1.02125e-11</wgt>
  <wgt id="434">1.01051e-11</wgt>
  <wgt id="435">9.91708e-12</wgt>
  <wgt id="436">9.8256e-12</wgt>
  <wgt id="437">9.73189e-12</wgt>
  <wgt id="438">1.00211e-11</wgt>
  <wgt id="439">1.00479e-11</wgt>
  <wgt id="440">1.00291e-11</wgt>
  <wgt id="441">1.0017e-11</wgt>
  <wgt id="442">1.00147e-11</wgt>
  <wgt id="443">7.84738e-12</wgt>
  <wgt id="444">7.98176e-12</wgt>
  <wgt id="445">8.06547e-12</wgt>
  <wgt id="446">7.79851e-12</wgt>
  <wgt id="447">7.83922e-12</wgt>
  <wgt id="448">7.69011e-12</wgt>
  <wgt id="449">8.11089e-12</wgt>
  <wgt id="450">8.06445e-12</wgt>
  <wgt id="451">7.82216e-12</wgt>
  <wgt id="452">8.00493e-12</wgt>
  <wgt id="453">8.04904e-12</wgt>
  <wgt id="454">7.31174e-12</wgt>
  <wgt id="455">7.98736e-12</wgt>
  <wgt id="456">8.13985e-12</wgt>
  <wgt id="457">7.86844e-12</wgt>
  <wgt id="458">8.03648e-12</wgt>
  <wgt id="459">7.92049e-12</wgt>
  <wgt id="460">8.16052e-12</wgt>
  <wgt id="461">7.59811e-12</wgt>
  <wgt id="462">7.78487e-12</wgt>
  <wgt id="463">7.67992e-12</wgt>
  <wgt id="464">7.82182e-12</wgt>
  <wgt id="465">7.92434e-12</wgt>
  <wgt id="466">7.48146e-12</wgt>
  <wgt id="467">7.81105e-12</wgt>
  <wgt id="468">7.87752e-12</wgt>
  <wgt id="469">7.81271e-12</wgt>
  <wgt id="470">7.65659e-12</wgt>
  <wgt id="471">7.6943e-12</wgt>
  <wgt id="472">7.92606e-12</wgt>
  <wgt id="473">7.54552e-12</wgt>
  <wgt id="474">5.79e-12</wgt>
  <wgt id="475">5.90412e-12</wgt>
  <wgt id="476">5.99142e-12</wgt>
  <wgt id="477">6.29368e-12</wgt>
  <wgt id="478">6.20706e-12</wgt>
  <wgt id="479">5.00481e-12</wgt>
  <wgt id="480">6.37687e-12</wgt>
  <wgt id="481">5.94838e-12</wgt>
  <wgt id="482">6.31154e-12</wgt>
  <wgt id="483">6.57003e-12</wgt>
  <wgt id="484">6.29005e-12</wgt>
  <wgt id="485">5.1213e-12</wgt>
  <wgt id="486">6.13335e-12</wgt>
  <wgt id="487">5.38222e-12</wgt>
  <wgt id="488">5.48398e-12</wgt>
  <wgt id="489">4.49445e-12</wgt>
  <wgt id="490">5.9759e-12</wgt>
  <wgt id="491">5.66122e-12</wgt>
  <wgt id="492">5.71953e-12</wgt>
  <wgt id="493">4.76627e-12</wgt>
  <wgt id="494">4.72179e-12</wgt>
  <wgt id="495">6.17929e-12</wgt>
  <wgt id="496">4.97338e-12</wgt>
  <wgt id="497">5.26171e-12</wgt>
  <wgt id="498">5.8932e-12</wgt>
  <wgt id="499">6.00756e-12</wgt>
  <wgt id="500">6.25694e-12</wgt>
  <wgt id="501">6.27973e-12</wgt>
  <wgt id="502">6.76417e-12</wgt>
  <wgt id="503">5.55905e-12</wgt>
  <wgt id="504">6.06012e-12</wgt>
  <wgt id="505">6.42212e-12</wgt>
  <wgt id="506">4.70441e-12</wgt>
  <wgt id="507">5.23684e-12</wgt>
  <wgt id="508">6.18605e-12</wgt>
  <wgt id="509">5.94597e-12</wgt>
  <wgt id="510">5.53358e-12</wgt>
  <wgt id="511">5.40927e-12</wgt>
  <wgt id="512">6.45839e-12</wgt>
  <wgt id="513">6.5156e-12</wgt>
  <wgt id="514">6.69353e-12</wgt>
  <wgt id="515">6.65607e-12</wgt>
  <wgt id="516">6.83848e-12</wgt>
  <wgt id="517">5.91388e-12</wgt>
  <wgt id="518">6.41423e-12</wgt>
  <wgt id="519">5.67561e-12</wgt>
  <wgt id="520">5.389e-12</wgt>
  <wgt id="521">5.24337e-12</wgt>
  <wgt id="522">5.72101e-12</wgt>
  <wgt id="523">5.60176e-12</wgt>
  <wgt id="524">6.11356e-12</wgt>
  <wgt id="525">5.58234e-12</wgt>
  <wgt id="526">6.49307e-12</wgt>
  <wgt id="527">5.73482e-12</wgt>
  <wgt id="528">5.36462e-12</wgt>
  <wgt id="529">4.70825e-12</wgt>
  <wgt id="530">6.41199e-12</wgt>
  <wgt id="531">5.38846e-12</wgt>
  <wgt id="532">6.23208e-12</wgt>
  <wgt id="533">6.1673e-12</wgt>
  <wgt id="534">5.07435e-12</wgt>
  <wgt id="535">6.26123e-12</wgt>
  <wgt id="536">6.36897e-12</wgt>
  <wgt id="537">5.01672e-12</wgt>
  <wgt id="538">5.65362e-12</wgt>
  <wgt id="539">5.66816e-12</wgt>
  <wgt id="540">5.56103e-12</wgt>
  <wgt id="541">5.75396e-12</wgt>
  <wgt id="542">5.19674e-12</wgt>
  <wgt id="543">5.15862e-12</wgt>
  <wgt id="544">5.61576e-12</wgt>
  <wgt id="545">5.12972e-12</wgt>
  <wgt id="546">5.04569e-12</wgt>
  <wgt id="547">5.30088e-12</wgt>
  <wgt id="548">6.05532e-12</wgt>
  <wgt id="549">5.67092e-12</wgt>
  <wgt id="550">4.82096e-12</wgt>
  <wgt id="551">5.41511e-12</wgt>
  <wgt id="552">5.983e-12</wgt>
  <wgt id="553">4.90704e-12</wgt>
  <wgt id="554">5.82502e-12</wgt>
  <wgt id="555">5.74584e-12</wgt>
  <wgt id="556">5.9759e-12</wgt>
  <wgt id="557">5.54503e-12</wgt>
  <wgt id="558">5.76401e-12</wgt>
  <wgt id="559">6.17638e-12</wgt>
  <wgt id="560">6.31579e-12</wgt>
  <wgt id="561">6.56875e-12</wgt>
  <wgt id="562">6.1171e-12</wgt>
  <wgt id="563">6.18515e-12</wgt>
  <wgt id="564">6.51159e-12</wgt>
  <wgt id="565">6.77467e-12</wgt>
  <wgt id="566">4.86021e-12</wgt>
  <wgt id="567">6.10135e-12</wgt>
  <wgt id="568">5.03284e-12</wgt>
  <wgt id="569">5.96399e-12</wgt>
  <wgt id="570">6.34464e-12</wgt>
  <wgt id="571">6.6172e-12</wgt>
  <wgt id="572">5.17534e-12</wgt>
  <wgt id="573">5.65001e-12</wgt>
  <wgt id="574">5.83089e-12</wgt>
  <wgt id="575">6.23766e-12</wgt>
  <wgt id="576">7.17035e-12</wgt>
  <wgt id="577">6.16689e-12</wgt>
  <wgt id="578">5.57858e-12</wgt>
  <wgt id="579">6.50552e-12</wgt>
  <wgt id="580">6.34124e-12</wgt>
  <wgt id="581">6.94692e-12</wgt>
  <wgt id="582">6.83474e-12</wgt>
  <wgt id="583">6.79623e-12</wgt>
  <wgt id="584">6.31448e-12</wgt>
  <wgt id="585">5.49607e-12</wgt>
  <wgt id="586">5.72766e-12</wgt>
  <wgt id="587">6.41263e-12</wgt>
  <wgt id="588">7.89985e-12</wgt>
  <wgt id="589">7.45747e-12</wgt>
  <wgt id="590">6.50782e-12</wgt>
  <wgt id="591">6.52425e-12</wgt>
  <wgt id="592">6.21678e-12</wgt>
  <wgt id="593">5.96619e-12</wgt>
  <wgt id="594">5.76864e-12</wgt>
  <wgt id="595">7.25547e-12</wgt>
  <wgt id="596">6.9917e-12</wgt>
  <wgt id="597">6.32856e-12</wgt>
  <wgt id="598">6.98392e-12</wgt>
  <wgt id="599">7.09481e-12</wgt>
  <wgt id="600">7.63167e-12</wgt>
  <wgt id="601">5.88146e-12</wgt>
  <wgt id="602">5.54311e-12</wgt>
  <wgt id="603">5.28023e-12</wgt>
  <wgt id="604">6.87737e-12</wgt>
  <wgt id="605">5.93184e-12</wgt>
  <wgt id="606">5.66702e-12</wgt>
  <wgt id="607">6.90699e-12</wgt>
  <wgt id="608">6.39434e-12</wgt>
  <wgt id="609">5.92099e-12</wgt>
  <wgt id="610">5.61132e-12</wgt>
  <wgt id="611">5.57769e-12</wgt>
  <wgt id="612">6.0429e-12</wgt>
  <wgt id="613">5.6201e-12</wgt>
  <wgt id="614">6.43289e-12</wgt>
  <wgt id="615">6.89868e-12</wgt>
  <wgt id="616">5.07653e-12</wgt>
  <wgt id="617">6.59641e-12</wgt>
  <wgt id="618">7.04124e-12</wgt>
  <wgt id="619">6.10066e-12</wgt>
  <wgt id="620">6.30551e-12</wgt>
  <wgt id="621">6.22247e-12</wgt>
  <wgt id="622">6.41263e-12</wgt>
  <wgt id="623">6.06583e-12</wgt>
  <wgt id="624">6.00479e-12</wgt>
  <wgt id="625">5.78407e-12</wgt>
  <wgt id="626">4.08643e-12</wgt>
  <wgt id="627">5.22605e-12</wgt>
  <wgt id="628">6.24733e-12</wgt>
  <wgt id="629">7.83844e-12</wgt>
  <wgt id="630">6.40199e-12</wgt>
  <wgt id="631">6.96804e-12</wgt>
  <wgt id="632">5.58132e-12</wgt>
  <wgt id="633">6.18601e-12</wgt>
  <wgt id="634">5.58357e-12</wgt>
  <wgt id="635">5.83097e-12</wgt>
  <wgt id="636">5.86483e-12</wgt>
  <wgt id="637">6.56873e-12</wgt>
  <wgt id="638">5.73894e-12</wgt>
  <wgt id="639">5.52227e-12</wgt>
  <wgt id="640">5.60689e-12</wgt>
  <wgt id="641">6.88981e-12</wgt>
  <wgt id="642">4.98388e-12</wgt>
  <wgt id="643">5.90705e-12</wgt>
  <wgt id="644">5.82704e-12</wgt>
  <wgt id="645">6.44753e-12</wgt>
  <wgt id="646">4.87358e-12</wgt>
  <wgt id="647">6.94465e-12</wgt>
  <wgt id="648">7.07396e-12</wgt>
  <wgt id="649">6.5426e-12</wgt>
  <wgt id="650">6.36715e-12</wgt>
  <wgt id="651">6.5107e-12</wgt>
  <wgt id="652">5.73593e-12</wgt>
  <wgt id="653">5.89506e-12</wgt>
  <wgt id="654">6.11749e-12</wgt>
  <wgt id="655">5.36176e-12</wgt>
  <wgt id="656">6.56682e-12</wgt>
  <wgt id="657">7.15971e-12</wgt>
  <wgt id="658">5.88762e-12</wgt>
  <wgt id="659">6.15391e-12</wgt>
  <wgt id="660">5.42478e-12</wgt>
  <wgt id="661">5.8636e-12</wgt>
  <wgt id="662">6.2876e-12</wgt>
  <wgt id="663">6.6642e-12</wgt>
  <wgt id="664">6.88319e-12</wgt>
  <wgt id="665">5.87383e-12</wgt>
  <wgt id="666">5.94946e-12</wgt>
  <wgt id="667">6.54762e-12</wgt>
  <wgt id="668">6.03988e-12</wgt>
  <wgt id="669">5.85243e-12</wgt>
  <wgt id="670">6.83102e-12</wgt>
  <wgt id="671">6.47782e-12</wgt>
  <wgt id="672">6.86518e-12</wgt>
  <wgt id="673">7.1775e-12</wgt>
  <wgt id="674">5.89091e-12</wgt>
  <wgt id="675">5.64785e-12</wgt>
  <wgt id="676">8.36962e-12</wgt>
  <wgt id="677">8.27047e-12</wgt>
  <wgt id="678">9.85935e-12</wgt>
  <wgt id="679">9.7961e-12</wgt>
  <wgt id="680">8.65545e-12</wgt>
  <wgt id="681">7.86333e-12</wgt>
  <wgt id="682">9.21374e-12</wgt>
  <wgt id="683">7.09105e-12</wgt>
  <wgt id="684">9.51669e-12</wgt>
  <wgt id="685">8.81072e-12</wgt>
  <wgt id="686">9.11519e-12</wgt>
  <wgt id="687">8.11797e-12</wgt>
  <wgt id="688">8.2797e-12</wgt>
  <wgt id="689">9.63021e-12</wgt>
  <wgt id="690">8.96526e-12</wgt>
  <wgt id="691">8.81914e-12</wgt>
  <wgt id="692">7.79601e-12</wgt>
  <wgt id="693">1.36177e-11</wgt>
  <wgt id="694">1.00198e-11</wgt>
  <wgt id="695">6.94983e-12</wgt>
  <wgt id="696">7.13699e-12</wgt>
  <wgt id="697">6.40334e-12</wgt>
  <wgt id="698">5.64488e-12</wgt>
  <wgt id="699">6.78065e-12</wgt>
  <wgt id="700">6.91435e-12</wgt>
  <wgt id="701">8.48853e-12</wgt>
  <wgt id="702">7.44916e-12</wgt>
  <wgt id="703">1.23956e-11</wgt>
  <wgt id="704">9.92955e-12</wgt>
  <wgt id="705">9.32056e-12</wgt>
  <wgt id="706">6.82839e-12</wgt>
  <wgt id="707">7.36912e-12</wgt>
  <wgt id="708">7.26912e-12</wgt>
  <wgt id="709">7.54972e-12</wgt>
  <wgt id="710">4.61287e-12</wgt>
  <wgt id="711">9.76685e-12</wgt>
  <wgt id="712">7.62053e-12</wgt>
  <wgt id="713">9.12454e-12</wgt>
  <wgt id="714">6.48509e-12</wgt>
  <wgt id="715">7.24599e-12</wgt>
  <wgt id="716">7.72858e-12</wgt>
  <wgt id="717">5.9704e-12</wgt>
  <wgt id="718">8.52635e-12</wgt>
  <wgt id="719">7.75106e-12</wgt>
  <wgt id="720">8.99826e-12</wgt>
  <wgt id="721">6.6986e-12</wgt>
  <wgt id="722">4.48685e-12</wgt>
  <wgt id="723">1.0738e-11</wgt>
  <wgt id="724">9.60284e-12</wgt>
  <wgt id="725">9.09197e-12</wgt>
  <wgt id="726">8.22855e-12</wgt>
  <wgt id="727">8.73065e-12</wgt>
  <wgt id="728">9.45688e-12</wgt>
  <wgt id="729">5.97917e-12</wgt>
  <wgt id="730">1.01117e-11</wgt>
  <wgt id="731">8.34213e-12</wgt>
  <wgt id="732">1.03418e-11</wgt>
  <wgt id="733">7.26653e-12</wgt>
  <wgt id="734">8.87349e-12</wgt>
  <wgt id="735">7.57335e-12</wgt>
  <wgt id="736">7.11897e-12</wgt>
  <wgt id="737">5.35854e-12</wgt>
  <wgt id="738">7.60946e-12</wgt>
  <wgt id="739">8.36469e-12</wgt>
  <wgt id="740">1.13722e-11</wgt>
  <wgt id="741">1.00102e-11</wgt>
  <wgt id="742">6.65119e-12</wgt>
  <wgt id="743">7.36499e-12</wgt>
  <wgt id="744">7.7409e-12</wgt>
  <wgt id="745">1.01921e-11</wgt>
  <wgt id="746">1.06203e-11</wgt>
  <wgt id="747">6.30584e-12</wgt>
  <wgt id="748">7.7459e-12</wgt>
  <wgt id="749">9.36834e-12</wgt>
  <wgt id="750">9.58288e-12</wgt>
  <wgt id="751">8.71388e-12</wgt>
  <wgt id="752">7.06928e-12</wgt>
  <wgt id="753">6.87108e-12</wgt>
  <wgt id="754">8.75046e-12</wgt>
  <wgt id="755">7.63607e-12</wgt>
  <wgt id="756">7.65467e-12</wgt>
  <wgt id="757">6.58653e-12</wgt>
  <wgt id="758">8.1425e-12</wgt>
  <wgt id="759">9.01022e-12</wgt>
  <wgt id="760">7.19283e-12</wgt>
  <wgt id="761">1.0308e-11</wgt>
  <wgt id="762">1.04487e-11</wgt>
  <wgt id="763">1.01353e-11</wgt>
  <wgt id="764">9.86622e-12</wgt>
  <wgt id="765">8.86562e-12</wgt>
  <wgt id="766">9.14592e-12</wgt>
  <wgt id="767">8.96361e-12</wgt>
  <wgt id="768">7.06912e-12</wgt>
  <wgt id="769">8.65032e-12</wgt>
  <wgt id="770">6.12751e-12</wgt>
  <wgt id="771">1.18559e-11</wgt>
  <wgt id="772">7.75103e-12</wgt>
  <wgt id="773">9.01265e-12</wgt>
  <wgt id="774">6.07542e-12</wgt>
  <wgt id="775">9.15376e-12</wgt>
  <wgt id="776">1.18591e-11</wgt>
  <wgt id="777">5.64777e-12</wgt>
  <wgt id="778">3.99219e-12</wgt>
  <wgt id="779">2.56505e-14</wgt>
  <wgt id="780">5.34617e-20</wgt>
  <wgt id="781">3.61169e-12</wgt>
  <wgt id="782">4.66211e-12</wgt>
  <wgt id="783">5.40139e-20</wgt>
  <wgt id="784">5.41852e-20</wgt>
  <wgt id="785">8.07694e-12</wgt>
  <wgt id="786">5.31386e-20</wgt>
  <wgt id="787">6.9774e-12</wgt>
  <wgt id="788">5.19206e-20</wgt>
  <wgt id="789">5.65487e-20</wgt>
  <wgt id="790">5.31344e-20</wgt>
  <wgt id="791">4.258e-12</wgt>
  <wgt id="792">5.76828e-12</wgt>
  <wgt id="793">1.38526e-12</wgt>
  <wgt id="794">5.3122e-20</wgt>
  <wgt id="795">7.66502e-12</wgt>
  <wgt id="796">7.99157e-12</wgt>
  <wgt id="797">6.39393e-12</wgt>
  <wgt id="798">9.26186e-13</wgt>
  <wgt id="799">7.56293e-12</wgt>
  <wgt id="800">8.8848e-13</wgt>
  <wgt id="801">6.15516e-12</wgt>
  <wgt id="802">5.42214e-20</wgt>
  <wgt id="803">7.55049e-12</wgt>
  <wgt id="804">7.99926e-12</wgt>
  <wgt id="805">7.61e-12</wgt>
  <wgt id="806">5.44015e-12</wgt>
  <wgt id="807">3.83786e-12</wgt>
  <wgt id="808">4.73847e-12</wgt>
  <wgt id="809">2.31628e-12</wgt>
  <wgt id="810">9.92199e-12</wgt>
  <wgt id="811">4.83477e-12</wgt>
  <wgt id="812">5.40048e-20</wgt>
  <wgt id="813">5.32979e-20</wgt>
  <wgt id="814">9.41553e-13</wgt>
  <wgt id="815">5.37053e-20</wgt>
  <wgt id="816">5.44156e-20</wgt>
  <wgt id="817">4.83434e-12</wgt>
  <wgt id="818">7.13787e-12</wgt>
  <wgt id="819">5.42958e-20</wgt>
  <wgt id="820">2.59262e-12</wgt>
  <wgt id="821">6.15483e-12</wgt>
  <wgt id="822">1.16031e-12</wgt>
  <wgt id="823">7.36247e-12</wgt>
  <wgt id="824">6.85258e-12</wgt>
  <wgt id="825">5.30742e-20</wgt>
  <wgt id="826">7.8617e-12</wgt>
  <wgt id="827">5.34373e-20</wgt>
  <wgt id="828">5.93726e-12</wgt>
  <wgt id="829">4.44713e-12</wgt>
  <wgt id="830">5.3252e-20</wgt>
  <wgt id="831">6.42303e-12</wgt>
  <wgt id="832">1.06235e-11</wgt>
  <wgt id="833">1.69062e-12</wgt>
  <wgt id="834">1.08538e-11</wgt>
  <wgt id="835">5.41404e-20</wgt>
  <wgt id="836">8.65474e-13</wgt>
  <wgt id="837">6.08642e-12</wgt>
  <wgt id="838">6.72066e-13</wgt>
  <wgt id="839">7.15026e-12</wgt>
  <wgt id="840">2.78039e-12</wgt>
  <wgt id="841">7.28749e-12</wgt>
  <wgt id="842">4.01307e-12</wgt>
  <wgt id="843">3.64632e-12</wgt>
  <wgt id="844">5.98638e-12</wgt>
  <wgt id="845">1.09701e-11</wgt>
  <wgt id="846">1.25994e-12</wgt>
  <wgt id="847">5.30687e-12</wgt>
  <wgt id="848">5.47677e-20</wgt>
  <wgt id="849">6.0256e-12</wgt>
  <wgt id="850">9.77662e-12</wgt>
  <wgt id="851">6.29375e-12</wgt>
  <wgt id="852">5.40408e-20</wgt>
  <wgt id="853">6.56431e-12</wgt>
  <wgt id="854">8.67597e-12</wgt>
  <wgt id="855">5.78122e-12</wgt>
  <wgt id="856">5.31007e-20</wgt>
  <wgt id="857">1.26424e-12</wgt>
  <wgt id="858">4.95096e-12</wgt>
  <wgt id="859">3.53231e-12</wgt>
  <wgt id="860">4.78864e-12</wgt>
  <wgt id="861">1.17749e-12</wgt>
  <wgt id="862">4.92025e-12</wgt>
  <wgt id="863">6.29702e-12</wgt>
  <wgt id="864">3.95414e-12</wgt>
  <wgt id="865">9.71141e-12</wgt>
  <wgt id="866">1.01397e-11</wgt>
  <wgt id="867">4.11053e-12</wgt>
  <wgt id="868">5.69247e-12</wgt>
  <wgt id="869">5.35069e-20</wgt>
  <wgt id="870">6.26366e-13</wgt>
  <wgt id="871">2.10884e-12</wgt>
  <wgt id="872">9.74953e-12</wgt>
  <wgt id="873">1.62863e-12</wgt>
  <wgt id="874">5.80058e-12</wgt>
  <wgt id="875">3.40356e-13</wgt>
  <wgt id="876">8.72019e-12</wgt>
  <wgt id="877">5.80336e-12</wgt>
  <wgt id="878">1.07023e-12</wgt>
  <wgt id="879">8.36962e-12</wgt>
  <wgt id="880">8.27047e-12</wgt>
  <wgt id="881">9.85935e-12</wgt>
  <wgt id="882">9.7961e-12</wgt>
  <wgt id="883">8.65545e-12</wgt>
  <wgt id="884">7.86333e-12</wgt>
  <wgt id="885">9.21374e-12</wgt>
  <wgt id="886">7.09105e-12</wgt>
  <wgt id="887">9.51669e-12</wgt>
  <wgt id="888">8.81072e-12</wgt>
  <wgt id="889">9.11519e-12</wgt>
  <wgt id="890">8.11797e-12</wgt>
  <wgt id="891">8.2797e-12</wgt>
  <wgt id="892">9.63021e-12</wgt>
  <wgt id="893">8.96526e-12</wgt>
  <wgt id="894">8.81914e-12</wgt>
  <wgt id="895">7.79601e-12</wgt>
  <wgt id="896">1.36177e-11</wgt>
  <wgt id="897">1.00198e-11</wgt>
  <wgt id="898">6.94983e-12</wgt>
  <wgt id="899">7.13699e-12</wgt>
  <wgt id="900">6.40334e-12</wgt>
  <wgt id="901">5.64488e-12</wgt>
  <wgt id="902">6.78065e-12</wgt>
  <wgt id="903">6.91435e-12</wgt>
  <wgt id="904">8.48853e-12</wgt>
  <wgt id="905">7.44916e-12</wgt>
  <wgt id="906">1.23956e-11</wgt>
  <wgt id="907">9.92955e-12</wgt>
  <wgt id="908">9.32056e-12</wgt>
  <wgt id="909">6.82839e-12</wgt>
  <wgt id="910">7.36912e-12</wgt>
  <wgt id="911">7.26912e-12</wgt>
  <wgt id="912">7.54972e-12</wgt>
  <wgt id="913">4.61287e-12</wgt>
  <wgt id="914">9.76685e-12</wgt>
  <wgt id="915">7.62053e-12</wgt>
  <wgt id="916">9.12454e-12</wgt>
  <wgt id="917">6.48509e-12</wgt>
  <wgt id="918">7.24599e-12</wgt>
  <wgt id="919">7.72858e-12</wgt>
  <wgt id="920">5.9704e-12</wgt>
  <wgt id="921">8.52635e-12</wgt>
  <wgt id="922">7.75106e-12</wgt>
  <wgt id="923">8.99826e-12</wgt>
  <wgt id="924">6.6986e-12</wgt>
  <wgt id="925">4.48685e-12</wgt>
  <wgt id="926">1.0738e-11</wgt>
  <wgt id="927">9.60284e-12</wgt>
  <wgt id="928">9.09197e-12</wgt>
  <wgt id="929">8.22855e-12</wgt>
  <wgt id="930">8.73065e-12</wgt>
  <wgt id="931">9.45688e-12</wgt>
  <wgt id="932">5.97917e-12</wgt>
  <wgt id="933">1.01117e-11</wgt>
  <wgt id="934">8.34213e-12</wgt>
  <wgt id="935">1.03418e-11</wgt>
  <wgt id="936">7.26653e-12</wgt>
  <wgt id="937">8.87349e-12</wgt>
  <wgt id="938">7.57335e-12</wgt>
  <wgt id="939">7.11897e-12</wgt>
  <wgt id="940">5.35854e-12</wgt>
  <wgt id="941">7.60946e-12</wgt>
  <wgt id="942">8.36469e-12</wgt>
  <wgt id="943">1.13722e-11</wgt>
  <wgt id="944">1.00102e-11</wgt>
  <wgt id="945">6.65119e-12</wgt>
  <wgt id="946">7.36499e-12</wgt>
  <wgt id="947">7.7409e-12</wgt>
  <wgt id="948">1.01921e-11</wgt>
  <wgt id="949">1.06203e-11</wgt>
  <wgt id="950">6.30584e-12</wgt>
  <wgt id="951">7.7459e-12</wgt>
  <wgt id="952">9.36834e-12</wgt>
  <wgt id="953">9.58288e-12</wgt>
  <wgt id="954">8.71388e-12</wgt>
  <wgt id="955">7.06928e-12</wgt>
  <wgt id="956">6.87108e-12</wgt>
  <wgt id="957">8.75046e-12</wgt>
  <wgt id="958">7.63607e-12</wgt>
  <wgt id="959">7.65467e-12</wgt>
  <wgt id="960">6.58653e-12</wgt>
  <wgt id="961">8.1425e-12</wgt>
  <wgt id="962">9.01022e-12</wgt>
  <wgt id="963">7.19283e-12</wgt>
  <wgt id="964">1.0308e-11</wgt>
  <wgt id="965">1.04487e-11</wgt>
  <wgt id="966">1.01353e-11</wgt>
  <wgt id="967">9.86622e-12</wgt>
  <wgt id="968">8.86562e-12</wgt>
  <wgt id="969">9.14592e-12</wgt>
  <wgt id="970">8.96361e-12</wgt>
  <wgt id="971">7.06912e-12</wgt>
  <wgt id="972">8.65032e-12</wgt>
  <wgt id="973">6.12751e-12</wgt>
  <wgt id="974">1.18559e-11</wgt>
  <wgt id="975">7.75103e-12</wgt>
  <wgt id="976">9.01265e-12</wgt>
  <wgt id="977">6.07542e-12</wgt>
  <wgt id="978">9.15376e-12</wgt>
  <wgt id="979">1.18591e-11</wgt>
  <wgt id="980">8.26667e-12</wgt>
  <wgt id="981">8.96196e-12</wgt>
  <wgt id="982">8.34612e-12</wgt>
</rwgt>
</event>
<event>
 5   1  0.5790000E-11  0.2172301E+04  0.7818608E-02  0.7759383E-01
       21   -1    0    0  502  501  0.00000000000E+00  0.00000000000E+00  0.11329389969E+04  0.11329389969E+04  0.00000000000E+00 0.  1.
       21   -1    0    0  501  502 -0.00000000000E+00 -0.00000000000E+00 -0.10412942038E+04  0.10412942038E+04  0.00000000000E+00 0. -1.
       39    2    1    2    0    0  0.00000000000E+00  0.00000000000E+00  0.91644793062E+02  0.21742332007E+04  0.21723009098E+04 0.  0.
       25    1    3    3    0    0  0.88210594389E+03 -0.42070359823E+03  0.50338919024E+03  0.11064032225E+04  0.12500000000E+03 0.  0.
       25    1    3    3    0    0 -0.88210594389E+03  0.42070359823E+03 -0.41174439717E+03  0.10678299782E+04  0.12500000000E+03 0.  0.
<mgrwt>
<rscale>  0 0.21723009E+04</rscale>
<asrwt>0</asrwt>
<pdfrwt beam="1">  1       21 0.17429831E+00 0.21723009E+04</pdfrwt>
<pdfrwt beam="2">  1       21 0.16019911E+00 0.21723009E+04</pdfrwt>
<totfact> 0.20706269E+01</totfact>
</mgrwt>
<rwgt>
  <wgt id="1">5.79e-12</wgt>
  <wgt id="2">5.05951e-12</wgt>
  <wgt id="3">6.69307e-12</wgt>
  <wgt id="4">5.79e-12</wgt>
  <wgt id="5">5.05951e-12</wgt>
  <wgt id="6">6.69307e-12</wgt>
  <wgt id="7">5.79e-12</wgt>
  <wgt id="8">5.05951e-12</wgt>
  <wgt id="9">6.69307e-12</wgt>
  <wgt id="10">5.94583e-12</wgt>
  <wgt id="11">5.93966e-12</wgt>
  <wgt id="12">5.93402e-12</wgt>
  <wgt id="13">5.92528e-12</wgt>
  <wgt id="14">5.96682e-12</wgt>
  <wgt id="15">5.95387e-12</wgt>
  <wgt id="16">5.93181e-12</wgt>
  <wgt id="17">5.95438e-12</wgt>
  <wgt id="18">5.93817e-12</wgt>
  <wgt id="19">5.95803e-12</wgt>
  <wgt id="20">5.92779e-12</wgt>
  <wgt id="21">5.9164e-12</wgt>
  <wgt id="22">5.92994e-12</wgt>
  <wgt id="23">5.89755e-12</wgt>
  <wgt id="24">5.92115e-12</wgt>
  <wgt id="25">5.93138e-12</wgt>
  <wgt id="26">5.97122e-12</wgt>
  <wgt id="27">5.94556e-12</wgt>
  <wgt id="28">5.91806e-12</wgt>
  <wgt id="29">5.95267e-12</wgt>
  <wgt id="30">5.93282e-12</wgt>
  <wgt id="31">5.96023e-12</wgt>
  <wgt id="32">5.93406e-12</wgt>
  <wgt id="33">5.95857e-12</wgt>
  <wgt id="34">5.9298e-12</wgt>
  <wgt id="35">5.93935e-12</wgt>
  <wgt id="36">5.95862e-12</wgt>
  <wgt id="37">5.93075e-12</wgt>
  <wgt id="38">5.93213e-12</wgt>
  <wgt id="39">6.00421e-12</wgt>
  <wgt id="40">5.9621e-12</wgt>
  <wgt id="41">5.94457e-12</wgt>
  <wgt id="42">5.9669e-12</wgt>
  <wgt id="43">5.9528e-12</wgt>
  <wgt id="44">5.91793e-12</wgt>
  <wgt id="45">5.95449e-12</wgt>
  <wgt id="46">5.95331e-12</wgt>
  <wgt id="47">5.91664e-12</wgt>
  <wgt id="48">5.94715e-12</wgt>
  <wgt id="49">5.97465e-12</wgt>
  <wgt id="50">5.98856e-12</wgt>
  <wgt id="51">5.97275e-12</wgt>
  <wgt id="52">5.91931e-12</wgt>
  <wgt id="53">5.91079e-12</wgt>
  <wgt id="54">5.9334e-12</wgt>
  <wgt id="55">5.94401e-12</wgt>
  <wgt id="56">5.9617e-12</wgt>
  <wgt id="57">5.96665e-12</wgt>
  <wgt id="58">5.90376e-12</wgt>
  <wgt id="59">5.92606e-12</wgt>
  <wgt id="60">5.94577e-12</wgt>
  <wgt id="61">5.94476e-12</wgt>
  <wgt id="62">5.94927e-12</wgt>
  <wgt id="63">5.9565e-12</wgt>
  <wgt id="64">5.95299e-12</wgt>
  <wgt id="65">5.94954e-12</wgt>
  <wgt id="66">5.93918e-12</wgt>
  <wgt id="67">5.94357e-12</wgt>
  <wgt id="68">5.93956e-12</wgt>
  <wgt id="69">5.9427e-12</wgt>
  <wgt id="70">5.94085e-12</wgt>
  <wgt id="71">5.94146e-12</wgt>
  <wgt id="72">5.94051e-12</wgt>
  <wgt id="73">5.95091e-12</wgt>
  <wgt id="74">5.94873e-12</wgt>
  <wgt id="75">5.94784e-12</wgt>
  <wgt id="76">5.96056e-12</wgt>
  <wgt id="77">5.94486e-12</wgt>
  <wgt id="78">5.94765e-12</wgt>
  <wgt id="79">5.95438e-12</wgt>
  <wgt id="80">5.92303e-12</wgt>
  <wgt id="81">5.9386e-12</wgt>
  <wgt id="82">5.94605e-12</wgt>
  <wgt id="83">5.92692e-12</wgt>
  <wgt id="84">5.93392e-12</wgt>
  <wgt id="85">5.93859e-12</wgt>
  <wgt id="86">5.95489e-12</wgt>
  <wgt id="87">5.92268e-12</wgt>
  <wgt id="88">5.95147e-12</wgt>
  <wgt id="89">5.95046e-12</wgt>
  <wgt id="90">5.95131e-12</wgt>
  <wgt id="91">5.94904e-12</wgt>
  <wgt id="92">5.95501e-12</wgt>
  <wgt id="93">5.94478e-12</wgt>
  <wgt id="94">5.94192e-12</wgt>
  <wgt id="95">5.94843e-12</wgt>
  <wgt id="96">5.94933e-12</wgt>
  <wgt id="97">5.93982e-12</wgt>
  <wgt id="98">5.94884e-12</wgt>
  <wgt id="99">5.94429e-12</wgt>
  <wgt id="100">5.95175e-12</wgt>
  <wgt id="101">5.94427e-12</wgt>
  <wgt id="102">5.94101e-12</wgt>
  <wgt id="103">5.95249e-12</wgt>
  <wgt id="104">5.94124e-12</wgt>
  <wgt id="105">5.94981e-12</wgt>
  <wgt id="106">5.94002e-12</wgt>
  <wgt id="107">5.95889e-12</wgt>
  <wgt id="108">5.94066e-12</wgt>
  <wgt id="109">5.9493e-12</wgt>
  <wgt id="110">5.94412e-12</wgt>
  <wgt id="111">6.02012e-12</wgt>
  <wgt id="112">5.92717e-12</wgt>
  <wgt id="113">7.79509e-12</wgt>
  <wgt id="114">8.14243e-12</wgt>
  <wgt id="115">8.03429e-12</wgt>
  <wgt id="116">1.09756e-11</wgt>
  <wgt id="117">6.53906e-12</wgt>
  <wgt id="118">6.55995e-12</wgt>
  <wgt id="119">6.52734e-12</wgt>
  <wgt id="120">6.53984e-12</wgt>
  <wgt id="121">6.53856e-12</wgt>
  <wgt id="122">6.52726e-12</wgt>
  <wgt id="123">6.55545e-12</wgt>
  <wgt id="124">6.52964e-12</wgt>
  <wgt id="125">6.54541e-12</wgt>
  <wgt id="126">6.55014e-12</wgt>
  <wgt id="127">6.53184e-12</wgt>
  <wgt id="128">6.55972e-12</wgt>
  <wgt id="129">6.51859e-12</wgt>
  <wgt id="130">6.57699e-12</wgt>
  <wgt id="131">6.50031e-12</wgt>
  <wgt id="132">6.3755e-12</wgt>
  <wgt id="133">6.73152e-12</wgt>
  <wgt id="134">6.47224e-12</wgt>
  <wgt id="135">6.59116e-12</wgt>
  <wgt id="136">6.6166e-12</wgt>
  <wgt id="137">6.44515e-12</wgt>
  <wgt id="138">6.77453e-12</wgt>
  <wgt id="139">6.30993e-12</wgt>
  <wgt id="140">6.49373e-12</wgt>
  <wgt id="141">6.57478e-12</wgt>
  <wgt id="142">6.54035e-12</wgt>
  <wgt id="143">6.54605e-12</wgt>
  <wgt id="144">6.38644e-12</wgt>
  <wgt id="145">6.67827e-12</wgt>
  <wgt id="146">6.58751e-12</wgt>
  <wgt id="147">6.50157e-12</wgt>
  <wgt id="148">6.55744e-12</wgt>
  <wgt id="149">6.53789e-12</wgt>
  <wgt id="150">6.59413e-12</wgt>
  <wgt id="151">6.51342e-12</wgt>
  <wgt id="152">6.54166e-12</wgt>
  <wgt id="153">6.5381e-12</wgt>
  <wgt id="154">6.59921e-12</wgt>
  <wgt id="155">6.46917e-12</wgt>
  <wgt id="156">6.63998e-12</wgt>
  <wgt id="157">6.42413e-12</wgt>
  <wgt id="158">7.87016e-12</wgt>
  <wgt id="159">7.90266e-12</wgt>
  <wgt id="160">7.84394e-12</wgt>
  <wgt id="161">7.85173e-12</wgt>
  <wgt id="162">7.89075e-12</wgt>
  <wgt id="163">7.8624e-12</wgt>
  <wgt id="164">7.88204e-12</wgt>
  <wgt id="165">7.87339e-12</wgt>
  <wgt id="166">7.86806e-12</wgt>
  <wgt id="167">7.86446e-12</wgt>
  <wgt id="168">7.87843e-12</wgt>
  <wgt id="169">7.83628e-12</wgt>
  <wgt id="170">7.89157e-12</wgt>
  <wgt id="171">7.86198e-12</wgt>
  <wgt id="172">7.88192e-12</wgt>
  <wgt id="173">7.87231e-12</wgt>
  <wgt id="174">7.86915e-12</wgt>
  <wgt id="175">7.65917e-12</wgt>
  <wgt id="176">8.14419e-12</wgt>
  <wgt id="177">7.90965e-12</wgt>
  <wgt id="178">7.83356e-12</wgt>
  <wgt id="179">8.17289e-12</wgt>
  <wgt id="180">7.38946e-12</wgt>
  <wgt id="181">7.65735e-12</wgt>
  <wgt id="182">8.01033e-12</wgt>
  <wgt id="183">7.7398e-12</wgt>
  <wgt id="184">7.93513e-12</wgt>
  <wgt id="185">7.81166e-12</wgt>
  <wgt id="186">7.93912e-12</wgt>
  <wgt id="187">7.80367e-12</wgt>
  <wgt id="188">7.99047e-12</wgt>
  <wgt id="189">7.82414e-12</wgt>
  <wgt id="190">7.88918e-12</wgt>
  <wgt id="191">7.88974e-12</wgt>
  <wgt id="192">7.85882e-12</wgt>
  <wgt id="193">7.9729e-12</wgt>
  <wgt id="194">7.81947e-12</wgt>
  <wgt id="195">7.71656e-12</wgt>
  <wgt id="196">8.16448e-12</wgt>
  <wgt id="197">7.90696e-12</wgt>
  <wgt id="198">7.86154e-12</wgt>
  <wgt id="199">7.87016e-12</wgt>
  <wgt id="200">7.93376e-12</wgt>
  <wgt id="201">7.90987e-12</wgt>
  <wgt id="202">7.88728e-12</wgt>
  <wgt id="203">7.85243e-12</wgt>
  <wgt id="204">7.8361e-12</wgt>
  <wgt id="205">7.82254e-12</wgt>
  <wgt id="206">7.6625e-12</wgt>
  <wgt id="207">7.70665e-12</wgt>
  <wgt id="208">7.61894e-12</wgt>
  <wgt id="209">7.68331e-12</wgt>
  <wgt id="210">7.6473e-12</wgt>
  <wgt id="211">7.6603e-12</wgt>
  <wgt id="212">7.66436e-12</wgt>
  <wgt id="213">7.66178e-12</wgt>
  <wgt id="214">7.66365e-12</wgt>
  <wgt id="215">7.66756e-12</wgt>
  <wgt id="216">7.65907e-12</wgt>
  <wgt id="217">7.68387e-12</wgt>
  <wgt id="218">7.64635e-12</wgt>
  <wgt id="219">7.6529e-12</wgt>
  <wgt id="220">7.66831e-12</wgt>
  <wgt id="221">7.65859e-12</wgt>
  <wgt id="222">7.67219e-12</wgt>
  <wgt id="223">7.27855e-12</wgt>
  <wgt id="224">8.01115e-12</wgt>
  <wgt id="225">7.57705e-12</wgt>
  <wgt id="226">7.76963e-12</wgt>
  <wgt id="227">7.59387e-12</wgt>
  <wgt id="228">7.69264e-12</wgt>
  <wgt id="229">7.56092e-12</wgt>
  <wgt id="230">7.71306e-12</wgt>
  <wgt id="231">7.86669e-12</wgt>
  <wgt id="232">7.49438e-12</wgt>
  <wgt id="233">7.62576e-12</wgt>
  <wgt id="234">7.718e-12</wgt>
  <wgt id="235">7.54968e-12</wgt>
  <wgt id="236">7.7787e-12</wgt>
  <wgt id="237">7.57829e-12</wgt>
  <wgt id="238">7.69174e-12</wgt>
  <wgt id="239">7.62474e-12</wgt>
  <wgt id="240">7.73163e-12</wgt>
  <wgt id="241">7.59132e-12</wgt>
  <wgt id="242">7.7484e-12</wgt>
  <wgt id="243">7.73319e-12</wgt>
  <wgt id="244">7.71629e-12</wgt>
  <wgt id="245">7.65596e-12</wgt>
  <wgt id="246">7.72342e-12</wgt>
  <wgt id="247">7.6625e-12</wgt>
  <wgt id="248">7.72442e-12</wgt>
  <wgt id="249">7.70029e-12</wgt>
  <wgt id="250">7.6783e-12</wgt>
  <wgt id="251">7.64453e-12</wgt>
  <wgt id="252">7.62884e-12</wgt>
  <wgt id="253">7.61726e-12</wgt>
  <wgt id="254">7.51347e-12</wgt>
  <wgt id="255">7.521e-12</wgt>
  <wgt id="256">7.50568e-12</wgt>
  <wgt id="257">7.51941e-12</wgt>
  <wgt id="258">7.50919e-12</wgt>
  <wgt id="259">7.56363e-12</wgt>
  <wgt id="260">7.46544e-12</wgt>
  <wgt id="261">7.52175e-12</wgt>
  <wgt id="262">7.50394e-12</wgt>
  <wgt id="263">7.51104e-12</wgt>
  <wgt id="264">7.5165e-12</wgt>
  <wgt id="265">7.50574e-12</wgt>
  <wgt id="266">7.52877e-12</wgt>
  <wgt id="267">7.51586e-12</wgt>
  <wgt id="268">7.51061e-12</wgt>
  <wgt id="269">7.53546e-12</wgt>
  <wgt id="270">7.49867e-12</wgt>
  <wgt id="271">7.50187e-12</wgt>
  <wgt id="272">7.52685e-12</wgt>
  <wgt id="273">7.49113e-12</wgt>
  <wgt id="274">7.53085e-12</wgt>
  <wgt id="275">7.48664e-12</wgt>
  <wgt id="276">7.54116e-12</wgt>
  <wgt id="277">7.47301e-12</wgt>
  <wgt id="278">7.55087e-12</wgt>
  <wgt id="279">7.37685e-12</wgt>
  <wgt id="280">7.6844e-12</wgt>
  <wgt id="281">7.48335e-12</wgt>
  <wgt id="282">7.51373e-12</wgt>
  <wgt id="283">7.31586e-12</wgt>
  <wgt id="284">7.75593e-12</wgt>
  <wgt id="285">7.18338e-12</wgt>
  <wgt id="286">7.78409e-12</wgt>
  <wgt id="287">7.53513e-12</wgt>
  <wgt id="288">7.48575e-12</wgt>
  <wgt id="289">7.56149e-12</wgt>
  <wgt id="290">7.3993e-12</wgt>
  <wgt id="291">7.49692e-12</wgt>
  <wgt id="292">7.51774e-12</wgt>
  <wgt id="293">7.46074e-12</wgt>
  <wgt id="294">7.56599e-12</wgt>
  <wgt id="295">7.38224e-12</wgt>
  <wgt id="296">7.67345e-12</wgt>
  <wgt id="297">7.51864e-12</wgt>
  <wgt id="298">7.53573e-12</wgt>
  <wgt id="299">7.49144e-12</wgt>
  <wgt id="300">7.57165e-12</wgt>
  <wgt id="301">7.43699e-12</wgt>
  <wgt id="302">7.72725e-12</wgt>
  <wgt id="303">7.46925e-12</wgt>
  <wgt id="304">7.53982e-12</wgt>
  <wgt id="305">7.5592e-12</wgt>
  <wgt id="306">7.56702e-12</wgt>
  <wgt id="307">7.55117e-12</wgt>
  <wgt id="308">7.56601e-12</wgt>
  <wgt id="309">7.55471e-12</wgt>
  <wgt id="310">7.61128e-12</wgt>
  <wgt id="311">7.51117e-12</wgt>
  <wgt id="312">7.56503e-12</wgt>
  <wgt id="313">7.55386e-12</wgt>
  <wgt id="314">7.55695e-12</wgt>
  <wgt id="315">7.56165e-12</wgt>
  <wgt id="316">7.55199e-12</wgt>
  <wgt id="317">7.5753e-12</wgt>
  <wgt id="318">7.56419e-12</wgt>
  <wgt id="319">7.55106e-12</wgt>
  <wgt id="320">7.58209e-12</wgt>
  <wgt id="321">7.54653e-12</wgt>
  <wgt id="322">7.54316e-12</wgt>
  <wgt id="323">7.57819e-12</wgt>
  <wgt id="324">7.54054e-12</wgt>
  <wgt id="325">7.57575e-12</wgt>
  <wgt id="326">7.53769e-12</wgt>
  <wgt id="327">7.58686e-12</wgt>
  <wgt id="328">7.52218e-12</wgt>
  <wgt id="329">7.58053e-12</wgt>
  <wgt id="330">7.77229e-12</wgt>
  <wgt id="331">7.35566e-12</wgt>
  <wgt id="332">7.53423e-12</wgt>
  <wgt id="333">7.55852e-12</wgt>
  <wgt id="334">7.40256e-12</wgt>
  <wgt id="335">7.75289e-12</wgt>
  <wgt id="336">7.31815e-12</wgt>
  <wgt id="337">7.85036e-12</wgt>
  <wgt id="338">7.63653e-12</wgt>
  <wgt id="339">7.48761e-12</wgt>
  <wgt id="340">7.60545e-12</wgt>
  <wgt id="341">7.43882e-12</wgt>
  <wgt id="342">7.54819e-12</wgt>
  <wgt id="343">7.55312e-12</wgt>
  <wgt id="344">7.5109e-12</wgt>
  <wgt id="345">7.6155e-12</wgt>
  <wgt id="346">7.42233e-12</wgt>
  <wgt id="347">7.71718e-12</wgt>
  <wgt id="348">7.5684e-12</wgt>
  <wgt id="349">7.57607e-12</wgt>
  <wgt id="350">7.53132e-12</wgt>
  <wgt id="351">7.63056e-12</wgt>
  <wgt id="352">7.47257e-12</wgt>
  <wgt id="353">7.78773e-12</wgt>
  <wgt id="354">7.48989e-12</wgt>
  <wgt id="355">7.6029e-12</wgt>
  <wgt id="356">7.51347e-12</wgt>
  <wgt id="357">7.59676e-12</wgt>
  <wgt id="358">7.5592e-12</wgt>
  <wgt id="359">7.54636e-12</wgt>
  <wgt id="360">7.54204e-12</wgt>
  <wgt id="361">7.5324e-12</wgt>
  <wgt id="362">7.65176e-12</wgt>
  <wgt id="363">7.63475e-12</wgt>
  <wgt id="364">7.61249e-12</wgt>
  <wgt id="365">7.589e-12</wgt>
  <wgt id="366">7.56214e-12</wgt>
  <wgt id="367">7.5053e-12</wgt>
  <wgt id="368">7.47492e-12</wgt>
  <wgt id="369">7.44205e-12</wgt>
  <wgt id="370">7.5324e-12</wgt>
  <wgt id="371">7.56576e-12</wgt>
  <wgt id="372">7.54752e-12</wgt>
  <wgt id="373">7.52009e-12</wgt>
  <wgt id="374">7.51504e-12</wgt>
  <wgt id="375">7.92027e-12</wgt>
  <wgt id="376">7.9213e-12</wgt>
  <wgt id="377">7.91903e-12</wgt>
  <wgt id="378">7.94846e-12</wgt>
  <wgt id="379">7.8923e-12</wgt>
  <wgt id="380">7.94179e-12</wgt>
  <wgt id="381">7.91157e-12</wgt>
  <wgt id="382">7.95869e-12</wgt>
  <wgt id="383">7.8821e-12</wgt>
  <wgt id="384">7.92544e-12</wgt>
  <wgt id="385">7.91526e-12</wgt>
  <wgt id="386">7.94996e-12</wgt>
  <wgt id="387">7.90734e-12</wgt>
  <wgt id="388">7.91315e-12</wgt>
  <wgt id="389">7.92884e-12</wgt>
  <wgt id="390">7.94066e-12</wgt>
  <wgt id="391">7.8987e-12</wgt>
  <wgt id="392">7.86739e-12</wgt>
  <wgt id="393">7.95004e-12</wgt>
  <wgt id="394">7.93165e-12</wgt>
  <wgt id="395">7.90418e-12</wgt>
  <wgt id="396">7.92169e-12</wgt>
  <wgt id="397">7.91901e-12</wgt>
  <wgt id="398">7.88718e-12</wgt>
  <wgt id="399">7.95216e-12</wgt>
  <wgt id="400">7.90791e-12</wgt>
  <wgt id="401">7.94775e-12</wgt>
  <wgt id="402">7.86153e-12</wgt>
  <wgt id="403">7.94301e-12</wgt>
  <wgt id="404">8.08418e-12</wgt>
  <wgt id="405">7.52284e-12</wgt>
  <wgt id="406">7.80216e-12</wgt>
  <wgt id="407">8.17418e-12</wgt>
  <wgt id="408">7.98083e-12</wgt>
  <wgt id="409">7.80314e-12</wgt>
  <wgt id="410">7.72515e-12</wgt>
  <wgt id="411">8.00881e-12</wgt>
  <wgt id="412">7.90794e-12</wgt>
  <wgt id="413">7.93689e-12</wgt>
  <wgt id="414">7.84254e-12</wgt>
  <wgt id="415">7.98051e-12</wgt>
  <wgt id="416">8.10117e-12</wgt>
  <wgt id="417">7.66966e-12</wgt>
  <wgt id="418">7.92934e-12</wgt>
  <wgt id="419">7.87064e-12</wgt>
  <wgt id="420">8.00434e-12</wgt>
  <wgt id="421">7.87857e-12</wgt>
  <wgt id="422">7.92045e-12</wgt>
  <wgt id="423">7.92237e-12</wgt>
  <wgt id="424">8.04713e-12</wgt>
  <wgt id="425">7.84408e-12</wgt>
  <wgt id="426">7.92027e-12</wgt>
  <wgt id="427">7.87137e-12</wgt>
  <wgt id="428">8.0791e-12</wgt>
  <wgt id="429">7.97756e-12</wgt>
  <wgt id="430">8.18167e-12</wgt>
  <wgt id="431">8.14134e-12</wgt>
  <wgt id="432">8.10239e-12</wgt>
  <wgt id="433">8.06469e-12</wgt>
  <wgt id="434">8.02012e-12</wgt>
  <wgt id="435">7.92428e-12</wgt>
  <wgt id="436">7.87452e-12</wgt>
  <wgt id="437">7.8279e-12</wgt>
  <wgt id="438">7.97756e-12</wgt>
  <wgt id="439">8.0038e-12</wgt>
  <wgt id="440">7.98871e-12</wgt>
  <wgt id="441">7.96918e-12</wgt>
  <wgt id="442">7.96183e-12</wgt>
  <wgt id="443">7.82943e-12</wgt>
  <wgt id="444">7.86129e-12</wgt>
  <wgt id="445">7.79647e-12</wgt>
  <wgt id="446">7.78365e-12</wgt>
  <wgt id="447">7.80138e-12</wgt>
  <wgt id="448">7.63948e-12</wgt>
  <wgt id="449">7.93678e-12</wgt>
  <wgt id="450">7.79091e-12</wgt>
  <wgt id="451">7.81939e-12</wgt>
  <wgt id="452">7.98533e-12</wgt>
  <wgt id="453">7.8885e-12</wgt>
  <wgt id="454">7.54157e-12</wgt>
  <wgt id="455">7.83629e-12</wgt>
  <wgt id="456">7.70206e-12</wgt>
  <wgt id="457">7.85702e-12</wgt>
  <wgt id="458">7.90738e-12</wgt>
  <wgt id="459">7.87471e-12</wgt>
  <wgt id="460">7.86573e-12</wgt>
  <wgt id="461">7.711e-12</wgt>
  <wgt id="462">7.77575e-12</wgt>
  <wgt id="463">7.7588e-12</wgt>
  <wgt id="464">7.79346e-12</wgt>
  <wgt id="465">7.89713e-12</wgt>
  <wgt id="466">7.75673e-12</wgt>
  <wgt id="467">7.76537e-12</wgt>
  <wgt id="468">7.81101e-12</wgt>
  <wgt id="469">7.81164e-12</wgt>
  <wgt id="470">7.76961e-12</wgt>
  <wgt id="471">7.773e-12</wgt>
  <wgt id="472">7.85916e-12</wgt>
  <wgt id="473">7.61644e-12</wgt>
  <wgt id="474">5.79e-12</wgt>
  <wgt id="475">6.17296e-12</wgt>
  <wgt id="476">5.67606e-12</wgt>
  <wgt id="477">5.69979e-12</wgt>
  <wgt id="478">5.82026e-12</wgt>
  <wgt id="479">5.72536e-12</wgt>
  <wgt id="480">5.95512e-12</wgt>
  <wgt id="481">5.63026e-12</wgt>
  <wgt id="482">5.54301e-12</wgt>
  <wgt id="483">5.6429e-12</wgt>
  <wgt id="484">6.23762e-12</wgt>
  <wgt id="485">5.82346e-12</wgt>
  <wgt id="486">5.86067e-12</wgt>
  <wgt id="487">5.87881e-12</wgt>
  <wgt id="488">5.85065e-12</wgt>
  <wgt id="489">5.59743e-12</wgt>
  <wgt id="490">5.62666e-12</wgt>
  <wgt id="491">5.72236e-12</wgt>
  <wgt id="492">5.6026e-12</wgt>
  <wgt id="493">5.59979e-12</wgt>
  <wgt id="494">5.61963e-12</wgt>
  <wgt id="495">5.90199e-12</wgt>
  <wgt id="496">5.59137e-12</wgt>
  <wgt id="497">5.5909e-12</wgt>
  <wgt id="498">5.84473e-12</wgt>
  <wgt id="499">5.63449e-12</wgt>
  <wgt id="500">5.69083e-12</wgt>
  <wgt id="501">6.03308e-12</wgt>
  <wgt id="502">5.61907e-12</wgt>
  <wgt id="503">5.76414e-12</wgt>
  <wgt id="504">5.7788e-12</wgt>
  <wgt id="505">5.93156e-12</wgt>
  <wgt id="506">5.86475e-12</wgt>
  <wgt id="507">5.71476e-12</wgt>
  <wgt id="508">5.87068e-12</wgt>
  <wgt id="509">5.80504e-12</wgt>
  <wgt id="510">5.91857e-12</wgt>
  <wgt id="511">5.67253e-12</wgt>
  <wgt id="512">5.8426e-12</wgt>
  <wgt id="513">5.99209e-12</wgt>
  <wgt id="514">5.73002e-12</wgt>
  <wgt id="515">5.71409e-12</wgt>
  <wgt id="516">5.92215e-12</wgt>
  <wgt id="517">5.91644e-12</wgt>
  <wgt id="518">5.93866e-12</wgt>
  <wgt id="519">5.66199e-12</wgt>
  <wgt id="520">5.80209e-12</wgt>
  <wgt id="521">6.00486e-12</wgt>
  <wgt id="522">5.99824e-12</wgt>
  <wgt id="523">5.92158e-12</wgt>
  <wgt id="524">5.92301e-12</wgt>
  <wgt id="525">5.92357e-12</wgt>
  <wgt id="526">5.77104e-12</wgt>
  <wgt id="527">5.9026e-12</wgt>
  <wgt id="528">5.77771e-12</wgt>
  <wgt id="529">5.71946e-12</wgt>
  <wgt id="530">5.80607e-12</wgt>
  <wgt id="531">5.71737e-12</wgt>
  <wgt id="532">6.07803e-12</wgt>
  <wgt id="533">5.43469e-12</wgt>
  <wgt id="534">5.7979e-12</wgt>
  <wgt id="535">5.89591e-12</wgt>
  <wgt id="536">5.81244e-12</wgt>
  <wgt id="537">5.81193e-12</wgt>
  <wgt id="538">5.89285e-12</wgt>
  <wgt id="539">5.65385e-12</wgt>
  <wgt id="540">5.73728e-12</wgt>
  <wgt id="541">5.71564e-12</wgt>
  <wgt id="542">5.65182e-12</wgt>
  <wgt id="543">5.77901e-12</wgt>
  <wgt id="544">6.0694e-12</wgt>
  <wgt id="545">5.71725e-12</wgt>
  <wgt id="546">5.74585e-12</wgt>
  <wgt id="547">5.61415e-12</wgt>
  <wgt id="548">5.55535e-12</wgt>
  <wgt id="549">5.70369e-12</wgt>
  <wgt id="550">5.84667e-12</wgt>
  <wgt id="551">5.85679e-12</wgt>
  <wgt id="552">5.75072e-12</wgt>
  <wgt id="553">5.78e-12</wgt>
  <wgt id="554">6.22327e-12</wgt>
  <wgt id="555">5.94982e-12</wgt>
  <wgt id="556">5.62666e-12</wgt>
  <wgt id="557">5.86624e-12</wgt>
  <wgt id="558">5.59596e-12</wgt>
  <wgt id="559">5.7292e-12</wgt>
  <wgt id="560">6.22772e-12</wgt>
  <wgt id="561">5.64576e-12</wgt>
  <wgt id="562">5.8497e-12</wgt>
  <wgt id="563">5.63774e-12</wgt>
  <wgt id="564">5.76658e-12</wgt>
  <wgt id="565">5.60507e-12</wgt>
  <wgt id="566">5.84074e-12</wgt>
  <wgt id="567">5.69475e-12</wgt>
  <wgt id="568">5.79705e-12</wgt>
  <wgt id="569">5.82708e-12</wgt>
  <wgt id="570">5.67122e-12</wgt>
  <wgt id="571">6.39564e-12</wgt>
  <wgt id="572">5.65958e-12</wgt>
  <wgt id="573">5.52585e-12</wgt>
  <wgt id="574">5.58429e-12</wgt>
  <wgt id="575">6.33357e-12</wgt>
  <wgt id="576">6.20982e-12</wgt>
  <wgt id="577">6.56584e-12</wgt>
  <wgt id="578">6.43267e-12</wgt>
  <wgt id="579">6.37602e-12</wgt>
  <wgt id="580">6.41085e-12</wgt>
  <wgt id="581">6.68579e-12</wgt>
  <wgt id="582">6.18811e-12</wgt>
  <wgt id="583">6.39364e-12</wgt>
  <wgt id="584">6.34094e-12</wgt>
  <wgt id="585">6.40067e-12</wgt>
  <wgt id="586">6.19547e-12</wgt>
  <wgt id="587">6.39782e-12</wgt>
  <wgt id="588">6.28708e-12</wgt>
  <wgt id="589">6.3842e-12</wgt>
  <wgt id="590">6.43991e-12</wgt>
  <wgt id="591">6.58581e-12</wgt>
  <wgt id="592">6.24545e-12</wgt>
  <wgt id="593">6.30461e-12</wgt>
  <wgt id="594">6.60502e-12</wgt>
  <wgt id="595">6.27835e-12</wgt>
  <wgt id="596">6.41928e-12</wgt>
  <wgt id="597">6.08538e-12</wgt>
  <wgt id="598">6.31139e-12</wgt>
  <wgt id="599">6.66849e-12</wgt>
  <wgt id="600">6.26575e-12</wgt>
  <wgt id="601">6.15359e-12</wgt>
  <wgt id="602">6.23227e-12</wgt>
  <wgt id="603">6.26382e-12</wgt>
  <wgt id="604">6.40993e-12</wgt>
  <wgt id="605">6.5898e-12</wgt>
  <wgt id="606">6.15942e-12</wgt>
  <wgt id="607">6.23437e-12</wgt>
  <wgt id="608">6.29033e-12</wgt>
  <wgt id="609">5.94999e-12</wgt>
  <wgt id="610">6.08447e-12</wgt>
  <wgt id="611">6.4516e-12</wgt>
  <wgt id="612">6.80888e-12</wgt>
  <wgt id="613">6.34902e-12</wgt>
  <wgt id="614">6.41609e-12</wgt>
  <wgt id="615">6.20143e-12</wgt>
  <wgt id="616">6.76973e-12</wgt>
  <wgt id="617">6.56182e-12</wgt>
  <wgt id="618">6.25689e-12</wgt>
  <wgt id="619">6.30676e-12</wgt>
  <wgt id="620">6.53978e-12</wgt>
  <wgt id="621">6.43752e-12</wgt>
  <wgt id="622">6.39782e-12</wgt>
  <wgt id="623">6.4899e-12</wgt>
  <wgt id="624">6.28809e-12</wgt>
  <wgt id="625">6.26701e-12</wgt>
  <wgt id="626">6.21359e-12</wgt>
  <wgt id="627">6.12123e-12</wgt>
  <wgt id="628">6.69027e-12</wgt>
  <wgt id="629">6.19435e-12</wgt>
  <wgt id="630">6.18171e-12</wgt>
  <wgt id="631">6.32705e-12</wgt>
  <wgt id="632">6.17531e-12</wgt>
  <wgt id="633">6.24676e-12</wgt>
  <wgt id="634">6.38506e-12</wgt>
  <wgt id="635">6.31041e-12</wgt>
  <wgt id="636">6.36616e-12</wgt>
  <wgt id="637">6.35627e-12</wgt>
  <wgt id="638">6.11651e-12</wgt>
  <wgt id="639">6.27178e-12</wgt>
  <wgt id="640">6.35034e-12</wgt>
  <wgt id="641">6.32925e-12</wgt>
  <wgt id="642">6.27254e-12</wgt>
  <wgt id="643">6.31551e-12</wgt>
  <wgt id="644">6.15673e-12</wgt>
  <wgt id="645">6.36783e-12</wgt>
  <wgt id="646">6.48275e-12</wgt>
  <wgt id="647">6.22346e-12</wgt>
  <wgt id="648">6.34875e-12</wgt>
  <wgt id="649">6.43311e-12</wgt>
  <wgt id="650">6.22614e-12</wgt>
  <wgt id="651">6.39421e-12</wgt>
  <wgt id="652">6.33482e-12</wgt>
  <wgt id="653">6.17541e-12</wgt>
  <wgt id="654">6.32108e-12</wgt>
  <wgt id="655">6.18895e-12</wgt>
  <wgt id="656">6.32251e-12</wgt>
  <wgt id="657">6.43525e-12</wgt>
  <wgt id="658">6.46475e-12</wgt>
  <wgt id="659">6.11703e-12</wgt>
  <wgt id="660">6.45512e-12</wgt>
  <wgt id="661">6.2424e-12</wgt>
  <wgt id="662">6.30427e-12</wgt>
  <wgt id="663">6.30693e-12</wgt>
  <wgt id="664">6.22455e-12</wgt>
  <wgt id="665">6.30561e-12</wgt>
  <wgt id="666">6.32712e-12</wgt>
  <wgt id="667">6.5238e-12</wgt>
  <wgt id="668">6.29382e-12</wgt>
  <wgt id="669">6.49046e-12</wgt>
  <wgt id="670">6.3903e-12</wgt>
  <wgt id="671">6.22023e-12</wgt>
  <wgt id="672">6.06892e-12</wgt>
  <wgt id="673">6.29397e-12</wgt>
  <wgt id="674">6.20635e-12</wgt>
  <wgt id="675">6.18782e-12</wgt>
  <wgt id="676">7.83996e-12</wgt>
  <wgt id="677">7.95239e-12</wgt>
  <wgt id="678">8.18136e-12</wgt>
  <wgt id="679">7.48171e-12</wgt>
  <wgt id="680">7.54693e-12</wgt>
  <wgt id="681">8.08553e-12</wgt>
  <wgt id="682">7.93507e-12</wgt>
  <wgt id="683">7.7926e-12</wgt>
  <wgt id="684">8.17595e-12</wgt>
  <wgt id="685">7.41728e-12</wgt>
  <wgt id="686">7.91866e-12</wgt>
  <wgt id="687">8.18188e-12</wgt>
  <wgt id="688">7.81094e-12</wgt>
  <wgt id="689">8.39857e-12</wgt>
  <wgt id="690">8.2948e-12</wgt>
  <wgt id="691">8.26155e-12</wgt>
  <wgt id="692">7.82291e-12</wgt>
  <wgt id="693">8.95768e-12</wgt>
  <wgt id="694">8.26377e-12</wgt>
  <wgt id="695">7.58538e-12</wgt>
  <wgt id="696">7.4672e-12</wgt>
  <wgt id="697">7.61309e-12</wgt>
  <wgt id="698">7.41121e-12</wgt>
  <wgt id="699">7.31647e-12</wgt>
  <wgt id="700">7.01204e-12</wgt>
  <wgt id="701">7.85772e-12</wgt>
  <wgt id="702">7.47743e-12</wgt>
  <wgt id="703">8.83041e-12</wgt>
  <wgt id="704">8.3718e-12</wgt>
  <wgt id="705">8.09051e-12</wgt>
  <wgt id="706">7.3158e-12</wgt>
  <wgt id="707">7.55457e-12</wgt>
  <wgt id="708">7.75657e-12</wgt>
  <wgt id="709">7.71928e-12</wgt>
  <wgt id="710">7.02895e-12</wgt>
  <wgt id="711">7.84294e-12</wgt>
  <wgt id="712">7.76008e-12</wgt>
  <wgt id="713">8.35231e-12</wgt>
  <wgt id="714">7.84072e-12</wgt>
  <wgt id="715">7.76497e-12</wgt>
  <wgt id="716">7.56405e-12</wgt>
  <wgt id="717">7.56959e-12</wgt>
  <wgt id="718">7.67161e-12</wgt>
  <wgt id="719">7.2028e-12</wgt>
  <wgt id="720">7.43851e-12</wgt>
  <wgt id="721">7.50798e-12</wgt>
  <wgt id="722">7.15056e-12</wgt>
  <wgt id="723">8.25549e-12</wgt>
  <wgt id="724">8.12771e-12</wgt>
  <wgt id="725">8.28833e-12</wgt>
  <wgt id="726">7.93557e-12</wgt>
  <wgt id="727">7.66164e-12</wgt>
  <wgt id="728">7.79151e-12</wgt>
  <wgt id="729">7.08709e-12</wgt>
  <wgt id="730">8.30238e-12</wgt>
  <wgt id="731">7.77633e-12</wgt>
  <wgt id="732">8.50843e-12</wgt>
  <wgt id="733">7.85497e-12</wgt>
  <wgt id="734">8.02011e-12</wgt>
  <wgt id="735">7.7823e-12</wgt>
  <wgt id="736">7.76136e-12</wgt>
  <wgt id="737">7.97373e-12</wgt>
  <wgt id="738">7.56e-12</wgt>
  <wgt id="739">7.78107e-12</wgt>
  <wgt id="740">8.63378e-12</wgt>
  <wgt id="741">6.98277e-12</wgt>
  <wgt id="742">7.72585e-12</wgt>
  <wgt id="743">7.64207e-12</wgt>
  <wgt id="744">7.69131e-12</wgt>
  <wgt id="745">8.11198e-12</wgt>
  <wgt id="746">8.19556e-12</wgt>
  <wgt id="747">7.29054e-12</wgt>
  <wgt id="748">7.70947e-12</wgt>
  <wgt id="749">8.28877e-12</wgt>
  <wgt id="750">7.70742e-12</wgt>
  <wgt id="751">8.13875e-12</wgt>
  <wgt id="752">7.27064e-12</wgt>
  <wgt id="753">7.49756e-12</wgt>
  <wgt id="754">8.04865e-12</wgt>
  <wgt id="755">7.89938e-12</wgt>
  <wgt id="756">7.8891e-12</wgt>
  <wgt id="757">7.32822e-12</wgt>
  <wgt id="758">7.95795e-12</wgt>
  <wgt id="759">7.74194e-12</wgt>
  <wgt id="760">8.00444e-12</wgt>
  <wgt id="761">8.2445e-12</wgt>
  <wgt id="762">8.23858e-12</wgt>
  <wgt id="763">7.86964e-12</wgt>
  <wgt id="764">8.1021e-12</wgt>
  <wgt id="765">7.90551e-12</wgt>
  <wgt id="766">7.80766e-12</wgt>
  <wgt id="767">8.01399e-12</wgt>
  <wgt id="768">7.48506e-12</wgt>
  <wgt id="769">8.26976e-12</wgt>
  <wgt id="770">7.60695e-12</wgt>
  <wgt id="771">9.12025e-12</wgt>
  <wgt id="772">7.37903e-12</wgt>
  <wgt id="773">7.81895e-12</wgt>
  <wgt id="774">7.15195e-12</wgt>
  <wgt id="775">8.18586e-12</wgt>
  <wgt id="776">8.55743e-12</wgt>
  <wgt id="777">7.65046e-12</wgt>
  <wgt id="778">5.93352e-12</wgt>
  <wgt id="779">5.13542e-12</wgt>
  <wgt id="780">4.41509e-12</wgt>
  <wgt id="781">5.85236e-12</wgt>
  <wgt id="782">6.27313e-12</wgt>
  <wgt id="783">5.24563e-12</wgt>
  <wgt id="784">5.33598e-12</wgt>
  <wgt id="785">7.03931e-12</wgt>
  <wgt id="786">4.6881e-12</wgt>
  <wgt id="787">6.57408e-12</wgt>
  <wgt id="788">4.1056e-12</wgt>
  <wgt id="789">4.79394e-12</wgt>
  <wgt id="790">4.69124e-12</wgt>
  <wgt id="791">5.47538e-12</wgt>
  <wgt id="792">7.45063e-12</wgt>
  <wgt id="793">5.70212e-12</wgt>
  <wgt id="794">4.81329e-12</wgt>
  <wgt id="795">6.68469e-12</wgt>
  <wgt id="796">7.63656e-12</wgt>
  <wgt id="797">6.66086e-12</wgt>
  <wgt id="798">5.59536e-12</wgt>
  <wgt id="799">6.62159e-12</wgt>
  <wgt id="800">4.86876e-12</wgt>
  <wgt id="801">5.64291e-12</wgt>
  <wgt id="802">4.8635e-12</wgt>
  <wgt id="803">7.65914e-12</wgt>
  <wgt id="804">6.64338e-12</wgt>
  <wgt id="805">6.78056e-12</wgt>
  <wgt id="806">6.72706e-12</wgt>
  <wgt id="807">5.71909e-12</wgt>
  <wgt id="808">5.81819e-12</wgt>
  <wgt id="809">5.48815e-12</wgt>
  <wgt id="810">6.78819e-12</wgt>
  <wgt id="811">6.42264e-12</wgt>
  <wgt id="812">4.76986e-12</wgt>
  <wgt id="813">4.81803e-12</wgt>
  <wgt id="814">5.04784e-12</wgt>
  <wgt id="815">5.15571e-12</wgt>
  <wgt id="816">4.58989e-12</wgt>
  <wgt id="817">6.26649e-12</wgt>
  <wgt id="818">5.71786e-12</wgt>
  <wgt id="819">5.15766e-12</wgt>
  <wgt id="820">5.96749e-12</wgt>
  <wgt id="821">6.66929e-12</wgt>
  <wgt id="822">5.21143e-12</wgt>
  <wgt id="823">6.66284e-12</wgt>
  <wgt id="824">7.82238e-12</wgt>
  <wgt id="825">4.62955e-12</wgt>
  <wgt id="826">6.0994e-12</wgt>
  <wgt id="827">3.9274e-12</wgt>
  <wgt id="828">7.57627e-12</wgt>
  <wgt id="829">6.10153e-12</wgt>
  <wgt id="830">4.40747e-12</wgt>
  <wgt id="831">6.28474e-12</wgt>
  <wgt id="832">9.36233e-12</wgt>
  <wgt id="833">5.68184e-12</wgt>
  <wgt id="834">8.75711e-12</wgt>
  <wgt id="835">4.89974e-12</wgt>
  <wgt id="836">6.0194e-12</wgt>
  <wgt id="837">6.58781e-12</wgt>
  <wgt id="838">5.73039e-12</wgt>
  <wgt id="839">6.26204e-12</wgt>
  <wgt id="840">5.67712e-12</wgt>
  <wgt id="841">7.0094e-12</wgt>
  <wgt id="842">5.48654e-12</wgt>
  <wgt id="843">5.73338e-12</wgt>
  <wgt id="844">6.1074e-12</wgt>
  <wgt id="845">7.84376e-12</wgt>
  <wgt id="846">5.4431e-12</wgt>
  <wgt id="847">5.8251e-12</wgt>
  <wgt id="848">5.35457e-12</wgt>
  <wgt id="849">6.05051e-12</wgt>
  <wgt id="850">7.42113e-12</wgt>
  <wgt id="851">6.42259e-12</wgt>
  <wgt id="852">5.30408e-12</wgt>
  <wgt id="853">6.37121e-12</wgt>
  <wgt id="854">7.03491e-12</wgt>
  <wgt id="855">6.66663e-12</wgt>
  <wgt id="856">4.52168e-12</wgt>
  <wgt id="857">6.02966e-12</wgt>
  <wgt id="858">5.92044e-12</wgt>
  <wgt id="859">5.54436e-12</wgt>
  <wgt id="860">6.17149e-12</wgt>
  <wgt id="861">5.40553e-12</wgt>
  <wgt id="862">6.02427e-12</wgt>
  <wgt id="863">6.16074e-12</wgt>
  <wgt id="864">6.20637e-12</wgt>
  <wgt id="865">8.14411e-12</wgt>
  <wgt id="866">8.89574e-12</wgt>
  <wgt id="867">5.95954e-12</wgt>
  <wgt id="868">5.82664e-12</wgt>
  <wgt id="869">4.80559e-12</wgt>
  <wgt id="870">5.04875e-12</wgt>
  <wgt id="871">4.91573e-12</wgt>
  <wgt id="872">6.81451e-12</wgt>
  <wgt id="873">4.99664e-12</wgt>
  <wgt id="874">6.14891e-12</wgt>
  <wgt id="875">5.22594e-12</wgt>
  <wgt id="876">6.83405e-12</wgt>
  <wgt id="877">6.63628e-12</wgt>
  <wgt id="878">5.29585e-12</wgt>
  <wgt id="879">7.83996e-12</wgt>
  <wgt id="880">7.95239e-12</wgt>
  <wgt id="881">8.18136e-12</wgt>
  <wgt id="882">7.48171e-12</wgt>
  <wgt id="883">7.54693e-12</wgt>
  <wgt id="884">8.08553e-12</wgt>
  <wgt id="885">7.93507e-12</wgt>
  <wgt id="886">7.7926e-12</wgt>
  <wgt id="887">8.17595e-12</wgt>
  <wgt id="888">7.41728e-12</wgt>
  <wgt id="889">7.91866e-12</wgt>
  <wgt id="890">8.18188e-12</wgt>
  <wgt id="891">7.81094e-12</wgt>
  <wgt id="892">8.39857e-12</wgt>
  <wgt id="893">8.2948e-12</wgt>
  <wgt id="894">8.26155e-12</wgt>
  <wgt id="895">7.82291e-12</wgt>
  <wgt id="896">8.95768e-12</wgt>
  <wgt id="897">8.26377e-12</wgt>
  <wgt id="898">7.58538e-12</wgt>
  <wgt id="899">7.4672e-12</wgt>
  <wgt id="900">7.61309e-12</wgt>
  <wgt id="901">7.41121e-12</wgt>
  <wgt id="902">7.31647e-12</wgt>
  <wgt id="903">7.01204e-12</wgt>
  <wgt id="904">7.85772e-12</wgt>
  <wgt id="905">7.47743e-12</wgt>
  <wgt id="906">8.83041e-12</wgt>
  <wgt id="907">8.3718e-12</wgt>
  <wgt id="908">8.09051e-12</wgt>
  <wgt id="909">7.3158e-12</wgt>
  <wgt id="910">7.55457e-12</wgt>
  <wgt id="911">7.75657e-12</wgt>
  <wgt id="912">7.71928e-12</wgt>
  <wgt id="913">7.02895e-12</wgt>
  <wgt id="914">7.84294e-12</wgt>
  <wgt id="915">7.76008e-12</wgt>
  <wgt id="916">8.35231e-12</wgt>
  <wgt id="917">7.84072e-12</wgt>
  <wgt id="918">7.76497e-12</wgt>
  <wgt id="919">7.56405e-12</wgt>
  <wgt id="920">7.56959e-12</wgt>
  <wgt id="921">7.67161e-12</wgt>
  <wgt id="922">7.2028e-12</wgt>
  <wgt id="923">7.43851e-12</wgt>
  <wgt id="924">7.50798e-12</wgt>
  <wgt id="925">7.15056e-12</wgt>
  <wgt id="926">8.25549e-12</wgt>
  <wgt id="927">8.12771e-12</wgt>
  <wgt id="928">8.28833e-12</wgt>
  <wgt id="929">7.93557e-12</wgt>
  <wgt id="930">7.66164e-12</wgt>
  <wgt id="931">7.79151e-12</wgt>
  <wgt id="932">7.08709e-12</wgt>
  <wgt id="933">8.30238e-12</wgt>
  <wgt id="934">7.77633e-12</wgt>
  <wgt id="935">8.50843e-12</wgt>
  <wgt id="936">7.85497e-12</wgt>
  <wgt id="937">8.02011e-12</wgt>
  <wgt id="938">7.7823e-12</wgt>
  <wgt id="939">7.76136e-12</wgt>
  <wgt id="940">7.97373e-12</wgt>
  <wgt id="941">7.56e-12</wgt>
  <wgt id="942">7.78107e-12</wgt>
  <wgt id="943">8.63378e-12</wgt>
  <wgt id="944">6.98277e-12</wgt>
  <wgt id="945">7.72585e-12</wgt>
  <wgt id="946">7.64207e-12</wgt>
  <wgt id="947">7.69131e-12</wgt>
  <wgt id="948">8.11198e-12</wgt>
  <wgt id="949">8.19556e-12</wgt>
  <wgt id="950">7.29054e-12</wgt>
  <wgt id="951">7.70947e-12</wgt>
  <wgt id="952">8.28877e-12</wgt>
  <wgt id="953">7.70742e-12</wgt>
  <wgt id="954">8.13875e-12</wgt>
  <wgt id="955">7.27064e-12</wgt>
  <wgt id="956">7.49756e-12</wgt>
  <wgt id="957">8.04865e-12</wgt>
  <wgt id="958">7.89938e-12</wgt>
  <wgt id="959">7.8891e-12</wgt>
  <wgt id="960">7.32822e-12</wgt>
  <wgt id="961">7.95795e-12</wgt>
  <wgt id="962">7.74194e-12</wgt>
  <wgt id="963">8.00444e-12</wgt>
  <wgt id="964">8.2445e-12</wgt>
  <wgt id="965">8.23858e-12</wgt>
  <wgt id="966">7.86964e-12</wgt>
  <wgt id="967">8.1021e-12</wgt>
  <wgt id="968">7.90551e-12</wgt>
  <wgt id="969">7.80766e-12</wgt>
  <wgt id="970">8.01399e-12</wgt>
  <wgt id="971">7.48506e-12</wgt>
  <wgt id="972">8.26976e-12</wgt>
  <wgt id="973">7.60695e-12</wgt>
  <wgt id="974">9.12025e-12</wgt>
  <wgt id="975">7.37903e-12</wgt>
  <wgt id="976">7.81895e-12</wgt>
  <wgt id="977">7.15195e-12</wgt>
  <wgt id="978">8.18586e-12</wgt>
  <wgt id="979">8.55743e-12</wgt>
  <wgt id="980">7.86072e-12</wgt>
  <wgt id="981">7.86276e-12</wgt>
  <wgt id="982">7.62972e-12</wgt>
</rwgt>
</event>
<event>
 5   1  0.5790000E-11  0.2477955E+04  0.7818608E-02  0.7651589E-01
       21   -1    0    0  502  501  0.00000000000E+00  0.00000000000E+00  0.20135805233E+04  0.20135805233E+04  0.00000000000E+00 0. -1.
       21   -1    0    0  501  502 -0.00000000000E+00 -0.00000000000E+00 -0.76235607671E+03  0.76235607671E+03  0.00000000000E+00 0.  1.
       39    2    1    2    0    0  0.00000000000E+00  0.00000000000E+00  0.12512244466E+04  0.27759366000E+04  0.24779550826E+04 0.  0.
       25    1    3    3    0    0  0.46340394558E+03 -0.10603790374E+04  0.11012825516E+04  0.16023717353E+04  0.12500000000E+03 0.  0.
       25    1    3    3    0    0 -0.46340394558E+03  0.10603790374E+04  0.14994189496E+03  0.11735648647E+04  0.12500000000E+03 0.  0.
<mgrwt>
<rscale>  0 0.24779551E+04</rscale>
<asrwt>0</asrwt>
<pdfrwt beam="1">  1       21 0.30978162E+00 0.24779551E+04</pdfrwt>
<pdfrwt beam="2">  1       21 0.11728555E+00 0.24779551E+04</pdfrwt>
<totfact> 0.54417428E+00</totfact>
</mgrwt>
<rwgt>
  <wgt id="1">5.79e-12</wgt>
  <wgt id="2">4.99366e-12</wgt>
  <wgt id="3">6.78861e-12</wgt>
  <wgt id="4">5.79e-12</wgt>
  <wgt id="5">4.99366e-12</wgt>
  <wgt id="6">6.78861e-12</wgt>
  <wgt id="7">5.79e-12</wgt>
  <wgt id="8">4.99366e-12</wgt>
  <wgt id="9">6.78861e-12</wgt>
  <wgt id="10">6.10329e-12</wgt>
  <wgt id="11">6.10043e-12</wgt>
  <wgt id="12">6.08917e-12</wgt>
  <wgt id="13">6.08876e-12</wgt>
  <wgt id="14">6.12397e-12</wgt>
  <wgt id="15">6.11352e-12</wgt>
  <wgt id="16">6.08966e-12</wgt>
  <wgt id="17">6.13281e-12</wgt>
  <wgt id="18">6.09608e-12</wgt>
  <wgt id="19">6.12631e-12</wgt>
  <wgt id="20">6.09803e-12</wgt>
  <wgt id="21">6.05493e-12</wgt>
  <wgt id="22">6.06139e-12</wgt>
  <wgt id="23">6.01306e-12</wgt>
  <wgt id="24">6.05832e-12</wgt>
  <wgt id="25">6.07989e-12</wgt>
  <wgt id="26">6.12203e-12</wgt>
  <wgt id="27">6.09263e-12</wgt>
  <wgt id="28">6.06448e-12</wgt>
  <wgt id="29">6.10586e-12</wgt>
  <wgt id="30">6.05697e-12</wgt>
  <wgt id="31">6.13074e-12</wgt>
  <wgt id="32">6.06212e-12</wgt>
  <wgt id="33">6.11287e-12</wgt>
  <wgt id="34">6.06527e-12</wgt>
  <wgt id="35">6.06681e-12</wgt>
  <wgt id="36">6.13198e-12</wgt>
  <wgt id="37">6.08261e-12</wgt>
  <wgt id="38">6.07816e-12</wgt>
  <wgt id="39">6.20835e-12</wgt>
  <wgt id="40">6.11111e-12</wgt>
  <wgt id="41">6.09865e-12</wgt>
  <wgt id="42">6.11825e-12</wgt>
  <wgt id="43">6.10752e-12</wgt>
  <wgt id="44">6.12378e-12</wgt>
  <wgt id="45">6.11194e-12</wgt>
  <wgt id="46">6.08287e-12</wgt>
  <wgt id="47">6.14704e-12</wgt>
  <wgt id="48">6.13309e-12</wgt>
  <wgt id="49">6.07751e-12</wgt>
  <wgt id="50">6.06449e-12</wgt>
  <wgt id="51">6.0735e-12</wgt>
  <wgt id="52">6.11444e-12</wgt>
  <wgt id="53">6.1438e-12</wgt>
  <wgt id="54">6.12703e-12</wgt>
  <wgt id="55">6.10159e-12</wgt>
  <wgt id="56">6.08523e-12</wgt>
  <wgt id="57">6.07664e-12</wgt>
  <wgt id="58">6.09407e-12</wgt>
  <wgt id="59">6.10829e-12</wgt>
  <wgt id="60">6.06394e-12</wgt>
  <wgt id="61">6.06738e-12</wgt>
  <wgt id="62">6.08783e-12</wgt>
  <wgt id="63">6.09767e-12</wgt>
  <wgt id="64">6.09926e-12</wgt>
  <wgt id="65">6.08537e-12</wgt>
  <wgt id="66">6.10581e-12</wgt>
  <wgt id="67">6.0888e-12</wgt>
  <wgt id="68">6.10144e-12</wgt>
  <wgt id="69">6.09397e-12</wgt>
  <wgt id="70">6.08998e-12</wgt>
  <wgt id="71">6.09728e-12</wgt>
  <wgt id="72">6.06854e-12</wgt>
  <wgt id="73">6.12801e-12</wgt>
  <wgt id="74">6.12196e-12</wgt>
  <wgt id="75">6.1039e-12</wgt>
  <wgt id="76">6.14099e-12</wgt>
  <wgt id="77">6.09285e-12</wgt>
  <wgt id="78">6.09742e-12</wgt>
  <wgt id="79">6.12013e-12</wgt>
  <wgt id="80">6.055e-12</wgt>
  <wgt id="81">6.10272e-12</wgt>
  <wgt id="82">6.10825e-12</wgt>
  <wgt id="83">6.0672e-12</wgt>
  <wgt id="84">6.08685e-12</wgt>
  <wgt id="85">6.08083e-12</wgt>
  <wgt id="86">6.12568e-12</wgt>
  <wgt id="87">6.05061e-12</wgt>
  <wgt id="88">6.11795e-12</wgt>
  <wgt id="89">6.11206e-12</wgt>
  <wgt id="90">6.12504e-12</wgt>
  <wgt id="91">6.11074e-12</wgt>
  <wgt id="92">6.11932e-12</wgt>
  <wgt id="93">6.11171e-12</wgt>
  <wgt id="94">6.08903e-12</wgt>
  <wgt id="95">6.12484e-12</wgt>
  <wgt id="96">6.11684e-12</wgt>
  <wgt id="97">6.08076e-12</wgt>
  <wgt id="98">6.10314e-12</wgt>
  <wgt id="99">6.0912e-12</wgt>
  <wgt id="100">6.11845e-12</wgt>
  <wgt id="101">6.09868e-12</wgt>
  <wgt id="102">6.09463e-12</wgt>
  <wgt id="103">6.12403e-12</wgt>
  <wgt id="104">6.09228e-12</wgt>
  <wgt id="105">6.11576e-12</wgt>
  <wgt id="106">6.08807e-12</wgt>
  <wgt id="107">6.13775e-12</wgt>
  <wgt id="108">6.09174e-12</wgt>
  <wgt id="109">6.10988e-12</wgt>
  <wgt id="110">6.10042e-12</wgt>
  <wgt id="111">6.12499e-12</wgt>
  <wgt id="112">6.16937e-12</wgt>
  <wgt id="113">8.77589e-12</wgt>
  <wgt id="114">8.31562e-12</wgt>
  <wgt id="115">8.16994e-12</wgt>
  <wgt id="116">1.15769e-11</wgt>
  <wgt id="117">6.81414e-12</wgt>
  <wgt id="118">6.84095e-12</wgt>
  <wgt id="119">6.79887e-12</wgt>
  <wgt id="120">6.81438e-12</wgt>
  <wgt id="121">6.81398e-12</wgt>
  <wgt id="122">6.80338e-12</wgt>
  <wgt id="123">6.82913e-12</wgt>
  <wgt id="124">6.80516e-12</wgt>
  <wgt id="125">6.81995e-12</wgt>
  <wgt id="126">6.82569e-12</wgt>
  <wgt id="127">6.80644e-12</wgt>
  <wgt id="128">6.83506e-12</wgt>
  <wgt id="129">6.79335e-12</wgt>
  <wgt id="130">6.85001e-12</wgt>
  <wgt id="131">6.77714e-12</wgt>
  <wgt id="132">6.62335e-12</wgt>
  <wgt id="133">7.04194e-12</wgt>
  <wgt id="134">6.73818e-12</wgt>
  <wgt id="135">6.87378e-12</wgt>
  <wgt id="136">6.91867e-12</wgt>
  <wgt id="137">6.68846e-12</wgt>
  <wgt id="138">7.12501e-12</wgt>
  <wgt id="139">6.51895e-12</wgt>
  <wgt id="140">6.77939e-12</wgt>
  <wgt id="141">6.84066e-12</wgt>
  <wgt id="142">6.81293e-12</wgt>
  <wgt id="143">6.83387e-12</wgt>
  <wgt id="144">6.53507e-12</wgt>
  <wgt id="145">7.08465e-12</wgt>
  <wgt id="146">6.90404e-12</wgt>
  <wgt id="147">6.74099e-12</wgt>
  <wgt id="148">6.83945e-12</wgt>
  <wgt id="149">6.81237e-12</wgt>
  <wgt id="150">6.87333e-12</wgt>
  <wgt id="151">6.78645e-12</wgt>
  <wgt id="152">6.81669e-12</wgt>
  <wgt id="153">6.81329e-12</wgt>
  <wgt id="154">6.83599e-12</wgt>
  <wgt id="155">6.77755e-12</wgt>
  <wgt id="156">7.03903e-12</wgt>
  <wgt id="157">6.60753e-12</wgt>
  <wgt id="158">8.16865e-12</wgt>
  <wgt id="159">8.20337e-12</wgt>
  <wgt id="160">8.14058e-12</wgt>
  <wgt id="161">8.14644e-12</wgt>
  <wgt id="162">8.1933e-12</wgt>
  <wgt id="163">8.15879e-12</wgt>
  <wgt id="164">8.18314e-12</wgt>
  <wgt id="165">8.17169e-12</wgt>
  <wgt id="166">8.16621e-12</wgt>
  <wgt id="167">8.16294e-12</wgt>
  <wgt id="168">8.17642e-12</wgt>
  <wgt id="169">8.13536e-12</wgt>
  <wgt id="170">8.18925e-12</wgt>
  <wgt id="171">8.16102e-12</wgt>
  <wgt id="172">8.17921e-12</wgt>
  <wgt id="173">8.15603e-12</wgt>
  <wgt id="174">8.17275e-12</wgt>
  <wgt id="175">7.92371e-12</wgt>
  <wgt id="176">8.49002e-12</wgt>
  <wgt id="177">8.21038e-12</wgt>
  <wgt id="178">8.13062e-12</wgt>
  <wgt id="179">8.58451e-12</wgt>
  <wgt id="180">7.52658e-12</wgt>
  <wgt id="181">7.89308e-12</wgt>
  <wgt id="182">8.35221e-12</wgt>
  <wgt id="183">8.00138e-12</wgt>
  <wgt id="184">8.25169e-12</wgt>
  <wgt id="185">8.0805e-12</wgt>
  <wgt id="186">8.27617e-12</wgt>
  <wgt id="187">8.079e-12</wgt>
  <wgt id="188">8.32762e-12</wgt>
  <wgt id="189">8.10435e-12</wgt>
  <wgt id="190">8.19462e-12</wgt>
  <wgt id="191">8.19718e-12</wgt>
  <wgt id="192">8.15171e-12</wgt>
  <wgt id="193">8.30751e-12</wgt>
  <wgt id="194">8.09909e-12</wgt>
  <wgt id="195">7.87108e-12</wgt>
  <wgt id="196">8.65676e-12</wgt>
  <wgt id="197">8.21378e-12</wgt>
  <wgt id="198">8.15776e-12</wgt>
  <wgt id="199">8.16865e-12</wgt>
  <wgt id="200">8.24828e-12</wgt>
  <wgt id="201">8.22085e-12</wgt>
  <wgt id="202">8.19432e-12</wgt>
  <wgt id="203">8.15569e-12</wgt>
  <wgt id="204">8.1364e-12</wgt>
  <wgt id="205">8.1207e-12</wgt>
  <wgt id="206">7.9527e-12</wgt>
  <wgt id="207">8.00065e-12</wgt>
  <wgt id="208">7.90532e-12</wgt>
  <wgt id="209">7.97932e-12</wgt>
  <wgt id="210">7.93327e-12</wgt>
  <wgt id="211">7.94948e-12</wgt>
  <wgt id="212">7.95526e-12</wgt>
  <wgt id="213">7.95197e-12</wgt>
  <wgt id="214">7.95372e-12</wgt>
  <wgt id="215">7.95929e-12</wgt>
  <wgt id="216">7.94799e-12</wgt>
  <wgt id="217">7.97313e-12</wgt>
  <wgt id="218">7.93696e-12</wgt>
  <wgt id="219">7.94511e-12</wgt>
  <wgt id="220">7.9573e-12</wgt>
  <wgt id="221">7.95403e-12</wgt>
  <wgt id="222">7.94784e-12</wgt>
  <wgt id="223">7.49166e-12</wgt>
  <wgt id="224">8.3757e-12</wgt>
  <wgt id="225">7.85027e-12</wgt>
  <wgt id="226">8.08278e-12</wgt>
  <wgt id="227">7.87367e-12</wgt>
  <wgt id="228">7.98736e-12</wgt>
  <wgt id="229">7.83551e-12</wgt>
  <wgt id="230">8.01098e-12</wgt>
  <wgt id="231">8.22187e-12</wgt>
  <wgt id="232">7.73277e-12</wgt>
  <wgt id="233">7.9029e-12</wgt>
  <wgt id="234">8.03576e-12</wgt>
  <wgt id="235">7.64457e-12</wgt>
  <wgt id="236">8.20679e-12</wgt>
  <wgt id="237">7.7703e-12</wgt>
  <wgt id="238">8.01355e-12</wgt>
  <wgt id="239">7.87863e-12</wgt>
  <wgt id="240">8.0855e-12</wgt>
  <wgt id="241">7.85547e-12</wgt>
  <wgt id="242">8.06869e-12</wgt>
  <wgt id="243">8.09606e-12</wgt>
  <wgt id="244">7.95893e-12</wgt>
  <wgt id="245">7.94934e-12</wgt>
  <wgt id="246">8.00019e-12</wgt>
  <wgt id="247">7.9527e-12</wgt>
  <wgt id="248">8.0368e-12</wgt>
  <wgt id="249">8.00738e-12</wgt>
  <wgt id="250">7.97715e-12</wgt>
  <wgt id="251">7.93563e-12</wgt>
  <wgt id="252">7.9147e-12</wgt>
  <wgt id="253">7.90021e-12</wgt>
  <wgt id="254">7.69653e-12</wgt>
  <wgt id="255">7.70367e-12</wgt>
  <wgt id="256">7.68889e-12</wgt>
  <wgt id="257">7.70236e-12</wgt>
  <wgt id="258">7.69229e-12</wgt>
  <wgt id="259">7.74842e-12</wgt>
  <wgt id="260">7.64645e-12</wgt>
  <wgt id="261">7.71067e-12</wgt>
  <wgt id="262">7.67988e-12</wgt>
  <wgt id="263">7.69093e-12</wgt>
  <wgt id="264">7.70325e-12</wgt>
  <wgt id="265">7.68654e-12</wgt>
  <wgt id="266">7.71678e-12</wgt>
  <wgt id="267">7.69931e-12</wgt>
  <wgt id="268">7.6927e-12</wgt>
  <wgt id="269">7.72246e-12</wgt>
  <wgt id="270">7.679e-12</wgt>
  <wgt id="271">7.67736e-12</wgt>
  <wgt id="272">7.71797e-12</wgt>
  <wgt id="273">7.67426e-12</wgt>
  <wgt id="274">7.71362e-12</wgt>
  <wgt id="275">7.65132e-12</wgt>
  <wgt id="276">7.74345e-12</wgt>
  <wgt id="277">7.65078e-12</wgt>
  <wgt id="278">7.73833e-12</wgt>
  <wgt id="279">7.54502e-12</wgt>
  <wgt id="280">7.88761e-12</wgt>
  <wgt id="281">7.65867e-12</wgt>
  <wgt id="282">7.70572e-12</wgt>
  <wgt id="283">7.44212e-12</wgt>
  <wgt id="284">8.01397e-12</wgt>
  <wgt id="285">7.27838e-12</wgt>
  <wgt id="286">8.04966e-12</wgt>
  <wgt id="287">7.72392e-12</wgt>
  <wgt id="288">7.66153e-12</wgt>
  <wgt id="289">7.75936e-12</wgt>
  <wgt id="290">7.5569e-12</wgt>
  <wgt id="291">7.6671e-12</wgt>
  <wgt id="292">7.69832e-12</wgt>
  <wgt id="293">7.6283e-12</wgt>
  <wgt id="294">7.76456e-12</wgt>
  <wgt id="295">7.53178e-12</wgt>
  <wgt id="296">7.89869e-12</wgt>
  <wgt id="297">7.67914e-12</wgt>
  <wgt id="298">7.73669e-12</wgt>
  <wgt id="299">7.66946e-12</wgt>
  <wgt id="300">7.76865e-12</wgt>
  <wgt id="301">7.53709e-12</wgt>
  <wgt id="302">8.0644e-12</wgt>
  <wgt id="303">7.61112e-12</wgt>
  <wgt id="304">7.74452e-12</wgt>
  <wgt id="305">7.64172e-12</wgt>
  <wgt id="306">7.64917e-12</wgt>
  <wgt id="307">7.63384e-12</wgt>
  <wgt id="308">7.64813e-12</wgt>
  <wgt id="309">7.63754e-12</wgt>
  <wgt id="310">7.69478e-12</wgt>
  <wgt id="311">7.59279e-12</wgt>
  <wgt id="312">7.65447e-12</wgt>
  <wgt id="313">7.62825e-12</wgt>
  <wgt id="314">7.63591e-12</wgt>
  <wgt id="315">7.64733e-12</wgt>
  <wgt id="316">7.63169e-12</wgt>
  <wgt id="317">7.66351e-12</wgt>
  <wgt id="318">7.64781e-12</wgt>
  <wgt id="319">7.63112e-12</wgt>
  <wgt id="320">7.66947e-12</wgt>
  <wgt id="321">7.62631e-12</wgt>
  <wgt id="322">7.62021e-12</wgt>
  <wgt id="323">7.66676e-12</wgt>
  <wgt id="324">7.62452e-12</wgt>
  <wgt id="325">7.65678e-12</wgt>
  <wgt id="326">7.60479e-12</wgt>
  <wgt id="327">7.68915e-12</wgt>
  <wgt id="328">7.60171e-12</wgt>
  <wgt id="329">7.66395e-12</wgt>
  <wgt id="330">7.87079e-12</wgt>
  <wgt id="331">7.42413e-12</wgt>
  <wgt id="332">7.61021e-12</wgt>
  <wgt id="333">7.64735e-12</wgt>
  <wgt id="334">7.44708e-12</wgt>
  <wgt id="335">7.88591e-12</wgt>
  <wgt id="336">7.34419e-12</wgt>
  <wgt id="337">8.01036e-12</wgt>
  <wgt id="338">7.73727e-12</wgt>
  <wgt id="339">7.55379e-12</wgt>
  <wgt id="340">7.69881e-12</wgt>
  <wgt id="341">7.50046e-12</wgt>
  <wgt id="342">7.62051e-12</wgt>
  <wgt id="343">7.62821e-12</wgt>
  <wgt id="344">7.58174e-12</wgt>
  <wgt id="345">7.71162e-12</wgt>
  <wgt id="346">7.4728e-12</wgt>
  <wgt id="347">7.83589e-12</wgt>
  <wgt id="348">7.62563e-12</wgt>
  <wgt id="349">7.67781e-12</wgt>
  <wgt id="350">7.60831e-12</wgt>
  <wgt id="351">7.72684e-12</wgt>
  <wgt id="352">7.4766e-12</wgt>
  <wgt id="353">8.00534e-12</wgt>
  <wgt id="354">7.5185e-12</wgt>
  <wgt id="355">7.71508e-12</wgt>
  <wgt id="356">7.69653e-12</wgt>
  <wgt id="357">7.65158e-12</wgt>
  <wgt id="358">7.64172e-12</wgt>
  <wgt id="359">7.69979e-12</wgt>
  <wgt id="360">7.82019e-12</wgt>
  <wgt id="361">7.73528e-12</wgt>
  <wgt id="362">7.89239e-12</wgt>
  <wgt id="363">7.8714e-12</wgt>
  <wgt id="364">7.83337e-12</wgt>
  <wgt id="365">7.80292e-12</wgt>
  <wgt id="366">7.77133e-12</wgt>
  <wgt id="367">7.7108e-12</wgt>
  <wgt id="368">7.67331e-12</wgt>
  <wgt id="369">7.63293e-12</wgt>
  <wgt id="370">7.73528e-12</wgt>
  <wgt id="371">7.76857e-12</wgt>
  <wgt id="372">7.74993e-12</wgt>
  <wgt id="373">7.72337e-12</wgt>
  <wgt id="374">7.73123e-12</wgt>
  <wgt id="375">8.75257e-12</wgt>
  <wgt id="376">8.75349e-12</wgt>
  <wgt id="377">8.75131e-12</wgt>
  <wgt id="378">8.78578e-12</wgt>
  <wgt id="379">8.71956e-12</wgt>
  <wgt id="380">8.77717e-12</wgt>
  <wgt id="381">8.74274e-12</wgt>
  <wgt id="382">8.79691e-12</wgt>
  <wgt id="383">8.70864e-12</wgt>
  <wgt id="384">8.75833e-12</wgt>
  <wgt id="385">8.74705e-12</wgt>
  <wgt id="386">8.78495e-12</wgt>
  <wgt id="387">8.73863e-12</wgt>
  <wgt id="388">8.7444e-12</wgt>
  <wgt id="389">8.76258e-12</wgt>
  <wgt id="390">8.77446e-12</wgt>
  <wgt id="391">8.72927e-12</wgt>
  <wgt id="392">8.67132e-12</wgt>
  <wgt id="393">8.79871e-12</wgt>
  <wgt id="394">8.76037e-12</wgt>
  <wgt id="395">8.74151e-12</wgt>
  <wgt id="396">8.76766e-12</wgt>
  <wgt id="397">8.74174e-12</wgt>
  <wgt id="398">8.72819e-12</wgt>
  <wgt id="399">8.77613e-12</wgt>
  <wgt id="400">8.73728e-12</wgt>
  <wgt id="401">8.78682e-12</wgt>
  <wgt id="402">8.66923e-12</wgt>
  <wgt id="403">8.80257e-12</wgt>
  <wgt id="404">9.00657e-12</wgt>
  <wgt id="405">8.14886e-12</wgt>
  <wgt id="406">8.57074e-12</wgt>
  <wgt id="407">9.15598e-12</wgt>
  <wgt id="408">8.84766e-12</wgt>
  <wgt id="409">8.5765e-12</wgt>
  <wgt id="410">8.45751e-12</wgt>
  <wgt id="411">8.89435e-12</wgt>
  <wgt id="412">8.73226e-12</wgt>
  <wgt id="413">8.78319e-12</wgt>
  <wgt id="414">8.63489e-12</wgt>
  <wgt id="415">8.84411e-12</wgt>
  <wgt id="416">9.05362e-12</wgt>
  <wgt id="417">8.33983e-12</wgt>
  <wgt id="418">8.76963e-12</wgt>
  <wgt id="419">8.66108e-12</wgt>
  <wgt id="420">8.96809e-12</wgt>
  <wgt id="421">8.61159e-12</wgt>
  <wgt id="422">8.70155e-12</wgt>
  <wgt id="423">8.77677e-12</wgt>
  <wgt id="424">9.01512e-12</wgt>
  <wgt id="425">8.57641e-12</wgt>
  <wgt id="426">8.75257e-12</wgt>
  <wgt id="427">8.58873e-12</wgt>
  <wgt id="428">9.14005e-12</wgt>
  <wgt id="429">8.87104e-12</wgt>
  <wgt id="430">9.16657e-12</wgt>
  <wgt id="431">9.10639e-12</wgt>
  <wgt id="432">9.05178e-12</wgt>
  <wgt id="433">8.9981e-12</wgt>
  <wgt id="434">8.93014e-12</wgt>
  <wgt id="435">8.79696e-12</wgt>
  <wgt id="436">8.72976e-12</wgt>
  <wgt id="437">8.66437e-12</wgt>
  <wgt id="438">8.87104e-12</wgt>
  <wgt id="439">8.89877e-12</wgt>
  <wgt id="440">8.8816e-12</wgt>
  <wgt id="441">8.86355e-12</wgt>
  <wgt id="442">8.85769e-12</wgt>
  <wgt id="443">8.08058e-12</wgt>
  <wgt id="444">8.1612e-12</wgt>
  <wgt id="445">8.13682e-12</wgt>
  <wgt id="446">8.02161e-12</wgt>
  <wgt id="447">8.07438e-12</wgt>
  <wgt id="448">7.86999e-12</wgt>
  <wgt id="449">8.2479e-12</wgt>
  <wgt id="450">8.15779e-12</wgt>
  <wgt id="451">8.05816e-12</wgt>
  <wgt id="452">8.2713e-12</wgt>
  <wgt id="453">8.18411e-12</wgt>
  <wgt id="454">7.66375e-12</wgt>
  <wgt id="455">8.13728e-12</wgt>
  <wgt id="456">8.19405e-12</wgt>
  <wgt id="457">8.11227e-12</wgt>
  <wgt id="458">8.21789e-12</wgt>
  <wgt id="459">8.15334e-12</wgt>
  <wgt id="460">8.22219e-12</wgt>
  <wgt id="461">7.882e-12</wgt>
  <wgt id="462">8.01334e-12</wgt>
  <wgt id="463">7.95256e-12</wgt>
  <wgt id="464">8.03578e-12</wgt>
  <wgt id="465">8.17498e-12</wgt>
  <wgt id="466">7.89685e-12</wgt>
  <wgt id="467">8.00789e-12</wgt>
  <wgt id="468">8.06908e-12</wgt>
  <wgt id="469">8.05569e-12</wgt>
  <wgt id="470">7.95878e-12</wgt>
  <wgt id="471">7.97789e-12</wgt>
  <wgt id="472">8.13715e-12</wgt>
  <wgt id="473">7.78978e-12</wgt>
  <wgt id="474">5.79e-12</wgt>
  <wgt id="475">5.834e-12</wgt>
  <wgt id="476">5.74769e-12</wgt>
  <wgt id="477">5.87458e-12</wgt>
  <wgt id="478">5.85603e-12</wgt>
  <wgt id="479">5.52662e-12</wgt>
  <wgt id="480">6.08198e-12</wgt>
  <wgt id="481">5.80768e-12</wgt>
  <wgt id="482">5.7608e-12</wgt>
  <wgt id="483">5.77235e-12</wgt>
  <wgt id="484">6.05857e-12</wgt>
  <wgt id="485">5.37719e-12</wgt>
  <wgt id="486">6.07006e-12</wgt>
  <wgt id="487">5.67606e-12</wgt>
  <wgt id="488">5.85547e-12</wgt>
  <wgt id="489">5.2517e-12</wgt>
  <wgt id="490">5.65923e-12</wgt>
  <wgt id="491">5.71116e-12</wgt>
  <wgt id="492">5.67774e-12</wgt>
  <wgt id="493">5.38299e-12</wgt>
  <wgt id="494">5.41421e-12</wgt>
  <wgt id="495">5.82061e-12</wgt>
  <wgt id="496">5.51264e-12</wgt>
  <wgt id="497">5.42471e-12</wgt>
  <wgt id="498">5.95493e-12</wgt>
  <wgt id="499">5.80601e-12</wgt>
  <wgt id="500">5.6936e-12</wgt>
  <wgt id="501">6.04678e-12</wgt>
  <wgt id="502">5.95572e-12</wgt>
  <wgt id="503">5.69951e-12</wgt>
  <wgt id="504">5.97117e-12</wgt>
  <wgt id="505">5.99818e-12</wgt>
  <wgt id="506">5.4521e-12</wgt>
  <wgt id="507">5.71663e-12</wgt>
  <wgt id="508">6.07135e-12</wgt>
  <wgt id="509">5.57556e-12</wgt>
  <wgt id="510">5.87716e-12</wgt>
  <wgt id="511">5.51572e-12</wgt>
  <wgt id="512">6.1492e-12</wgt>
  <wgt id="513">6.05111e-12</wgt>
  <wgt id="514">6.05443e-12</wgt>
  <wgt id="515">5.90365e-12</wgt>
  <wgt id="516">6.34056e-12</wgt>
  <wgt id="517">5.9312e-12</wgt>
  <wgt id="518">5.99204e-12</wgt>
  <wgt id="519">5.55335e-12</wgt>
  <wgt id="520">5.88574e-12</wgt>
  <wgt id="521">5.71764e-12</wgt>
  <wgt id="522">6.03537e-12</wgt>
  <wgt id="523">5.56341e-12</wgt>
  <wgt id="524">5.89383e-12</wgt>
  <wgt id="525">5.73802e-12</wgt>
  <wgt id="526">6.05289e-12</wgt>
  <wgt id="527">5.74367e-12</wgt>
  <wgt id="528">5.79045e-12</wgt>
  <wgt id="529">5.55476e-12</wgt>
  <wgt id="530">6.05777e-12</wgt>
  <wgt id="531">5.57105e-12</wgt>
  <wgt id="532">6.27587e-12</wgt>
  <wgt id="533">5.70144e-12</wgt>
  <wgt id="534">5.60463e-12</wgt>
  <wgt id="535">5.84049e-12</wgt>
  <wgt id="536">5.96021e-12</wgt>
  <wgt id="537">5.54748e-12</wgt>
  <wgt id="538">5.76117e-12</wgt>
  <wgt id="539">5.64939e-12</wgt>
  <wgt id="540">6.08024e-12</wgt>
  <wgt id="541">5.75801e-12</wgt>
  <wgt id="542">5.67672e-12</wgt>
  <wgt id="543">5.61109e-12</wgt>
  <wgt id="544">5.88323e-12</wgt>
  <wgt id="545">5.51311e-12</wgt>
  <wgt id="546">5.39691e-12</wgt>
  <wgt id="547">5.58783e-12</wgt>
  <wgt id="548">5.57726e-12</wgt>
  <wgt id="549">5.67089e-12</wgt>
  <wgt id="550">5.65438e-12</wgt>
  <wgt id="551">5.82503e-12</wgt>
  <wgt id="552">5.37414e-12</wgt>
  <wgt id="553">5.488e-12</wgt>
  <wgt id="554">6.11894e-12</wgt>
  <wgt id="555">5.93554e-12</wgt>
  <wgt id="556">5.65923e-12</wgt>
  <wgt id="557">5.92369e-12</wgt>
  <wgt id="558">5.70592e-12</wgt>
  <wgt id="559">5.82311e-12</wgt>
  <wgt id="560">6.41809e-12</wgt>
  <wgt id="561">5.89098e-12</wgt>
  <wgt id="562">5.99184e-12</wgt>
  <wgt id="563">6.29891e-12</wgt>
  <wgt id="564">6.08135e-12</wgt>
  <wgt id="565">5.90886e-12</wgt>
  <wgt id="566">5.65834e-12</wgt>
  <wgt id="567">5.77254e-12</wgt>
  <wgt id="568">5.60763e-12</wgt>
  <wgt id="569">5.82915e-12</wgt>
  <wgt id="570">5.7065e-12</wgt>
  <wgt id="571">6.43491e-12</wgt>
  <wgt id="572">5.59741e-12</wgt>
  <wgt id="573">5.60647e-12</wgt>
  <wgt id="574">5.63656e-12</wgt>
  <wgt id="575">6.42127e-12</wgt>
  <wgt id="576">6.90824e-12</wgt>
  <wgt id="577">6.68977e-12</wgt>
  <wgt id="578">6.52933e-12</wgt>
  <wgt id="579">6.66153e-12</wgt>
  <wgt id="580">6.81175e-12</wgt>
  <wgt id="581">7.0669e-12</wgt>
  <wgt id="582">6.79101e-12</wgt>
  <wgt id="583">6.53769e-12</wgt>
  <wgt id="584">6.36264e-12</wgt>
  <wgt id="585">6.01208e-12</wgt>
  <wgt id="586">6.06293e-12</wgt>
  <wgt id="587">6.53875e-12</wgt>
  <wgt id="588">6.9249e-12</wgt>
  <wgt id="589">6.96256e-12</wgt>
  <wgt id="590">6.39171e-12</wgt>
  <wgt id="591">6.61052e-12</wgt>
  <wgt id="592">5.99696e-12</wgt>
  <wgt id="593">6.24902e-12</wgt>
  <wgt id="594">6.31579e-12</wgt>
  <wgt id="595">6.69272e-12</wgt>
  <wgt id="596">7.45001e-12</wgt>
  <wgt id="597">6.47485e-12</wgt>
  <wgt id="598">6.48125e-12</wgt>
  <wgt id="599">6.8212e-12</wgt>
  <wgt id="600">6.77314e-12</wgt>
  <wgt id="601">6.15892e-12</wgt>
  <wgt id="602">6.22768e-12</wgt>
  <wgt id="603">6.04648e-12</wgt>
  <wgt id="604">6.57747e-12</wgt>
  <wgt id="605">6.51365e-12</wgt>
  <wgt id="606">6.50332e-12</wgt>
  <wgt id="607">6.66175e-12</wgt>
  <wgt id="608">6.64987e-12</wgt>
  <wgt id="609">6.29671e-12</wgt>
  <wgt id="610">6.14307e-12</wgt>
  <wgt id="611">6.17974e-12</wgt>
  <wgt id="612">6.68963e-12</wgt>
  <wgt id="613">6.14132e-12</wgt>
  <wgt id="614">6.38305e-12</wgt>
  <wgt id="615">6.48964e-12</wgt>
  <wgt id="616">6.24307e-12</wgt>
  <wgt id="617">6.6797e-12</wgt>
  <wgt id="618">7.00807e-12</wgt>
  <wgt id="619">6.28835e-12</wgt>
  <wgt id="620">6.64277e-12</wgt>
  <wgt id="621">6.36407e-12</wgt>
  <wgt id="622">6.53875e-12</wgt>
  <wgt id="623">6.46372e-12</wgt>
  <wgt id="624">6.45592e-12</wgt>
  <wgt id="625">6.13726e-12</wgt>
  <wgt id="626">5.78705e-12</wgt>
  <wgt id="627">5.84173e-12</wgt>
  <wgt id="628">6.44693e-12</wgt>
  <wgt id="629">6.48356e-12</wgt>
  <wgt id="630">6.26162e-12</wgt>
  <wgt id="631">6.57153e-12</wgt>
  <wgt id="632">5.88652e-12</wgt>
  <wgt id="633">6.37634e-12</wgt>
  <wgt id="634">6.17269e-12</wgt>
  <wgt id="635">5.94033e-12</wgt>
  <wgt id="636">6.49103e-12</wgt>
  <wgt id="637">6.4087e-12</wgt>
  <wgt id="638">6.11727e-12</wgt>
  <wgt id="639">6.1576e-12</wgt>
  <wgt id="640">6.27963e-12</wgt>
  <wgt id="641">6.70224e-12</wgt>
  <wgt id="642">5.97688e-12</wgt>
  <wgt id="643">6.26465e-12</wgt>
  <wgt id="644">5.77937e-12</wgt>
  <wgt id="645">6.42034e-12</wgt>
  <wgt id="646">5.98102e-12</wgt>
  <wgt id="647">6.47136e-12</wgt>
  <wgt id="648">6.69157e-12</wgt>
  <wgt id="649">6.46247e-12</wgt>
  <wgt id="650">6.13509e-12</wgt>
  <wgt id="651">6.83601e-12</wgt>
  <wgt id="652">6.17209e-12</wgt>
  <wgt id="653">6.17457e-12</wgt>
  <wgt id="654">6.48265e-12</wgt>
  <wgt id="655">6.16562e-12</wgt>
  <wgt id="656">6.43303e-12</wgt>
  <wgt id="657">6.9904e-12</wgt>
  <wgt id="658">6.47938e-12</wgt>
  <wgt id="659">6.14495e-12</wgt>
  <wgt id="660">6.25103e-12</wgt>
  <wgt id="661">6.25283e-12</wgt>
  <wgt id="662">6.31208e-12</wgt>
  <wgt id="663">6.52132e-12</wgt>
  <wgt id="664">6.47193e-12</wgt>
  <wgt id="665">6.35076e-12</wgt>
  <wgt id="666">6.27592e-12</wgt>
  <wgt id="667">6.75997e-12</wgt>
  <wgt id="668">6.34691e-12</wgt>
  <wgt id="669">6.4283e-12</wgt>
  <wgt id="670">6.72392e-12</wgt>
  <wgt id="671">6.47134e-12</wgt>
  <wgt id="672">6.22449e-12</wgt>
  <wgt id="673">6.78318e-12</wgt>
  <wgt id="674">6.22667e-12</wgt>
  <wgt id="675">6.18944e-12</wgt>
  <wgt id="676">8.35863e-12</wgt>
  <wgt id="677">8.44071e-12</wgt>
  <wgt id="678">9.13999e-12</wgt>
  <wgt id="679">8.43169e-12</wgt>
  <wgt id="680">8.39807e-12</wgt>
  <wgt id="681">8.19713e-12</wgt>
  <wgt id="682">8.75756e-12</wgt>
  <wgt id="683">7.76185e-12</wgt>
  <wgt id="684">8.8225e-12</wgt>
  <wgt id="685">8.26065e-12</wgt>
  <wgt id="686">8.45932e-12</wgt>
  <wgt id="687">8.69779e-12</wgt>
  <wgt id="688">8.09405e-12</wgt>
  <wgt id="689">8.83277e-12</wgt>
  <wgt id="690">8.62367e-12</wgt>
  <wgt id="691">8.59037e-12</wgt>
  <wgt id="692">8.15514e-12</wgt>
  <wgt id="693">1.10132e-11</wgt>
  <wgt id="694">9.18919e-12</wgt>
  <wgt id="695">7.84045e-12</wgt>
  <wgt id="696">7.94663e-12</wgt>
  <wgt id="697">7.57491e-12</wgt>
  <wgt id="698">6.94828e-12</wgt>
  <wgt id="699">7.07932e-12</wgt>
  <wgt id="700">7.31654e-12</wgt>
  <wgt id="701">8.36313e-12</wgt>
  <wgt id="702">8.02933e-12</wgt>
  <wgt id="703">1.03624e-11</wgt>
  <wgt id="704">9.44291e-12</wgt>
  <wgt id="705">9.33525e-12</wgt>
  <wgt id="706">7.755e-12</wgt>
  <wgt id="707">7.83043e-12</wgt>
  <wgt id="708">8.03145e-12</wgt>
  <wgt id="709">8.10821e-12</wgt>
  <wgt id="710">7.0558e-12</wgt>
  <wgt id="711">8.82116e-12</wgt>
  <wgt id="712">7.87411e-12</wgt>
  <wgt id="713">9.0269e-12</wgt>
  <wgt id="714">7.59341e-12</wgt>
  <wgt id="715">7.99678e-12</wgt>
  <wgt id="716">8.04058e-12</wgt>
  <wgt id="717">7.31836e-12</wgt>
  <wgt id="718">8.52438e-12</wgt>
  <wgt id="719">7.57574e-12</wgt>
  <wgt id="720">8.4397e-12</wgt>
  <wgt id="721">7.15333e-12</wgt>
  <wgt id="722">6.62633e-12</wgt>
  <wgt id="723">9.38785e-12</wgt>
  <wgt id="724">9.05822e-12</wgt>
  <wgt id="725">8.77937e-12</wgt>
  <wgt id="726">8.33855e-12</wgt>
  <wgt id="727">8.3605e-12</wgt>
  <wgt id="728">8.16832e-12</wgt>
  <wgt id="729">7.67171e-12</wgt>
  <wgt id="730">9.3054e-12</wgt>
  <wgt id="731">8.23077e-12</wgt>
  <wgt id="732">9.72496e-12</wgt>
  <wgt id="733">7.82959e-12</wgt>
  <wgt id="734">8.65925e-12</wgt>
  <wgt id="735">8.34717e-12</wgt>
  <wgt id="736">7.78564e-12</wgt>
  <wgt id="737">7.90608e-12</wgt>
  <wgt id="738">7.9188e-12</wgt>
  <wgt id="739">8.93003e-12</wgt>
  <wgt id="740">9.88264e-12</wgt>
  <wgt id="741">8.52689e-12</wgt>
  <wgt id="742">8.06503e-12</wgt>
  <wgt id="743">7.60825e-12</wgt>
  <wgt id="744">8.19693e-12</wgt>
  <wgt id="745">9.14136e-12</wgt>
  <wgt id="746">9.39634e-12</wgt>
  <wgt id="747">6.97639e-12</wgt>
  <wgt id="748">8.06518e-12</wgt>
  <wgt id="749">8.73119e-12</wgt>
  <wgt id="750">8.97195e-12</wgt>
  <wgt id="751">8.45855e-12</wgt>
  <wgt id="752">7.50325e-12</wgt>
  <wgt id="753">7.50711e-12</wgt>
  <wgt id="754">8.74045e-12</wgt>
  <wgt id="755">8.19761e-12</wgt>
  <wgt id="756">8.14624e-12</wgt>
  <wgt id="757">7.24797e-12</wgt>
  <wgt id="758">8.17907e-12</wgt>
  <wgt id="759">9.0999e-12</wgt>
  <wgt id="760">8.07029e-12</wgt>
  <wgt id="761">9.24056e-12</wgt>
  <wgt id="762">9.29389e-12</wgt>
  <wgt id="763">8.52138e-12</wgt>
  <wgt id="764">8.93426e-12</wgt>
  <wgt id="765">8.43489e-12</wgt>
  <wgt id="766">8.46019e-12</wgt>
  <wgt id="767">8.54931e-12</wgt>
  <wgt id="768">7.61382e-12</wgt>
  <wgt id="769">8.8403e-12</wgt>
  <wgt id="770">7.85901e-12</wgt>
  <wgt id="771">1.03339e-11</wgt>
  <wgt id="772">8.09457e-12</wgt>
  <wgt id="773">8.3715e-12</wgt>
  <wgt id="774">6.65068e-12</wgt>
  <wgt id="775">8.78168e-12</wgt>
  <wgt id="776">9.62548e-12</wgt>
  <wgt id="777">7.44412e-12</wgt>
  <wgt id="778">5.51404e-12</wgt>
  <wgt id="779">3.48618e-12</wgt>
  <wgt id="780">2.13032e-12</wgt>
  <wgt id="781">6.25501e-12</wgt>
  <wgt id="782">6.69397e-12</wgt>
  <wgt id="783">3.18546e-12</wgt>
  <wgt id="784">3.94327e-12</wgt>
  <wgt id="785">8.21019e-12</wgt>
  <wgt id="786">3.12419e-12</wgt>
  <wgt id="787">7.13115e-12</wgt>
  <wgt id="788">1.27376e-12</wgt>
  <wgt id="789">3.83199e-12</wgt>
  <wgt id="790">3.14998e-12</wgt>
  <wgt id="791">6.2449e-12</wgt>
  <wgt id="792">7.48112e-12</wgt>
  <wgt id="793">5.2108e-12</wgt>
  <wgt id="794">2.903e-12</wgt>
  <wgt id="795">7.62793e-12</wgt>
  <wgt id="796">7.83935e-12</wgt>
  <wgt id="797">7.17718e-12</wgt>
  <wgt id="798">4.27775e-12</wgt>
  <wgt id="799">7.00425e-12</wgt>
  <wgt id="800">4.19391e-12</wgt>
  <wgt id="801">5.30248e-12</wgt>
  <wgt id="802">2.79588e-12</wgt>
  <wgt id="803">8.8693e-12</wgt>
  <wgt id="804">7.59322e-12</wgt>
  <wgt id="805">7.47132e-12</wgt>
  <wgt id="806">6.07517e-12</wgt>
  <wgt id="807">5.37855e-12</wgt>
  <wgt id="808">5.30084e-12</wgt>
  <wgt id="809">4.92746e-12</wgt>
  <wgt id="810">6.58094e-12</wgt>
  <wgt id="811">5.86042e-12</wgt>
  <wgt id="812">3.21273e-12</wgt>
  <wgt id="813">3.46768e-12</wgt>
  <wgt id="814">3.85619e-12</wgt>
  <wgt id="815">3.25477e-12</wgt>
  <wgt id="816">3.50208e-12</wgt>
  <wgt id="817">5.62945e-12</wgt>
  <wgt id="818">7.21901e-12</wgt>
  <wgt id="819">3.43231e-12</wgt>
  <wgt id="820">5.22297e-12</wgt>
  <wgt id="821">6.79665e-12</wgt>
  <wgt id="822">4.39608e-12</wgt>
  <wgt id="823">7.12396e-12</wgt>
  <wgt id="824">8.51757e-12</wgt>
  <wgt id="825">2.64933e-12</wgt>
  <wgt id="826">6.9268e-12</wgt>
  <wgt id="827">2.3472e-12</wgt>
  <wgt id="828">7.19309e-12</wgt>
  <wgt id="829">5.7351e-12</wgt>
  <wgt id="830">2.50443e-12</wgt>
  <wgt id="831">6.55164e-12</wgt>
  <wgt id="832">1.01039e-11</wgt>
  <wgt id="833">4.41894e-12</wgt>
  <wgt id="834">9.83325e-12</wgt>
  <wgt id="835">3.81682e-12</wgt>
  <wgt id="836">4.56727e-12</wgt>
  <wgt id="837">6.61382e-12</wgt>
  <wgt id="838">4.46131e-12</wgt>
  <wgt id="839">6.5294e-12</wgt>
  <wgt id="840">4.69426e-12</wgt>
  <wgt id="841">7.89385e-12</wgt>
  <wgt id="842">5.43504e-12</wgt>
  <wgt id="843">5.94728e-12</wgt>
  <wgt id="844">6.1882e-12</wgt>
  <wgt id="845">9.81525e-12</wgt>
  <wgt id="846">5.5074e-12</wgt>
  <wgt id="847">5.89923e-12</wgt>
  <wgt id="848">3.39152e-12</wgt>
  <wgt id="849">6.05372e-12</wgt>
  <wgt id="850">8.64871e-12</wgt>
  <wgt id="851">6.59375e-12</wgt>
  <wgt id="852">2.90115e-12</wgt>
  <wgt id="853">6.88671e-12</wgt>
  <wgt id="854">7.82222e-12</wgt>
  <wgt id="855">6.97462e-12</wgt>
  <wgt id="856">2.48715e-12</wgt>
  <wgt id="857">4.85131e-12</wgt>
  <wgt id="858">5.20911e-12</wgt>
  <wgt id="859">5.27979e-12</wgt>
  <wgt id="860">7.13778e-12</wgt>
  <wgt id="861">4.52556e-12</wgt>
  <wgt id="862">5.6974e-12</wgt>
  <wgt id="863">6.44659e-12</wgt>
  <wgt id="864">5.73248e-12</wgt>
  <wgt id="865">9.20834e-12</wgt>
  <wgt id="866">1.01305e-11</wgt>
  <wgt id="867">5.65499e-12</wgt>
  <wgt id="868">5.80432e-12</wgt>
  <wgt id="869">3.11764e-12</wgt>
  <wgt id="870">3.73793e-12</wgt>
  <wgt id="871">3.75272e-12</wgt>
  <wgt id="872">8.06038e-12</wgt>
  <wgt id="873">4.31115e-12</wgt>
  <wgt id="874">6.18922e-12</wgt>
  <wgt id="875">4.23762e-12</wgt>
  <wgt id="876">7.73601e-12</wgt>
  <wgt id="877">6.4392e-12</wgt>
  <wgt id="878">4.38653e-12</wgt>
  <wgt id="879">8.35863e-12</wgt>
  <wgt id="880">8.44071e-12</wgt>
  <wgt id="881">9.13999e-12</wgt>
  <wgt id="882">8.43169e-12</wgt>
  <wgt id="883">8.39807e-12</wgt>
  <wgt id="884">8.19713e-12</wgt>
  <wgt id="885">8.75756e-12</wgt>
  <wgt id="886">7.76185e-12</wgt>
  <wgt id="887">8.8225e-12</wgt>
  <wgt id="888">8.26065e-12</wgt>
  <wgt id="889">8.45932e-12</wgt>
  <wgt id="890">8.69779e-12</wgt>
  <wgt id="891">8.09405e-12</wgt>
  <wgt id="892">8.83277e-12</wgt>
  <wgt id="893">8.62367e-12</wgt>
  <wgt id="894">8.59037e-12</wgt>
  <wgt id="895">8.15514e-12</wgt>
  <wgt id="896">1.10132e-11</wgt>
  <wgt id="897">9.18919e-12</wgt>
  <wgt id="898">7.84045e-12</wgt>
  <wgt id="899">7.94663e-12</wgt>
  <wgt id="900">7.57491e-12</wgt>
  <wgt id="901">6.94828e-12</wgt>
  <wgt id="902">7.07932e-12</wgt>
  <wgt id="903">7.31654e-12</wgt>
  <wgt id="904">8.36313e-12</wgt>
  <wgt id="905">8.02933e-12</wgt>
  <wgt id="906">1.03624e-11</wgt>
  <wgt id="907">9.44291e-12</wgt>
  <wgt id="908">9.33525e-12</wgt>
  <wgt id="909">7.755e-12</wgt>
  <wgt id="910">7.83043e-12</wgt>
  <wgt id="911">8.03145e-12</wgt>
  <wgt id="912">8.10821e-12</wgt>
  <wgt id="913">7.0558e-12</wgt>
  <wgt id="914">8.82116e-12</wgt>
  <wgt id="915">7.87411e-12</wgt>
  <wgt id="916">9.0269e-12</wgt>
  <wgt id="917">7.59341e-12</wgt>
  <wgt id="918">7.99678e-12</wgt>
  <wgt id="919">8.04058e-12</wgt>
  <wgt id="920">7.31836e-12</wgt>
  <wgt id="921">8.52438e-12</wgt>
  <wgt id="922">7.57574e-12</wgt>
  <wgt id="923">8.4397e-12</wgt>
  <wgt id="924">7.15333e-12</wgt>
  <wgt id="925">6.62633e-12</wgt>
  <wgt id="926">9.38785e-12</wgt>
  <wgt id="927">9.05822e-12</wgt>
  <wgt id="928">8.77937e-12</wgt>
  <wgt id="929">8.33855e-12</wgt>
  <wgt id="930">8.3605e-12</wgt>
  <wgt id="931">8.16832e-12</wgt>
  <wgt id="932">7.67171e-12</wgt>
  <wgt id="933">9.3054e-12</wgt>
  <wgt id="934">8.23077e-12</wgt>
  <wgt id="935">9.72496e-12</wgt>
  <wgt id="936">7.82959e-12</wgt>
  <wgt id="937">8.65925e-12</wgt>
  <wgt id="938">8.34717e-12</wgt>
  <wgt id="939">7.78564e-12</wgt>
  <wgt id="940">7.90608e-12</wgt>
  <wgt id="941">7.9188e-12</wgt>
  <wgt id="942">8.93003e-12</wgt>
  <wgt id="943">9.88264e-12</wgt>
  <wgt id="944">8.52689e-12</wgt>
  <wgt id="945">8.06503e-12</wgt>
  <wgt id="946">7.60825e-12</wgt>
  <wgt id="947">8.19693e-12</wgt>
  <wgt id="948">9.14136e-12</wgt>
  <wgt id="949">9.39634e-12</wgt>
  <wgt id="950">6.97639e-12</wgt>
  <wgt id="951">8.06518e-12</wgt>
  <wgt id="952">8.73119e-12</wgt>
  <wgt id="953">8.97195e-12</wgt>
  <wgt id="954">8.45855e-12</wgt>
  <wgt id="955">7.50325e-12</wgt>
  <wgt id="956">7.50711e-12</wgt>
  <wgt id="957">8.74045e-12</wgt>
  <wgt id="958">8.19761e-12</wgt>
  <wgt id="959">8.14624e-12</wgt>
  <wgt id="960">7.24797e-12</wgt>
  <wgt id="961">8.17907e-12</wgt>
  <wgt id="962">9.0999e-12</wgt>
  <wgt id="963">8.07029e-12</wgt>
  <wgt id="964">9.24056e-12</wgt>
  <wgt id="965">9.29389e-12</wgt>
  <wgt id="966">8.52138e-12</wgt>
  <wgt id="967">8.93426e-12</wgt>
  <wgt id="968">8.43489e-12</wgt>
  <wgt id="969">8.46019e-12</wgt>
  <wgt id="970">8.54931e-12</wgt>
  <wgt id="971">7.61382e-12</wgt>
  <wgt id="972">8.8403e-12</wgt>
  <wgt id="973">7.85901e-12</wgt>
  <wgt id="974">1.03339e-11</wgt>
  <wgt id="975">8.09457e-12</wgt>
  <wgt id="976">8.3715e-12</wgt>
  <wgt id="977">6.65068e-12</wgt>
  <wgt id="978">8.78168e-12</wgt>
  <wgt id="979">9.62548e-12</wgt>
  <wgt id="980">8.30408e-12</wgt>
  <wgt id="981">8.53609e-12</wgt>
  <wgt id="982">8.10086e-12</wgt>
</rwgt>
</event>
<event>
 5   1  0.5790000E-11  0.2106350E+04  0.7818608E-02  0.7785090E-01
       21   -1    0    0  502  501  0.00000000000E+00  0.00000000000E+00  0.95257791773E+03  0.95257791773E+03  0.00000000000E+00 0.  1.
       21   -1    0    0  501  502 -0.00000000000E+00 -0.00000000000E+00 -0.11643959404E+04  0.11643959404E+04  0.00000000000E+00 0. -1.
       39    2    1    2    0    0  0.00000000000E+00  0.00000000000E+00 -0.21181802270E+03  0.21169738582E+04  0.21063502656E+04 0.  0.
       25    1    3    3    0    0  0.73746560766E+03 -0.67944868368E+03 -0.40413243451E+03  0.10883262658E+04  0.12500000000E+03 0.  0.
       25    1    3    3    0    0 -0.73746560766E+03  0.67944868368E+03  0.19231441181E+03  0.10286475923E+04  0.12500000000E+03 0.  0.
<mgrwt>
<rscale>  0 0.21063503E+04</rscale>
<asrwt>0</asrwt>
<pdfrwt beam="1">  1       21 0.14655045E+00 0.21063503E+04</pdfrwt>
<pdfrwt beam="2">  1       21 0.17913784E+00 0.21063503E+04</pdfrwt>
<totfact> 0.25143825E+01</totfact>
</mgrwt>
<rwgt>
  <wgt id="1">5.79e-12</wgt>
  <wgt id="2">5.06711e-12</wgt>
  <wgt id="3">6.68212e-12</wgt>
  <wgt id="4">5.79e-12</wgt>
  <wgt id="5">5.06711e-12</wgt>
  <wgt id="6">6.68212e-12</wgt>
  <wgt id="7">5.79e-12</wgt>
  <wgt id="8">5.06711e-12</wgt>
  <wgt id="9">6.68212e-12</wgt>
  <wgt id="10">5.93349e-12</wgt>
  <wgt id="11">5.92774e-12</wgt>
  <wgt id="12">5.92215e-12</wgt>
  <wgt id="13">5.91333e-12</wgt>
  <wgt id="14">5.9541e-12</wgt>
  <wgt id="15">5.94162e-12</wgt>
  <wgt id="16">5.91976e-12</wgt>
  <wgt id="17">5.94317e-12</wgt>
  <wgt id="18">5.92708e-12</wgt>
  <wgt id="19">5.94496e-12</wgt>
  <wgt id="20">5.9161e-12</wgt>
  <wgt id="21">5.90399e-12</wgt>
  <wgt id="22">5.91708e-12</wgt>
  <wgt id="23">5.8852e-12</wgt>
  <wgt id="24">5.90828e-12</wgt>
  <wgt id="25">5.91875e-12</wgt>
  <wgt id="26">5.95771e-12</wgt>
  <wgt id="27">5.93264e-12</wgt>
  <wgt id="28">5.9053e-12</wgt>
  <wgt id="29">5.9402e-12</wgt>
  <wgt id="30">5.91835e-12</wgt>
  <wgt id="31">5.94876e-12</wgt>
  <wgt id="32">5.91933e-12</wgt>
  <wgt id="33">5.94507e-12</wgt>
  <wgt id="34">5.91708e-12</wgt>
  <wgt id="35">5.92428e-12</wgt>
  <wgt id="36">5.94467e-12</wgt>
  <wgt id="37">5.91844e-12</wgt>
  <wgt id="38">5.92092e-12</wgt>
  <wgt id="39">5.99322e-12</wgt>
  <wgt id="40">5.94959e-12</wgt>
  <wgt id="41">5.93194e-12</wgt>
  <wgt id="42">5.95566e-12</wgt>
  <wgt id="43">5.94113e-12</wgt>
  <wgt id="44">5.90589e-12</wgt>
  <wgt id="45">5.94031e-12</wgt>
  <wgt id="46">5.9387e-12</wgt>
  <wgt id="47">5.90618e-12</wgt>
  <wgt id="48">5.93501e-12</wgt>
  <wgt id="49">5.96223e-12</wgt>
  <wgt id="50">5.97341e-12</wgt>
  <wgt id="51">5.95703e-12</wgt>
  <wgt id="52">5.90506e-12</wgt>
  <wgt id="53">5.90331e-12</wgt>
  <wgt id="54">5.92268e-12</wgt>
  <wgt id="55">5.93137e-12</wgt>
  <wgt id="56">5.94925e-12</wgt>
  <wgt id="57">5.95387e-12</wgt>
  <wgt id="58">5.89399e-12</wgt>
  <wgt id="59">5.91516e-12</wgt>
  <wgt id="60">5.93431e-12</wgt>
  <wgt id="61">5.93281e-12</wgt>
  <wgt id="62">5.9358e-12</wgt>
  <wgt id="63">5.943e-12</wgt>
  <wgt id="64">5.94037e-12</wgt>
  <wgt id="65">5.93764e-12</wgt>
  <wgt id="66">5.9273e-12</wgt>
  <wgt id="67">5.93027e-12</wgt>
  <wgt id="68">5.92777e-12</wgt>
  <wgt id="69">5.93062e-12</wgt>
  <wgt id="70">5.92952e-12</wgt>
  <wgt id="71">5.92881e-12</wgt>
  <wgt id="72">5.92776e-12</wgt>
  <wgt id="73">5.93841e-12</wgt>
  <wgt id="74">5.93556e-12</wgt>
  <wgt id="75">5.93541e-12</wgt>
  <wgt id="76">5.94667e-12</wgt>
  <wgt id="77">5.93257e-12</wgt>
  <wgt id="78">5.93533e-12</wgt>
  <wgt id="79">5.94187e-12</wgt>
  <wgt id="80">5.91232e-12</wgt>
  <wgt id="81">5.92674e-12</wgt>
  <wgt id="82">5.93371e-12</wgt>
  <wgt id="83">5.91588e-12</wgt>
  <wgt id="84">5.92297e-12</wgt>
  <wgt id="85">5.9264e-12</wgt>
  <wgt id="86">5.94248e-12</wgt>
  <wgt id="87">5.91164e-12</wgt>
  <wgt id="88">5.93852e-12</wgt>
  <wgt id="89">5.9379e-12</wgt>
  <wgt id="90">5.93919e-12</wgt>
  <wgt id="91">5.93683e-12</wgt>
  <wgt id="92">5.94222e-12</wgt>
  <wgt id="93">5.93296e-12</wgt>
  <wgt id="94">5.92994e-12</wgt>
  <wgt id="95">5.93631e-12</wgt>
  <wgt id="96">5.93646e-12</wgt>
  <wgt id="97">5.92757e-12</wgt>
  <wgt id="98">5.93634e-12</wgt>
  <wgt id="99">5.93119e-12</wgt>
  <wgt id="100">5.93881e-12</wgt>
  <wgt id="101">5.93251e-12</wgt>
  <wgt id="102">5.92921e-12</wgt>
  <wgt id="103">5.93954e-12</wgt>
  <wgt id="104">5.92981e-12</wgt>
  <wgt id="105">5.93766e-12</wgt>
  <wgt id="106">5.92777e-12</wgt>
  <wgt id="107">5.94608e-12</wgt>
  <wgt id="108">5.9286e-12</wgt>
  <wgt id="109">5.93615e-12</wgt>
  <wgt id="110">5.93222e-12</wgt>
  <wgt id="111">6.00995e-12</wgt>
  <wgt id="112">5.91472e-12</wgt>
  <wgt id="113">7.72347e-12</wgt>
  <wgt id="114">8.07561e-12</wgt>
  <wgt id="115">7.96728e-12</wgt>
  <wgt id="116">1.07574e-11</wgt>
  <wgt id="117">6.49278e-12</wgt>
  <wgt id="118">6.51277e-12</wgt>
  <wgt id="119">6.48158e-12</wgt>
  <wgt id="120">6.49368e-12</wgt>
  <wgt id="121">6.49234e-12</wgt>
  <wgt id="122">6.48096e-12</wgt>
  <wgt id="123">6.50921e-12</wgt>
  <wgt id="124">6.48329e-12</wgt>
  <wgt id="125">6.49911e-12</wgt>
  <wgt id="126">6.50328e-12</wgt>
  <wgt id="127">6.48597e-12</wgt>
  <wgt id="128">6.51327e-12</wgt>
  <wgt id="129">6.47258e-12</wgt>
  <wgt id="130">6.53006e-12</wgt>
  <wgt id="131">6.45472e-12</wgt>
  <wgt id="132">6.33266e-12</wgt>
  <wgt id="133">6.681e-12</wgt>
  <wgt id="134">6.42776e-12</wgt>
  <wgt id="135">6.54348e-12</wgt>
  <wgt id="136">6.56802e-12</wgt>
  <wgt id="137">6.40173e-12</wgt>
  <wgt id="138">6.72137e-12</wgt>
  <wgt id="139">6.27013e-12</wgt>
  <wgt id="140">6.44753e-12</wgt>
  <wgt id="141">6.5285e-12</wgt>
  <wgt id="142">6.49404e-12</wgt>
  <wgt id="143">6.49949e-12</wgt>
  <wgt id="144">6.34969e-12</wgt>
  <wgt id="145">6.62261e-12</wgt>
  <wgt id="146">6.53802e-12</wgt>
  <wgt id="147">6.45799e-12</wgt>
  <wgt id="148">6.51056e-12</wgt>
  <wgt id="149">6.49162e-12</wgt>
  <wgt id="150">6.54669e-12</wgt>
  <wgt id="151">6.46772e-12</wgt>
  <wgt id="152">6.49522e-12</wgt>
  <wgt id="153">6.49197e-12</wgt>
  <wgt id="154">6.55386e-12</wgt>
  <wgt id="155">6.42213e-12</wgt>
  <wgt id="156">6.58555e-12</wgt>
  <wgt id="157">6.38426e-12</wgt>
  <wgt id="158">7.81599e-12</wgt>
  <wgt id="159">7.84817e-12</wgt>
  <wgt id="160">7.78988e-12</wgt>
  <wgt id="161">7.79822e-12</wgt>
  <wgt id="162">7.83564e-12</wgt>
  <wgt id="163">7.80846e-12</wgt>
  <wgt id="164">7.82733e-12</wgt>
  <wgt id="165">7.81918e-12</wgt>
  <wgt id="166">7.81374e-12</wgt>
  <wgt id="167">7.81025e-12</wgt>
  <wgt id="168">7.82413e-12</wgt>
  <wgt id="169">7.78216e-12</wgt>
  <wgt id="170">7.83715e-12</wgt>
  <wgt id="171">7.80812e-12</wgt>
  <wgt id="172">7.82712e-12</wgt>
  <wgt id="173">7.81845e-12</wgt>
  <wgt id="174">7.81481e-12</wgt>
  <wgt id="175">7.61027e-12</wgt>
  <wgt id="176">8.0827e-12</wgt>
  <wgt id="177">7.85391e-12</wgt>
  <wgt id="178">7.78064e-12</wgt>
  <wgt id="179">8.10883e-12</wgt>
  <wgt id="180">7.34983e-12</wgt>
  <wgt id="181">7.60942e-12</wgt>
  <wgt id="182">7.95184e-12</wgt>
  <wgt id="183">7.6893e-12</wgt>
  <wgt id="184">7.87885e-12</wgt>
  <wgt id="185">7.7587e-12</wgt>
  <wgt id="186">7.88256e-12</wgt>
  <wgt id="187">7.75069e-12</wgt>
  <wgt id="188">7.93364e-12</wgt>
  <wgt id="189">7.77145e-12</wgt>
  <wgt id="190">7.83424e-12</wgt>
  <wgt id="191">7.83483e-12</wgt>
  <wgt id="192">7.8049e-12</wgt>
  <wgt id="193">7.91494e-12</wgt>
  <wgt id="194">7.767e-12</wgt>
  <wgt id="195">7.67568e-12</wgt>
  <wgt id="196">8.0924e-12</wgt>
  <wgt id="197">7.85165e-12</wgt>
  <wgt id="198">7.80746e-12</wgt>
  <wgt id="199">7.81599e-12</wgt>
  <wgt id="200">7.87791e-12</wgt>
  <wgt id="201">7.8546e-12</wgt>
  <wgt id="202">7.83249e-12</wgt>
  <wgt id="203">7.79836e-12</wgt>
  <wgt id="204">7.78245e-12</wgt>
  <wgt id="205">7.76908e-12</wgt>
  <wgt id="206">7.62414e-12</wgt>
  <wgt id="207">7.66785e-12</wgt>
  <wgt id="208">7.58094e-12</wgt>
  <wgt id="209">7.64366e-12</wgt>
  <wgt id="210">7.60985e-12</wgt>
  <wgt id="211">7.62213e-12</wgt>
  <wgt id="212">7.62571e-12</wgt>
  <wgt id="213">7.62339e-12</wgt>
  <wgt id="214">7.62519e-12</wgt>
  <wgt id="215">7.62884e-12</wgt>
  <wgt id="216">7.62086e-12</wgt>
  <wgt id="217">7.64478e-12</wgt>
  <wgt id="218">7.60838e-12</wgt>
  <wgt id="219">7.61378e-12</wgt>
  <wgt id="220">7.63036e-12</wgt>
  <wgt id="221">7.62015e-12</wgt>
  <wgt id="222">7.63372e-12</wgt>
  <wgt id="223">7.24878e-12</wgt>
  <wgt id="224">7.96443e-12</wgt>
  <wgt id="225">7.54117e-12</wgt>
  <wgt id="226">7.72793e-12</wgt>
  <wgt id="227">7.55702e-12</wgt>
  <wgt id="228">7.65359e-12</wgt>
  <wgt id="229">7.52475e-12</wgt>
  <wgt id="230">7.67349e-12</wgt>
  <wgt id="231">7.82348e-12</wgt>
  <wgt id="232">7.45967e-12</wgt>
  <wgt id="233">7.58841e-12</wgt>
  <wgt id="234">7.67749e-12</wgt>
  <wgt id="235">7.52115e-12</wgt>
  <wgt id="236">7.7335e-12</wgt>
  <wgt id="237">7.54515e-12</wgt>
  <wgt id="238">7.65159e-12</wgt>
  <wgt id="239">7.5883e-12</wgt>
  <wgt id="240">7.68982e-12</wgt>
  <wgt id="241">7.55497e-12</wgt>
  <wgt id="242">7.70728e-12</wgt>
  <wgt id="243">7.68677e-12</wgt>
  <wgt id="244">7.68064e-12</wgt>
  <wgt id="245">7.61717e-12</wgt>
  <wgt id="246">7.68552e-12</wgt>
  <wgt id="247">7.62414e-12</wgt>
  <wgt id="248">7.68489e-12</wgt>
  <wgt id="249">7.66119e-12</wgt>
  <wgt id="250">7.63951e-12</wgt>
  <wgt id="251">7.60629e-12</wgt>
  <wgt id="252">7.59092e-12</wgt>
  <wgt id="253">7.5794e-12</wgt>
  <wgt id="254">7.47272e-12</wgt>
  <wgt id="255">7.48011e-12</wgt>
  <wgt id="256">7.46504e-12</wgt>
  <wgt id="257">7.47877e-12</wgt>
  <wgt id="258">7.46836e-12</wgt>
  <wgt id="259">7.52236e-12</wgt>
  <wgt id="260">7.42506e-12</wgt>
  <wgt id="261">7.47997e-12</wgt>
  <wgt id="262">7.46444e-12</wgt>
  <wgt id="263">7.47052e-12</wgt>
  <wgt id="264">7.47542e-12</wgt>
  <wgt id="265">7.46544e-12</wgt>
  <wgt id="266">7.48726e-12</wgt>
  <wgt id="267">7.47502e-12</wgt>
  <wgt id="268">7.46993e-12</wgt>
  <wgt id="269">7.49374e-12</wgt>
  <wgt id="270">7.45859e-12</wgt>
  <wgt id="271">7.46109e-12</wgt>
  <wgt id="272">7.48598e-12</wgt>
  <wgt id="273">7.45103e-12</wgt>
  <wgt id="274">7.48958e-12</wgt>
  <wgt id="275">7.44689e-12</wgt>
  <wgt id="276">7.49946e-12</wgt>
  <wgt id="277">7.43314e-12</wgt>
  <wgt id="278">7.50941e-12</wgt>
  <wgt id="279">7.34008e-12</wgt>
  <wgt id="280">7.63867e-12</wgt>
  <wgt id="281">7.44363e-12</wgt>
  <wgt id="282">7.47267e-12</wgt>
  <wgt id="283">7.28072e-12</wgt>
  <wgt id="284">7.708e-12</wgt>
  <wgt id="285">7.15122e-12</wgt>
  <wgt id="286">7.73587e-12</wgt>
  <wgt id="287">7.49391e-12</wgt>
  <wgt id="288">7.44568e-12</wgt>
  <wgt id="289">7.51945e-12</wgt>
  <wgt id="290">7.36127e-12</wgt>
  <wgt id="291">7.45699e-12</wgt>
  <wgt id="292">7.47682e-12</wgt>
  <wgt id="293">7.4215e-12</wgt>
  <wgt id="294">7.5237e-12</wgt>
  <wgt id="295">7.34472e-12</wgt>
  <wgt id="296">7.62862e-12</wgt>
  <wgt id="297">7.47903e-12</wgt>
  <wgt id="298">7.49326e-12</wgt>
  <wgt id="299">7.45144e-12</wgt>
  <wgt id="300">7.52899e-12</wgt>
  <wgt id="301">7.40423e-12</wgt>
  <wgt id="302">7.67204e-12</wgt>
  <wgt id="303">7.43175e-12</wgt>
  <wgt id="304">7.4972e-12</wgt>
  <wgt id="305">7.52174e-12</wgt>
  <wgt id="306">7.52945e-12</wgt>
  <wgt id="307">7.51369e-12</wgt>
  <wgt id="308">7.52853e-12</wgt>
  <wgt id="309">7.51724e-12</wgt>
  <wgt id="310">7.57339e-12</wgt>
  <wgt id="311">7.47397e-12</wgt>
  <wgt id="312">7.5264e-12</wgt>
  <wgt id="313">7.51751e-12</wgt>
  <wgt id="314">7.5196e-12</wgt>
  <wgt id="315">7.52394e-12</wgt>
  <wgt id="316">7.51494e-12</wgt>
  <wgt id="317">7.53686e-12</wgt>
  <wgt id="318">7.52645e-12</wgt>
  <wgt id="319">7.51391e-12</wgt>
  <wgt id="320">7.54352e-12</wgt>
  <wgt id="321">7.50966e-12</wgt>
  <wgt id="322">7.50573e-12</wgt>
  <wgt id="323">7.54061e-12</wgt>
  <wgt id="324">7.50354e-12</wgt>
  <wgt id="325">7.53776e-12</wgt>
  <wgt id="326">7.50092e-12</wgt>
  <wgt id="327">7.54844e-12</wgt>
  <wgt id="328">7.48521e-12</wgt>
  <wgt id="329">7.54287e-12</wgt>
  <wgt id="330">7.72951e-12</wgt>
  <wgt id="331">7.32294e-12</wgt>
  <wgt id="332">7.49773e-12</wgt>
  <wgt id="333">7.52078e-12</wgt>
  <wgt id="334">7.36945e-12</wgt>
  <wgt id="335">7.70985e-12</wgt>
  <wgt id="336">7.28668e-12</wgt>
  <wgt id="337">7.80504e-12</wgt>
  <wgt id="338">7.59707e-12</wgt>
  <wgt id="339">7.45178e-12</wgt>
  <wgt id="340">7.56672e-12</wgt>
  <wgt id="341">7.40399e-12</wgt>
  <wgt id="342">7.51141e-12</wgt>
  <wgt id="343">7.51573e-12</wgt>
  <wgt id="344">7.47457e-12</wgt>
  <wgt id="345">7.57653e-12</wgt>
  <wgt id="346">7.3881e-12</wgt>
  <wgt id="347">7.67567e-12</wgt>
  <wgt id="348">7.53229e-12</wgt>
  <wgt id="349">7.53676e-12</wgt>
  <wgt id="350">7.49462e-12</wgt>
  <wgt id="351">7.59086e-12</wgt>
  <wgt id="352">7.4438e-12</wgt>
  <wgt id="353">7.73568e-12</wgt>
  <wgt id="354">7.45756e-12</wgt>
  <wgt id="355">7.56255e-12</wgt>
  <wgt id="356">7.47272e-12</wgt>
  <wgt id="357">7.55999e-12</wgt>
  <wgt id="358">7.52174e-12</wgt>
  <wgt id="359">7.50638e-12</wgt>
  <wgt id="360">7.49735e-12</wgt>
  <wgt id="361">7.4906e-12</wgt>
  <wgt id="362">7.6063e-12</wgt>
  <wgt id="363">7.58985e-12</wgt>
  <wgt id="364">7.56863e-12</wgt>
  <wgt id="365">7.54586e-12</wgt>
  <wgt id="366">7.51961e-12</wgt>
  <wgt id="367">7.464e-12</wgt>
  <wgt id="368">7.43424e-12</wgt>
  <wgt id="369">7.40224e-12</wgt>
  <wgt id="370">7.4906e-12</wgt>
  <wgt id="371">7.52357e-12</wgt>
  <wgt id="372">7.50547e-12</wgt>
  <wgt id="373">7.47834e-12</wgt>
  <wgt id="374">7.47303e-12</wgt>
  <wgt id="375">7.859e-12</wgt>
  <wgt id="376">7.85992e-12</wgt>
  <wgt id="377">7.85783e-12</wgt>
  <wgt id="378">7.88688e-12</wgt>
  <wgt id="379">7.83134e-12</wgt>
  <wgt id="380">7.88047e-12</wgt>
  <wgt id="381">7.85037e-12</wgt>
  <wgt id="382">7.89599e-12</wgt>
  <wgt id="383">7.82232e-12</wgt>
  <wgt id="384">7.8641e-12</wgt>
  <wgt id="385">7.85411e-12</wgt>
  <wgt id="386">7.88744e-12</wgt>
  <wgt id="387">7.84663e-12</wgt>
  <wgt id="388">7.85215e-12</wgt>
  <wgt id="389">7.86729e-12</wgt>
  <wgt id="390">7.87872e-12</wgt>
  <wgt id="391">7.83814e-12</wgt>
  <wgt id="392">7.80888e-12</wgt>
  <wgt id="393">7.88727e-12</wgt>
  <wgt id="394">7.87027e-12</wgt>
  <wgt id="395">7.84326e-12</wgt>
  <wgt id="396">7.85955e-12</wgt>
  <wgt id="397">7.85843e-12</wgt>
  <wgt id="398">7.8279e-12</wgt>
  <wgt id="399">7.88896e-12</wgt>
  <wgt id="400">7.84729e-12</wgt>
  <wgt id="401">7.88491e-12</wgt>
  <wgt id="402">7.80257e-12</wgt>
  <wgt id="403">7.88037e-12</wgt>
  <wgt id="404">8.01728e-12</wgt>
  <wgt id="405">7.47485e-12</wgt>
  <wgt id="406">7.74472e-12</wgt>
  <wgt id="407">8.10427e-12</wgt>
  <wgt id="408">7.91754e-12</wgt>
  <wgt id="409">7.74559e-12</wgt>
  <wgt id="410">7.66992e-12</wgt>
  <wgt id="411">7.94456e-12</wgt>
  <wgt id="412">7.84713e-12</wgt>
  <wgt id="413">7.87472e-12</wgt>
  <wgt id="414">7.78368e-12</wgt>
  <wgt id="415">7.91742e-12</wgt>
  <wgt id="416">8.0318e-12</wgt>
  <wgt id="417">7.61941e-12</wgt>
  <wgt id="418">7.86789e-12</wgt>
  <wgt id="419">7.81074e-12</wgt>
  <wgt id="420">7.93405e-12</wgt>
  <wgt id="421">7.82385e-12</wgt>
  <wgt id="422">7.86206e-12</wgt>
  <wgt id="423">7.85984e-12</wgt>
  <wgt id="424">7.97681e-12</wgt>
  <wgt id="425">7.78915e-12</wgt>
  <wgt id="426">7.859e-12</wgt>
  <wgt id="427">7.81411e-12</wgt>
  <wgt id="428">8.00713e-12</wgt>
  <wgt id="429">7.91271e-12</wgt>
  <wgt id="430">8.11056e-12</wgt>
  <wgt id="431">8.07146e-12</wgt>
  <wgt id="432">8.03375e-12</wgt>
  <wgt id="433">7.99714e-12</wgt>
  <wgt id="434">7.95401e-12</wgt>
  <wgt id="435">7.86093e-12</wgt>
  <wgt id="436">7.81246e-12</wgt>
  <wgt id="437">7.76703e-12</wgt>
  <wgt id="438">7.91271e-12</wgt>
  <wgt id="439">7.93867e-12</wgt>
  <wgt id="440">7.92372e-12</wgt>
  <wgt id="441">7.90429e-12</wgt>
  <wgt id="442">7.89705e-12</wgt>
  <wgt id="443">7.77856e-12</wgt>
  <wgt id="444">7.80847e-12</wgt>
  <wgt id="445">7.75016e-12</wgt>
  <wgt id="446">7.73364e-12</wgt>
  <wgt id="447">7.75282e-12</wgt>
  <wgt id="448">7.59532e-12</wgt>
  <wgt id="449">7.8825e-12</wgt>
  <wgt id="450">7.74304e-12</wgt>
  <wgt id="451">7.76898e-12</wgt>
  <wgt id="452">7.92743e-12</wgt>
  <wgt id="453">7.83267e-12</wgt>
  <wgt id="454">7.49595e-12</wgt>
  <wgt id="455">7.78663e-12</wgt>
  <wgt id="456">7.64933e-12</wgt>
  <wgt id="457">7.80393e-12</wgt>
  <wgt id="458">7.85523e-12</wgt>
  <wgt id="459">7.82302e-12</wgt>
  <wgt id="460">7.81686e-12</wgt>
  <wgt id="461">7.66614e-12</wgt>
  <wgt id="462">7.72926e-12</wgt>
  <wgt id="463">7.71022e-12</wgt>
  <wgt id="464">7.74581e-12</wgt>
  <wgt id="465">7.84197e-12</wgt>
  <wgt id="466">7.70866e-12</wgt>
  <wgt id="467">7.71854e-12</wgt>
  <wgt id="468">7.76134e-12</wgt>
  <wgt id="469">7.76295e-12</wgt>
  <wgt id="470">7.71975e-12</wgt>
  <wgt id="471">7.72536e-12</wgt>
  <wgt id="472">7.80624e-12</wgt>
  <wgt id="473">7.58041e-12</wgt>
  <wgt id="474">5.79e-12</wgt>
  <wgt id="475">6.1573e-12</wgt>
  <wgt id="476">5.68492e-12</wgt>
  <wgt id="477">5.71852e-12</wgt>
  <wgt id="478">5.8242e-12</wgt>
  <wgt id="479">5.73713e-12</wgt>
  <wgt id="480">5.94755e-12</wgt>
  <wgt id="481">5.63223e-12</wgt>
  <wgt id="482">5.55033e-12</wgt>
  <wgt id="483">5.64634e-12</wgt>
  <wgt id="484">6.21826e-12</wgt>
  <wgt id="485">5.81833e-12</wgt>
  <wgt id="486">5.8553e-12</wgt>
  <wgt id="487">5.86017e-12</wgt>
  <wgt id="488">5.85081e-12</wgt>
  <wgt id="489">5.58144e-12</wgt>
  <wgt id="490">5.63162e-12</wgt>
  <wgt id="491">5.72879e-12</wgt>
  <wgt id="492">5.6104e-12</wgt>
  <wgt id="493">5.60478e-12</wgt>
  <wgt id="494">5.62101e-12</wgt>
  <wgt id="495">5.87954e-12</wgt>
  <wgt id="496">5.59228e-12</wgt>
  <wgt id="497">5.59782e-12</wgt>
  <wgt id="498">5.84763e-12</wgt>
  <wgt id="499">5.64131e-12</wgt>
  <wgt id="500">5.68506e-12</wgt>
  <wgt id="501">6.02321e-12</wgt>
  <wgt id="502">5.62569e-12</wgt>
  <wgt id="503">5.76387e-12</wgt>
  <wgt id="504">5.7737e-12</wgt>
  <wgt id="505">5.91068e-12</wgt>
  <wgt id="506">5.84387e-12</wgt>
  <wgt id="507">5.71855e-12</wgt>
  <wgt id="508">5.88341e-12</wgt>
  <wgt id="509">5.79771e-12</wgt>
  <wgt id="510">5.91029e-12</wgt>
  <wgt id="511">5.66451e-12</wgt>
  <wgt id="512">5.84373e-12</wgt>
  <wgt id="513">5.96972e-12</wgt>
  <wgt id="514">5.73856e-12</wgt>
  <wgt id="515">5.72162e-12</wgt>
  <wgt id="516">5.93068e-12</wgt>
  <wgt id="517">5.9208e-12</wgt>
  <wgt id="518">5.94623e-12</wgt>
  <wgt id="519">5.67322e-12</wgt>
  <wgt id="520">5.80073e-12</wgt>
  <wgt id="521">6.00345e-12</wgt>
  <wgt id="522">5.99976e-12</wgt>
  <wgt id="523">5.89771e-12</wgt>
  <wgt id="524">5.91366e-12</wgt>
  <wgt id="525">5.91116e-12</wgt>
  <wgt id="526">5.76845e-12</wgt>
  <wgt id="527">5.90427e-12</wgt>
  <wgt id="528">5.76957e-12</wgt>
  <wgt id="529">5.73284e-12</wgt>
  <wgt id="530">5.80782e-12</wgt>
  <wgt id="531">5.71071e-12</wgt>
  <wgt id="532">6.07401e-12</wgt>
  <wgt id="533">5.44495e-12</wgt>
  <wgt id="534">5.78849e-12</wgt>
  <wgt id="535">5.8769e-12</wgt>
  <wgt id="536">5.81512e-12</wgt>
  <wgt id="537">5.81012e-12</wgt>
  <wgt id="538">5.90138e-12</wgt>
  <wgt id="539">5.65012e-12</wgt>
  <wgt id="540">5.75623e-12</wgt>
  <wgt id="541">5.72713e-12</wgt>
  <wgt id="542">5.64945e-12</wgt>
  <wgt id="543">5.7788e-12</wgt>
  <wgt id="544">6.06542e-12</wgt>
  <wgt id="545">5.71323e-12</wgt>
  <wgt id="546">5.74002e-12</wgt>
  <wgt id="547">5.6217e-12</wgt>
  <wgt id="548">5.5569e-12</wgt>
  <wgt id="549">5.70919e-12</wgt>
  <wgt id="550">5.84746e-12</wgt>
  <wgt id="551">5.86409e-12</wgt>
  <wgt id="552">5.73766e-12</wgt>
  <wgt id="553">5.77754e-12</wgt>
  <wgt id="554">6.22156e-12</wgt>
  <wgt id="555">5.95587e-12</wgt>
  <wgt id="556">5.63162e-12</wgt>
  <wgt id="557">5.86969e-12</wgt>
  <wgt id="558">5.60252e-12</wgt>
  <wgt id="559">5.72656e-12</wgt>
  <wgt id="560">6.2278e-12</wgt>
  <wgt id="561">5.64577e-12</wgt>
  <wgt id="562">5.85294e-12</wgt>
  <wgt id="563">5.65882e-12</wgt>
  <wgt id="564">5.78056e-12</wgt>
  <wgt id="565">5.62343e-12</wgt>
  <wgt id="566">5.83172e-12</wgt>
  <wgt id="567">5.69751e-12</wgt>
  <wgt id="568">5.80485e-12</wgt>
  <wgt id="569">5.81018e-12</wgt>
  <wgt id="570">5.67852e-12</wgt>
  <wgt id="571">6.389e-12</wgt>
  <wgt id="572">5.66812e-12</wgt>
  <wgt id="573">5.53334e-12</wgt>
  <wgt id="574">5.59056e-12</wgt>
  <wgt id="575">6.32296e-12</wgt>
  <wgt id="576">6.20147e-12</wgt>
  <wgt id="577">6.56933e-12</wgt>
  <wgt id="578">6.41341e-12</wgt>
  <wgt id="579">6.35968e-12</wgt>
  <wgt id="580">6.4023e-12</wgt>
  <wgt id="581">6.67285e-12</wgt>
  <wgt id="582">6.18135e-12</wgt>
  <wgt id="583">6.37795e-12</wgt>
  <wgt id="584">6.32579e-12</wgt>
  <wgt id="585">6.37202e-12</wgt>
  <wgt id="586">6.17884e-12</wgt>
  <wgt id="587">6.38217e-12</wgt>
  <wgt id="588">6.27919e-12</wgt>
  <wgt id="589">6.36864e-12</wgt>
  <wgt id="590">6.41608e-12</wgt>
  <wgt id="591">6.57756e-12</wgt>
  <wgt id="592">6.22371e-12</wgt>
  <wgt id="593">6.29053e-12</wgt>
  <wgt id="594">6.6076e-12</wgt>
  <wgt id="595">6.2693e-12</wgt>
  <wgt id="596">6.42948e-12</wgt>
  <wgt id="597">6.07495e-12</wgt>
  <wgt id="598">6.31793e-12</wgt>
  <wgt id="599">6.62559e-12</wgt>
  <wgt id="600">6.26395e-12</wgt>
  <wgt id="601">6.14248e-12</wgt>
  <wgt id="602">6.22006e-12</wgt>
  <wgt id="603">6.25856e-12</wgt>
  <wgt id="604">6.39681e-12</wgt>
  <wgt id="605">6.57632e-12</wgt>
  <wgt id="606">6.15875e-12</wgt>
  <wgt id="607">6.23042e-12</wgt>
  <wgt id="608">6.27041e-12</wgt>
  <wgt id="609">5.94302e-12</wgt>
  <wgt id="610">6.07592e-12</wgt>
  <wgt id="611">6.44343e-12</wgt>
  <wgt id="612">6.80988e-12</wgt>
  <wgt id="613">6.34082e-12</wgt>
  <wgt id="614">6.39616e-12</wgt>
  <wgt id="615">6.19841e-12</wgt>
  <wgt id="616">6.76268e-12</wgt>
  <wgt id="617">6.53063e-12</wgt>
  <wgt id="618">6.26353e-12</wgt>
  <wgt id="619">6.30741e-12</wgt>
  <wgt id="620">6.50323e-12</wgt>
  <wgt id="621">6.41761e-12</wgt>
  <wgt id="622">6.38217e-12</wgt>
  <wgt id="623">6.47086e-12</wgt>
  <wgt id="624">6.27304e-12</wgt>
  <wgt id="625">6.25211e-12</wgt>
  <wgt id="626">6.20017e-12</wgt>
  <wgt id="627">6.11563e-12</wgt>
  <wgt id="628">6.64343e-12</wgt>
  <wgt id="629">6.19569e-12</wgt>
  <wgt id="630">6.1901e-12</wgt>
  <wgt id="631">6.30997e-12</wgt>
  <wgt id="632">6.1678e-12</wgt>
  <wgt id="633">6.23836e-12</wgt>
  <wgt id="634">6.37794e-12</wgt>
  <wgt id="635">6.30592e-12</wgt>
  <wgt id="636">6.3608e-12</wgt>
  <wgt id="637">6.36333e-12</wgt>
  <wgt id="638">6.11837e-12</wgt>
  <wgt id="639">6.26595e-12</wgt>
  <wgt id="640">6.34284e-12</wgt>
  <wgt id="641">6.3208e-12</wgt>
  <wgt id="642">6.29902e-12</wgt>
  <wgt id="643">6.30907e-12</wgt>
  <wgt id="644">6.13728e-12</wgt>
  <wgt id="645">6.34906e-12</wgt>
  <wgt id="646">6.46678e-12</wgt>
  <wgt id="647">6.20896e-12</wgt>
  <wgt id="648">6.34254e-12</wgt>
  <wgt id="649">6.41652e-12</wgt>
  <wgt id="650">6.21254e-12</wgt>
  <wgt id="651">6.40611e-12</wgt>
  <wgt id="652">6.32954e-12</wgt>
  <wgt id="653">6.16832e-12</wgt>
  <wgt id="654">6.30383e-12</wgt>
  <wgt id="655">6.17281e-12</wgt>
  <wgt id="656">6.29149e-12</wgt>
  <wgt id="657">6.41951e-12</wgt>
  <wgt id="658">6.46675e-12</wgt>
  <wgt id="659">6.10921e-12</wgt>
  <wgt id="660">6.43733e-12</wgt>
  <wgt id="661">6.23829e-12</wgt>
  <wgt id="662">6.28348e-12</wgt>
  <wgt id="663">6.29512e-12</wgt>
  <wgt id="664">6.21691e-12</wgt>
  <wgt id="665">6.29726e-12</wgt>
  <wgt id="666">6.32445e-12</wgt>
  <wgt id="667">6.51704e-12</wgt>
  <wgt id="668">6.27932e-12</wgt>
  <wgt id="669">6.47913e-12</wgt>
  <wgt id="670">6.37269e-12</wgt>
  <wgt id="671">6.20256e-12</wgt>
  <wgt id="672">6.06074e-12</wgt>
  <wgt id="673">6.28226e-12</wgt>
  <wgt id="674">6.19157e-12</wgt>
  <wgt id="675">6.16865e-12</wgt>
  <wgt id="676">7.79864e-12</wgt>
  <wgt id="677">7.91645e-12</wgt>
  <wgt id="678">8.13699e-12</wgt>
  <wgt id="679">7.48447e-12</wgt>
  <wgt id="680">7.497e-12</wgt>
  <wgt id="681">8.0455e-12</wgt>
  <wgt id="682">7.86666e-12</wgt>
  <wgt id="683">7.75558e-12</wgt>
  <wgt id="684">8.12224e-12</wgt>
  <wgt id="685">7.39931e-12</wgt>
  <wgt id="686">7.90437e-12</wgt>
  <wgt id="687">8.11592e-12</wgt>
  <wgt id="688">7.75002e-12</wgt>
  <wgt id="689">8.30239e-12</wgt>
  <wgt id="690">8.24866e-12</wgt>
  <wgt id="691">8.18347e-12</wgt>
  <wgt id="692">7.79669e-12</wgt>
  <wgt id="693">8.87342e-12</wgt>
  <wgt id="694">8.21704e-12</wgt>
  <wgt id="695">7.54361e-12</wgt>
  <wgt id="696">7.46088e-12</wgt>
  <wgt id="697">7.54915e-12</wgt>
  <wgt id="698">7.40014e-12</wgt>
  <wgt id="699">7.29575e-12</wgt>
  <wgt id="700">7.01861e-12</wgt>
  <wgt id="701">7.80949e-12</wgt>
  <wgt id="702">7.44292e-12</wgt>
  <wgt id="703">8.75111e-12</wgt>
  <wgt id="704">8.30918e-12</wgt>
  <wgt id="705">8.05648e-12</wgt>
  <wgt id="706">7.3011e-12</wgt>
  <wgt id="707">7.51906e-12</wgt>
  <wgt id="708">7.71377e-12</wgt>
  <wgt id="709">7.67774e-12</wgt>
  <wgt id="710">7.02038e-12</wgt>
  <wgt id="711">7.81031e-12</wgt>
  <wgt id="712">7.71708e-12</wgt>
  <wgt id="713">8.26881e-12</wgt>
  <wgt id="714">7.80531e-12</wgt>
  <wgt id="715">7.72024e-12</wgt>
  <wgt id="716">7.53295e-12</wgt>
  <wgt id="717">7.53069e-12</wgt>
  <wgt id="718">7.6229e-12</wgt>
  <wgt id="719">7.18465e-12</wgt>
  <wgt id="720">7.43148e-12</wgt>
  <wgt id="721">7.50626e-12</wgt>
  <wgt id="722">7.1435e-12</wgt>
  <wgt id="723">8.19324e-12</wgt>
  <wgt id="724">8.0716e-12</wgt>
  <wgt id="725">8.23769e-12</wgt>
  <wgt id="726">7.88959e-12</wgt>
  <wgt id="727">7.62796e-12</wgt>
  <wgt id="728">7.76681e-12</wgt>
  <wgt id="729">7.10549e-12</wgt>
  <wgt id="730">8.21131e-12</wgt>
  <wgt id="731">7.73562e-12</wgt>
  <wgt id="732">8.44801e-12</wgt>
  <wgt id="733">7.79378e-12</wgt>
  <wgt id="734">7.97177e-12</wgt>
  <wgt id="735">7.75585e-12</wgt>
  <wgt id="736">7.72419e-12</wgt>
  <wgt id="737">7.92391e-12</wgt>
  <wgt id="738">7.55459e-12</wgt>
  <wgt id="739">7.72347e-12</wgt>
  <wgt id="740">8.57355e-12</wgt>
  <wgt id="741">6.96546e-12</wgt>
  <wgt id="742">7.69274e-12</wgt>
  <wgt id="743">7.62615e-12</wgt>
  <wgt id="744">7.65099e-12</wgt>
  <wgt id="745">8.04836e-12</wgt>
  <wgt id="746">8.12451e-12</wgt>
  <wgt id="747">7.27677e-12</wgt>
  <wgt id="748">7.6629e-12</wgt>
  <wgt id="749">8.23886e-12</wgt>
  <wgt id="750">7.67844e-12</wgt>
  <wgt id="751">8.08926e-12</wgt>
  <wgt id="752">7.25323e-12</wgt>
  <wgt id="753">7.45253e-12</wgt>
  <wgt id="754">7.95516e-12</wgt>
  <wgt id="755">7.85726e-12</wgt>
  <wgt id="756">7.83289e-12</wgt>
  <wgt id="757">7.30891e-12</wgt>
  <wgt id="758">7.91136e-12</wgt>
  <wgt id="759">7.70366e-12</wgt>
  <wgt id="760">7.96293e-12</wgt>
  <wgt id="761">8.20042e-12</wgt>
  <wgt id="762">8.18009e-12</wgt>
  <wgt id="763">7.84008e-12</wgt>
  <wgt id="764">8.04738e-12</wgt>
  <wgt id="765">7.83003e-12</wgt>
  <wgt id="766">7.7637e-12</wgt>
  <wgt id="767">7.95716e-12</wgt>
  <wgt id="768">7.45884e-12</wgt>
  <wgt id="769">8.21279e-12</wgt>
  <wgt id="770">7.59811e-12</wgt>
  <wgt id="771">9.03061e-12</wgt>
  <wgt id="772">7.34652e-12</wgt>
  <wgt id="773">7.78377e-12</wgt>
  <wgt id="774">7.13263e-12</wgt>
  <wgt id="775">8.10812e-12</wgt>
  <wgt id="776">8.49242e-12</wgt>
  <wgt id="777">7.64093e-12</wgt>
  <wgt id="778">5.9313e-12</wgt>
  <wgt id="779">5.15341e-12</wgt>
  <wgt id="780">4.47475e-12</wgt>
  <wgt id="781">5.87389e-12</wgt>
  <wgt id="782">6.27283e-12</wgt>
  <wgt id="783">5.27248e-12</wgt>
  <wgt id="784">5.35482e-12</wgt>
  <wgt id="785">7.01594e-12</wgt>
  <wgt id="786">4.70946e-12</wgt>
  <wgt id="787">6.53681e-12</wgt>
  <wgt id="788">4.1594e-12</wgt>
  <wgt id="789">4.85674e-12</wgt>
  <wgt id="790">4.72051e-12</wgt>
  <wgt id="791">5.49332e-12</wgt>
  <wgt id="792">7.46885e-12</wgt>
  <wgt id="793">5.70622e-12</wgt>
  <wgt id="794">4.85674e-12</wgt>
  <wgt id="795">6.62931e-12</wgt>
  <wgt id="796">7.58396e-12</wgt>
  <wgt id="797">6.62836e-12</wgt>
  <wgt id="798">5.60042e-12</wgt>
  <wgt id="799">6.58541e-12</wgt>
  <wgt id="800">4.91344e-12</wgt>
  <wgt id="801">5.65676e-12</wgt>
  <wgt id="802">4.90843e-12</wgt>
  <wgt id="803">7.66569e-12</wgt>
  <wgt id="804">6.59276e-12</wgt>
  <wgt id="805">6.71945e-12</wgt>
  <wgt id="806">6.71127e-12</wgt>
  <wgt id="807">5.73471e-12</wgt>
  <wgt id="808">5.81653e-12</wgt>
  <wgt id="809">5.50168e-12</wgt>
  <wgt id="810">6.76907e-12</wgt>
  <wgt id="811">6.39377e-12</wgt>
  <wgt id="812">4.82002e-12</wgt>
  <wgt id="813">4.85013e-12</wgt>
  <wgt id="814">5.0107e-12</wgt>
  <wgt id="815">5.17584e-12</wgt>
  <wgt id="816">4.6493e-12</wgt>
  <wgt id="817">6.25633e-12</wgt>
  <wgt id="818">5.71262e-12</wgt>
  <wgt id="819">5.18629e-12</wgt>
  <wgt id="820">5.96225e-12</wgt>
  <wgt id="821">6.61784e-12</wgt>
  <wgt id="822">5.26303e-12</wgt>
  <wgt id="823">6.61117e-12</wgt>
  <wgt id="824">7.76985e-12</wgt>
  <wgt id="825">4.67201e-12</wgt>
  <wgt id="826">6.07187e-12</wgt>
  <wgt id="827">3.99735e-12</wgt>
  <wgt id="828">7.55507e-12</wgt>
  <wgt id="829">6.0732e-12</wgt>
  <wgt id="830">4.4538e-12</wgt>
  <wgt id="831">6.26055e-12</wgt>
  <wgt id="832">9.26003e-12</wgt>
  <wgt id="833">5.69893e-12</wgt>
  <wgt id="834">8.69569e-12</wgt>
  <wgt id="835">4.92921e-12</wgt>
  <wgt id="836">6.01094e-12</wgt>
  <wgt id="837">6.53934e-12</wgt>
  <wgt id="838">5.71669e-12</wgt>
  <wgt id="839">6.24284e-12</wgt>
  <wgt id="840">5.69626e-12</wgt>
  <wgt id="841">6.94395e-12</wgt>
  <wgt id="842">5.52215e-12</wgt>
  <wgt id="843">5.72537e-12</wgt>
  <wgt id="844">6.08335e-12</wgt>
  <wgt id="845">7.79475e-12</wgt>
  <wgt id="846">5.48767e-12</wgt>
  <wgt id="847">5.79787e-12</wgt>
  <wgt id="848">5.38356e-12</wgt>
  <wgt id="849">6.0407e-12</wgt>
  <wgt id="850">7.34762e-12</wgt>
  <wgt id="851">6.40285e-12</wgt>
  <wgt id="852">5.30697e-12</wgt>
  <wgt id="853">6.347e-12</wgt>
  <wgt id="854">6.99382e-12</wgt>
  <wgt id="855">6.60227e-12</wgt>
  <wgt id="856">4.56215e-12</wgt>
  <wgt id="857">6.02833e-12</wgt>
  <wgt id="858">5.88664e-12</wgt>
  <wgt id="859">5.56222e-12</wgt>
  <wgt id="860">6.14049e-12</wgt>
  <wgt id="861">5.4447e-12</wgt>
  <wgt id="862">6.0054e-12</wgt>
  <wgt id="863">6.13522e-12</wgt>
  <wgt id="864">6.16861e-12</wgt>
  <wgt id="865">8.03912e-12</wgt>
  <wgt id="866">8.78792e-12</wgt>
  <wgt id="867">5.92659e-12</wgt>
  <wgt id="868">5.80132e-12</wgt>
  <wgt id="869">4.83846e-12</wgt>
  <wgt id="870">5.08563e-12</wgt>
  <wgt id="871">4.95629e-12</wgt>
  <wgt id="872">6.75931e-12</wgt>
  <wgt id="873">5.041e-12</wgt>
  <wgt id="874">6.12592e-12</wgt>
  <wgt id="875">5.23574e-12</wgt>
  <wgt id="876">6.7672e-12</wgt>
  <wgt id="877">6.57596e-12</wgt>
  <wgt id="878">5.32892e-12</wgt>
  <wgt id="879">7.79864e-12</wgt>
  <wgt id="880">7.91645e-12</wgt>
  <wgt id="881">8.13699e-12</wgt>
  <wgt id="882">7.48447e-12</wgt>
  <wgt id="883">7.497e-12</wgt>
  <wgt id="884">8.0455e-12</wgt>
  <wgt id="885">7.86666e-12</wgt>
  <wgt id="886">7.75558e-12</wgt>
  <wgt id="887">8.12224e-12</wgt>
  <wgt id="888">7.39931e-12</wgt>
  <wgt id="889">7.90437e-12</wgt>
  <wgt id="890">8.11592e-12</wgt>
  <wgt id="891">7.75002e-12</wgt>
  <wgt id="892">8.30239e-12</wgt>
  <wgt id="893">8.24866e-12</wgt>
  <wgt id="894">8.18347e-12</wgt>
  <wgt id="895">7.79669e-12</wgt>
  <wgt id="896">8.87342e-12</wgt>
  <wgt id="897">8.21704e-12</wgt>
  <wgt id="898">7.54361e-12</wgt>
  <wgt id="899">7.46088e-12</wgt>
  <wgt id="900">7.54915e-12</wgt>
  <wgt id="901">7.40014e-12</wgt>
  <wgt id="902">7.29575e-12</wgt>
  <wgt id="903">7.01861e-12</wgt>
  <wgt id="904">7.80949e-12</wgt>
  <wgt id="905">7.44292e-12</wgt>
  <wgt id="906">8.75111e-12</wgt>
  <wgt id="907">8.30918e-12</wgt>
  <wgt id="908">8.05648e-12</wgt>
  <wgt id="909">7.3011e-12</wgt>
  <wgt id="910">7.51906e-12</wgt>
  <wgt id="911">7.71377e-12</wgt>
  <wgt id="912">7.67774e-12</wgt>
  <wgt id="913">7.02038e-12</wgt>
  <wgt id="914">7.81031e-12</wgt>
  <wgt id="915">7.71708e-12</wgt>
  <wgt id="916">8.26881e-12</wgt>
  <wgt id="917">7.80531e-12</wgt>
  <wgt id="918">7.72024e-12</wgt>
  <wgt id="919">7.53295e-12</wgt>
  <wgt id="920">7.53069e-12</wgt>
  <wgt id="921">7.6229e-12</wgt>
  <wgt id="922">7.18465e-12</wgt>
  <wgt id="923">7.43148e-12</wgt>
  <wgt id="924">7.50626e-12</wgt>
  <wgt id="925">7.1435e-12</wgt>
  <wgt id="926">8.19324e-12</wgt>
  <wgt id="927">8.0716e-12</wgt>
  <wgt id="928">8.23769e-12</wgt>
  <wgt id="929">7.88959e-12</wgt>
  <wgt id="930">7.62796e-12</wgt>
  <wgt id="931">7.76681e-12</wgt>
  <wgt id="932">7.10549e-12</wgt>
  <wgt id="933">8.21131e-12</wgt>
  <wgt id="934">7.73562e-12</wgt>
  <wgt id="935">8.44801e-12</wgt>
  <wgt id="936">7.79378e-12</wgt>
  <wgt id="937">7.97177e-12</wgt>
  <wgt id="938">7.75585e-12</wgt>
  <wgt id="939">7.72419e-12</wgt>
  <wgt id="940">7.92391e-12</wgt>
  <wgt id="941">7.55459e-12</wgt>
  <wgt id="942">7.72347e-12</wgt>
  <wgt id="943">8.57355e-12</wgt>
  <wgt id="944">6.96546e-12</wgt>
  <wgt id="945">7.69274e-12</wgt>
  <wgt id="946">7.62615e-12</wgt>
  <wgt id="947">7.65099e-12</wgt>
  <wgt id="948">8.04836e-12</wgt>
  <wgt id="949">8.12451e-12</wgt>
  <wgt id="950">7.27677e-12</wgt>
  <wgt id="951">7.6629e-12</wgt>
  <wgt id="952">8.23886e-12</wgt>
  <wgt id="953">7.67844e-12</wgt>
  <wgt id="954">8.08926e-12</wgt>
  <wgt id="955">7.25323e-12</wgt>
  <wgt id="956">7.45253e-12</wgt>
  <wgt id="957">7.95516e-12</wgt>
  <wgt id="958">7.85726e-12</wgt>
  <wgt id="959">7.83289e-12</wgt>
  <wgt id="960">7.30891e-12</wgt>
  <wgt id="961">7.91136e-12</wgt>
  <wgt id="962">7.70366e-12</wgt>
  <wgt id="963">7.96293e-12</wgt>
  <wgt id="964">8.20042e-12</wgt>
  <wgt id="965">8.18009e-12</wgt>
  <wgt id="966">7.84008e-12</wgt>
  <wgt id="967">8.04738e-12</wgt>
  <wgt id="968">7.83003e-12</wgt>
  <wgt id="969">7.7637e-12</wgt>
  <wgt id="970">7.95716e-12</wgt>
  <wgt id="971">7.45884e-12</wgt>
  <wgt id="972">8.21279e-12</wgt>
  <wgt id="973">7.59811e-12</wgt>
  <wgt id="974">9.03061e-12</wgt>
  <wgt id="975">7.34652e-12</wgt>
  <wgt id="976">7.78377e-12</wgt>
  <wgt id="977">7.13263e-12</wgt>
  <wgt id="978">8.10812e-12</wgt>
  <wgt id="979">8.49242e-12</wgt>
  <wgt id="980">7.82204e-12</wgt>
  <wgt id="981">7.81526e-12</wgt>
  <wgt id="982">7.58994e-12</wgt>
</rwgt>
</event>
<event>
 5   1  0.5790000E-11  0.2186304E+04  0.7818608E-02  0.7754047E-01
       21   -1    0    0  502  501  0.00000000000E+00  0.00000000000E+00  0.34129270039E+04  0.34129270039E+04  0.00000000000E+00 0.  1.
       21   -1    0    0  501  502 -0.00000000000E+00 -0.00000000000E+00 -0.35013381766E+03  0.35013381766E+03  0.00000000000E+00 0. -1.
       39    2    1    2    0    0  0.00000000000E+00  0.00000000000E+00  0.30627931862E+04  0.37630608215E+04  0.21863038776E+04 0.  0.
       25    1    3    3    0    0  0.76645874963E+03  0.60151061054E+03  0.23570012977E+04  0.25534984133E+04  0.12500000000E+03 0.  0.
       25    1    3    3    0    0 -0.76645874963E+03 -0.60151061054E+03  0.70579188850E+03  0.12095624082E+04  0.12500000000E+03 0.  0.
<mgrwt>
<rscale>  0 0.21863039E+04</rscale>
<asrwt>0</asrwt>
<pdfrwt beam="1">  1       21 0.52506567E+00 0.21863039E+04</pdfrwt>
<pdfrwt beam="2">  1       21 0.53866743E-01 0.21863039E+04</pdfrwt>
<totfact> 0.14301739E+00</totfact>
</mgrwt>
<rwgt>
  <wgt id="1">5.79e-12</wgt>
  <wgt id="2">4.85795e-12</wgt>
  <wgt id="3">7.01355e-12</wgt>
  <wgt id="4">5.79e-12</wgt>
  <wgt id="5">4.85795e-12</wgt>
  <wgt id="6">7.01355e-12</wgt>
  <wgt id="7">5.79e-12</wgt>
  <wgt id="8">4.85795e-12</wgt>
  <wgt id="9">7.01355e-12</wgt>
  <wgt id="10">6.34768e-12</wgt>
  <wgt id="11">6.34588e-12</wgt>
  <wgt id="12">6.36178e-12</wgt>
  <wgt id="13">6.3816e-12</wgt>
  <wgt id="14">6.26744e-12</wgt>
  <wgt id="15">6.29297e-12</wgt>
  <wgt id="16">6.37253e-12</wgt>
  <wgt id="17">6.42967e-12</wgt>
  <wgt id="18">6.34746e-12</wgt>
  <wgt id="19">6.35511e-12</wgt>
  <wgt id="20">6.37868e-12</wgt>
  <wgt id="21">6.17333e-12</wgt>
  <wgt id="22">6.28508e-12</wgt>
  <wgt id="23">6.23528e-12</wgt>
  <wgt id="24">6.3331e-12</wgt>
  <wgt id="25">6.39895e-12</wgt>
  <wgt id="26">6.34333e-12</wgt>
  <wgt id="27">6.37702e-12</wgt>
  <wgt id="28">6.32303e-12</wgt>
  <wgt id="29">6.36261e-12</wgt>
  <wgt id="30">6.3522e-12</wgt>
  <wgt id="31">6.37027e-12</wgt>
  <wgt id="32">6.29599e-12</wgt>
  <wgt id="33">6.34777e-12</wgt>
  <wgt id="34">6.30016e-12</wgt>
  <wgt id="35">6.27516e-12</wgt>
  <wgt id="36">6.3539e-12</wgt>
  <wgt id="37">6.30728e-12</wgt>
  <wgt id="38">6.27378e-12</wgt>
  <wgt id="39">6.49573e-12</wgt>
  <wgt id="40">6.44059e-12</wgt>
  <wgt id="41">6.31924e-12</wgt>
  <wgt id="42">6.25163e-12</wgt>
  <wgt id="43">6.30442e-12</wgt>
  <wgt id="44">6.41724e-12</wgt>
  <wgt id="45">6.41525e-12</wgt>
  <wgt id="46">6.29276e-12</wgt>
  <wgt id="47">6.52478e-12</wgt>
  <wgt id="48">6.48531e-12</wgt>
  <wgt id="49">6.39554e-12</wgt>
  <wgt id="50">6.29777e-12</wgt>
  <wgt id="51">6.29952e-12</wgt>
  <wgt id="52">6.37967e-12</wgt>
  <wgt id="53">6.61853e-12</wgt>
  <wgt id="54">6.40954e-12</wgt>
  <wgt id="55">6.32584e-12</wgt>
  <wgt id="56">6.09377e-12</wgt>
  <wgt id="57">6.19742e-12</wgt>
  <wgt id="58">6.37532e-12</wgt>
  <wgt id="59">6.4731e-12</wgt>
  <wgt id="60">6.20756e-12</wgt>
  <wgt id="61">6.46567e-12</wgt>
  <wgt id="62">6.48394e-12</wgt>
  <wgt id="63">6.28461e-12</wgt>
  <wgt id="64">6.36355e-12</wgt>
  <wgt id="65">6.36222e-12</wgt>
  <wgt id="66">6.55683e-12</wgt>
  <wgt id="67">6.63031e-12</wgt>
  <wgt id="68">6.37137e-12</wgt>
  <wgt id="69">6.39877e-12</wgt>
  <wgt id="70">6.19893e-12</wgt>
  <wgt id="71">6.50833e-12</wgt>
  <wgt id="72">6.64367e-12</wgt>
  <wgt id="73">6.14283e-12</wgt>
  <wgt id="74">6.4639e-12</wgt>
  <wgt id="75">6.00137e-12</wgt>
  <wgt id="76">6.29604e-12</wgt>
  <wgt id="77">6.22635e-12</wgt>
  <wgt id="78">6.30235e-12</wgt>
  <wgt id="79">6.24145e-12</wgt>
  <wgt id="80">6.48063e-12</wgt>
  <wgt id="81">6.43036e-12</wgt>
  <wgt id="82">6.26621e-12</wgt>
  <wgt id="83">6.36181e-12</wgt>
  <wgt id="84">6.24903e-12</wgt>
  <wgt id="85">6.2798e-12</wgt>
  <wgt id="86">6.44172e-12</wgt>
  <wgt id="87">6.28488e-12</wgt>
  <wgt id="88">6.32037e-12</wgt>
  <wgt id="89">6.34077e-12</wgt>
  <wgt id="90">6.51955e-12</wgt>
  <wgt id="91">6.3122e-12</wgt>
  <wgt id="92">6.32793e-12</wgt>
  <wgt id="93">6.50024e-12</wgt>
  <wgt id="94">6.18133e-12</wgt>
  <wgt id="95">6.71354e-12</wgt>
  <wgt id="96">6.65437e-12</wgt>
  <wgt id="97">6.12277e-12</wgt>
  <wgt id="98">6.29798e-12</wgt>
  <wgt id="99">6.27873e-12</wgt>
  <wgt id="100">6.49855e-12</wgt>
  <wgt id="101">6.13866e-12</wgt>
  <wgt id="102">6.29889e-12</wgt>
  <wgt id="103">6.64041e-12</wgt>
  <wgt id="104">6.20965e-12</wgt>
  <wgt id="105">6.53066e-12</wgt>
  <wgt id="106">6.16721e-12</wgt>
  <wgt id="107">6.76207e-12</wgt>
  <wgt id="108">6.29795e-12</wgt>
  <wgt id="109">6.3476e-12</wgt>
  <wgt id="110">6.30278e-12</wgt>
  <wgt id="111">6.11014e-12</wgt>
  <wgt id="112">6.55005e-12</wgt>
  <wgt id="113">1.25707e-11</wgt>
  <wgt id="114">7.8416e-12</wgt>
  <wgt id="115">7.72907e-12</wgt>
  <wgt id="116">1.03426e-11</wgt>
  <wgt id="117">7.61702e-12</wgt>
  <wgt id="118">7.64849e-12</wgt>
  <wgt id="119">7.59906e-12</wgt>
  <wgt id="120">7.61617e-12</wgt>
  <wgt id="121">7.61733e-12</wgt>
  <wgt id="122">7.60806e-12</wgt>
  <wgt id="123">7.62955e-12</wgt>
  <wgt id="124">7.6086e-12</wgt>
  <wgt id="125">7.62238e-12</wgt>
  <wgt id="126">7.619e-12</wgt>
  <wgt id="127">7.61582e-12</wgt>
  <wgt id="128">7.63864e-12</wgt>
  <wgt id="129">7.59559e-12</wgt>
  <wgt id="130">7.63208e-12</wgt>
  <wgt id="131">7.6004e-12</wgt>
  <wgt id="132">7.36366e-12</wgt>
  <wgt id="133">7.92365e-12</wgt>
  <wgt id="134">7.54376e-12</wgt>
  <wgt id="135">7.67515e-12</wgt>
  <wgt id="136">7.80169e-12</wgt>
  <wgt id="137">7.39872e-12</wgt>
  <wgt id="138">8.14729e-12</wgt>
  <wgt id="139">7.14049e-12</wgt>
  <wgt id="140">7.63093e-12</wgt>
  <wgt id="141">7.60215e-12</wgt>
  <wgt id="142">7.61112e-12</wgt>
  <wgt id="143">7.66245e-12</wgt>
  <wgt id="144">6.98762e-12</wgt>
  <wgt id="145">8.30946e-12</wgt>
  <wgt id="146">7.86167e-12</wgt>
  <wgt id="147">7.41057e-12</wgt>
  <wgt id="148">7.64352e-12</wgt>
  <wgt id="149">7.61539e-12</wgt>
  <wgt id="150">7.67327e-12</wgt>
  <wgt id="151">7.59047e-12</wgt>
  <wgt id="152">7.61148e-12</wgt>
  <wgt id="153">7.61906e-12</wgt>
  <wgt id="154">7.48279e-12</wgt>
  <wgt id="155">7.71905e-12</wgt>
  <wgt id="156">8.2716e-12</wgt>
  <wgt id="157">7.12713e-12</wgt>
  <wgt id="158">8.87945e-12</wgt>
  <wgt id="159">8.91904e-12</wgt>
  <wgt id="160">8.84711e-12</wgt>
  <wgt id="161">8.85578e-12</wgt>
  <wgt id="162">8.90514e-12</wgt>
  <wgt id="163">8.86871e-12</wgt>
  <wgt id="164">8.89536e-12</wgt>
  <wgt id="165">8.88223e-12</wgt>
  <wgt id="166">8.87733e-12</wgt>
  <wgt id="167">8.87405e-12</wgt>
  <wgt id="168">8.88684e-12</wgt>
  <wgt id="169">8.84728e-12</wgt>
  <wgt id="170">8.8996e-12</wgt>
  <wgt id="171">8.88262e-12</wgt>
  <wgt id="172">8.87564e-12</wgt>
  <wgt id="173">8.8165e-12</wgt>
  <wgt id="174">8.90149e-12</wgt>
  <wgt id="175">8.59016e-12</wgt>
  <wgt id="176">9.26082e-12</wgt>
  <wgt id="177">8.8853e-12</wgt>
  <wgt id="178">8.87597e-12</wgt>
  <wgt id="179">9.6136e-12</wgt>
  <wgt id="180">7.83189e-12</wgt>
  <wgt id="181">8.4601e-12</wgt>
  <wgt id="182">9.16802e-12</wgt>
  <wgt id="183">8.62382e-12</wgt>
  <wgt id="184">9.00692e-12</wgt>
  <wgt id="185">8.72671e-12</wgt>
  <wgt id="186">9.06538e-12</wgt>
  <wgt id="187">8.70127e-12</wgt>
  <wgt id="188">9.1837e-12</wgt>
  <wgt id="189">8.77439e-12</wgt>
  <wgt id="190">8.92172e-12</wgt>
  <wgt id="191">8.93679e-12</wgt>
  <wgt id="192">8.84459e-12</wgt>
  <wgt id="193">9.09247e-12</wgt>
  <wgt id="194">8.76953e-12</wgt>
  <wgt id="195">8.21721e-12</wgt>
  <wgt id="196">9.91429e-12</wgt>
  <wgt id="197">8.92496e-12</wgt>
  <wgt id="198">8.86854e-12</wgt>
  <wgt id="199">8.87945e-12</wgt>
  <wgt id="200">8.99285e-12</wgt>
  <wgt id="201">8.96224e-12</wgt>
  <wgt id="202">8.92598e-12</wgt>
  <wgt id="203">8.88956e-12</wgt>
  <wgt id="204">8.86471e-12</wgt>
  <wgt id="205">8.84674e-12</wgt>
  <wgt id="206">8.94166e-12</wgt>
  <wgt id="207">8.99908e-12</wgt>
  <wgt id="208">8.88513e-12</wgt>
  <wgt id="209">8.96459e-12</wgt>
  <wgt id="210">8.92503e-12</wgt>
  <wgt id="211">8.93924e-12</wgt>
  <wgt id="212">8.94351e-12</wgt>
  <wgt id="213">8.94107e-12</wgt>
  <wgt id="214">8.94219e-12</wgt>
  <wgt id="215">8.94779e-12</wgt>
  <wgt id="216">8.93754e-12</wgt>
  <wgt id="217">8.94724e-12</wgt>
  <wgt id="218">8.93731e-12</wgt>
  <wgt id="219">8.92463e-12</wgt>
  <wgt id="220">8.95233e-12</wgt>
  <wgt id="221">8.96455e-12</wgt>
  <wgt id="222">8.88116e-12</wgt>
  <wgt id="223">8.27677e-12</wgt>
  <wgt id="224">9.56022e-12</wgt>
  <wgt id="225">8.82678e-12</wgt>
  <wgt id="226">9.09099e-12</wgt>
  <wgt id="227">8.85035e-12</wgt>
  <wgt id="228">8.98186e-12</wgt>
  <wgt id="229">8.78849e-12</wgt>
  <wgt id="230">9.01766e-12</wgt>
  <wgt id="231">9.42403e-12</wgt>
  <wgt id="232">8.55679e-12</wgt>
  <wgt id="233">8.81758e-12</wgt>
  <wgt id="234">9.15151e-12</wgt>
  <wgt id="235">7.93279e-12</wgt>
  <wgt id="236">9.77616e-12</wgt>
  <wgt id="237">8.40555e-12</wgt>
  <wgt id="238">9.12341e-12</wgt>
  <wgt id="239">8.73402e-12</wgt>
  <wgt id="240">9.31909e-12</wgt>
  <wgt id="241">8.76814e-12</wgt>
  <wgt id="242">9.138e-12</wgt>
  <wgt id="243">9.28001e-12</wgt>
  <wgt id="244">8.80969e-12</wgt>
  <wgt id="245">8.94942e-12</wgt>
  <wgt id="246">8.93267e-12</wgt>
  <wgt id="247">8.94166e-12</wgt>
  <wgt id="248">9.08605e-12</wgt>
  <wgt id="249">9.04224e-12</wgt>
  <wgt id="250">8.97853e-12</wgt>
  <wgt id="251">8.9207e-12</wgt>
  <wgt id="252">8.87788e-12</wgt>
  <wgt id="253">8.85292e-12</wgt>
  <wgt id="254">8.27975e-12</wgt>
  <wgt id="255">8.28585e-12</wgt>
  <wgt id="256">8.27331e-12</wgt>
  <wgt id="257">8.28656e-12</wgt>
  <wgt id="258">8.27496e-12</wgt>
  <wgt id="259">8.33591e-12</wgt>
  <wgt id="260">8.22578e-12</wgt>
  <wgt id="261">8.2941e-12</wgt>
  <wgt id="262">8.26247e-12</wgt>
  <wgt id="263">8.26904e-12</wgt>
  <wgt id="264">8.29294e-12</wgt>
  <wgt id="265">8.27035e-12</wgt>
  <wgt id="266">8.29857e-12</wgt>
  <wgt id="267">8.28155e-12</wgt>
  <wgt id="268">8.27754e-12</wgt>
  <wgt id="269">8.29757e-12</wgt>
  <wgt id="270">8.26781e-12</wgt>
  <wgt id="271">8.22717e-12</wgt>
  <wgt id="272">8.33876e-12</wgt>
  <wgt id="273">8.26734e-12</wgt>
  <wgt id="274">8.28897e-12</wgt>
  <wgt id="275">8.18105e-12</wgt>
  <wgt id="276">8.38277e-12</wgt>
  <wgt id="277">8.25402e-12</wgt>
  <wgt id="278">8.30286e-12</wgt>
  <wgt id="279">8.12308e-12</wgt>
  <wgt id="280">8.47936e-12</wgt>
  <wgt id="281">8.17903e-12</wgt>
  <wgt id="282">8.39797e-12</wgt>
  <wgt id="283">7.88028e-12</wgt>
  <wgt id="284">8.80377e-12</wgt>
  <wgt id="285">7.61545e-12</wgt>
  <wgt id="286">8.87796e-12</wgt>
  <wgt id="287">8.31846e-12</wgt>
  <wgt id="288">8.23146e-12</wgt>
  <wgt id="289">8.37447e-12</wgt>
  <wgt id="290">8.08537e-12</wgt>
  <wgt id="291">8.23609e-12</wgt>
  <wgt id="292">8.24529e-12</wgt>
  <wgt id="293">8.17268e-12</wgt>
  <wgt id="294">8.38717e-12</wgt>
  <wgt id="295">8.01332e-12</wgt>
  <wgt id="296">8.606e-12</wgt>
  <wgt id="297">8.17404e-12</wgt>
  <wgt id="298">8.36076e-12</wgt>
  <wgt id="299">8.24499e-12</wgt>
  <wgt id="300">8.37313e-12</wgt>
  <wgt id="301">7.88998e-12</wgt>
  <wgt id="302">9.11007e-12</wgt>
  <wgt id="303">8.07189e-12</wgt>
  <wgt id="304">8.3936e-12</wgt>
  <wgt id="305">7.84737e-12</wgt>
  <wgt id="306">7.85281e-12</wgt>
  <wgt id="307">7.84147e-12</wgt>
  <wgt id="308">7.85412e-12</wgt>
  <wgt id="309">7.84273e-12</wgt>
  <wgt id="310">7.90042e-12</wgt>
  <wgt id="311">7.79789e-12</wgt>
  <wgt id="312">7.86517e-12</wgt>
  <wgt id="313">7.82844e-12</wgt>
  <wgt id="314">7.83427e-12</wgt>
  <wgt id="315">7.86015e-12</wgt>
  <wgt id="316">7.83626e-12</wgt>
  <wgt id="317">7.8712e-12</wgt>
  <wgt id="318">7.85199e-12</wgt>
  <wgt id="319">7.8397e-12</wgt>
  <wgt id="320">7.86829e-12</wgt>
  <wgt id="321">7.83609e-12</wgt>
  <wgt id="322">7.79978e-12</wgt>
  <wgt id="323">7.90349e-12</wgt>
  <wgt id="324">7.84758e-12</wgt>
  <wgt id="325">7.84748e-12</wgt>
  <wgt id="326">7.76419e-12</wgt>
  <wgt id="327">7.95515e-12</wgt>
  <wgt id="328">7.84302e-12</wgt>
  <wgt id="329">7.84709e-12</wgt>
  <wgt id="330">8.06294e-12</wgt>
  <wgt id="331">7.64474e-12</wgt>
  <wgt id="332">7.75794e-12</wgt>
  <wgt id="333">7.93707e-12</wgt>
  <wgt id="334">7.5772e-12</wgt>
  <wgt id="335">8.20049e-12</wgt>
  <wgt id="336">7.41887e-12</wgt>
  <wgt id="337">8.40803e-12</wgt>
  <wgt id="338">7.97498e-12</wgt>
  <wgt id="339">7.73464e-12</wgt>
  <wgt id="340">7.9189e-12</wgt>
  <wgt id="341">7.68334e-12</wgt>
  <wgt id="342">7.82883e-12</wgt>
  <wgt id="343">7.78228e-12</wgt>
  <wgt id="344">7.76478e-12</wgt>
  <wgt id="345">7.94432e-12</wgt>
  <wgt id="346">7.59407e-12</wgt>
  <wgt id="347">8.13009e-12</wgt>
  <wgt id="348">7.73893e-12</wgt>
  <wgt id="349">7.92614e-12</wgt>
  <wgt id="350">7.80801e-12</wgt>
  <wgt id="351">7.94934e-12</wgt>
  <wgt id="352">7.50434e-12</wgt>
  <wgt id="353">8.53628e-12</wgt>
  <wgt id="354">7.59114e-12</wgt>
  <wgt id="355">7.99415e-12</wgt>
  <wgt id="356">8.27975e-12</wgt>
  <wgt id="357">7.76245e-12</wgt>
  <wgt id="358">7.84737e-12</wgt>
  <wgt id="359">8.15641e-12</wgt>
  <wgt id="360">8.77209e-12</wgt>
  <wgt id="361">8.38365e-12</wgt>
  <wgt id="362">8.65685e-12</wgt>
  <wgt id="363">8.62455e-12</wgt>
  <wgt id="364">8.53035e-12</wgt>
  <wgt id="365">8.48054e-12</wgt>
  <wgt id="366">8.43781e-12</wgt>
  <wgt id="367">8.37498e-12</wgt>
  <wgt id="368">8.31637e-12</wgt>
  <wgt id="369">8.25292e-12</wgt>
  <wgt id="370">8.38365e-12</wgt>
  <wgt id="371">8.40747e-12</wgt>
  <wgt id="372">8.39281e-12</wgt>
  <wgt id="373">8.37856e-12</wgt>
  <wgt id="374">8.43526e-12</wgt>
  <wgt id="375">1.30952e-11</wgt>
  <wgt id="376">1.30944e-11</wgt>
  <wgt id="377">1.3097e-11</wgt>
  <wgt id="378">1.31552e-11</wgt>
  <wgt id="379">1.3036e-11</wgt>
  <wgt id="380">1.31398e-11</wgt>
  <wgt id="381">1.30772e-11</wgt>
  <wgt id="382">1.31231e-11</wgt>
  <wgt id="383">1.30682e-11</wgt>
  <wgt id="384">1.3106e-11</wgt>
  <wgt id="385">1.30854e-11</wgt>
  <wgt id="386">1.30867e-11</wgt>
  <wgt id="387">1.30994e-11</wgt>
  <wgt id="388">1.3089e-11</wgt>
  <wgt id="389">1.31031e-11</wgt>
  <wgt id="390">1.30992e-11</wgt>
  <wgt id="391">1.30913e-11</wgt>
  <wgt id="392">1.29435e-11</wgt>
  <wgt id="393">1.31814e-11</wgt>
  <wgt id="394">1.30763e-11</wgt>
  <wgt id="395">1.31209e-11</wgt>
  <wgt id="396">1.3139e-11</wgt>
  <wgt id="397">1.30642e-11</wgt>
  <wgt id="398">1.3143e-11</wgt>
  <wgt id="399">1.30508e-11</wgt>
  <wgt id="400">1.30676e-11</wgt>
  <wgt id="401">1.31633e-11</wgt>
  <wgt id="402">1.28519e-11</wgt>
  <wgt id="403">1.33563e-11</wgt>
  <wgt id="404">1.38359e-11</wgt>
  <wgt id="405">1.1416e-11</wgt>
  <wgt id="406">1.25549e-11</wgt>
  <wgt id="407">1.4347e-11</wgt>
  <wgt id="408">1.33774e-11</wgt>
  <wgt id="409">1.25954e-11</wgt>
  <wgt id="410">1.22397e-11</wgt>
  <wgt id="411">1.35293e-11</wgt>
  <wgt id="412">1.30336e-11</wgt>
  <wgt id="413">1.31844e-11</wgt>
  <wgt id="414">1.27693e-11</wgt>
  <wgt id="415">1.33501e-11</wgt>
  <wgt id="416">1.40371e-11</wgt>
  <wgt id="417">1.1854e-11</wgt>
  <wgt id="418">1.31535e-11</wgt>
  <wgt id="419">1.27819e-11</wgt>
  <wgt id="420">1.40126e-11</wgt>
  <wgt id="421">1.24395e-11</wgt>
  <wgt id="422">1.27339e-11</wgt>
  <wgt id="423">1.32526e-11</wgt>
  <wgt id="424">1.41125e-11</wgt>
  <wgt id="425">1.23744e-11</wgt>
  <wgt id="426">1.30952e-11</wgt>
  <wgt id="427">1.21851e-11</wgt>
  <wgt id="428">1.49056e-11</wgt>
  <wgt id="429">1.35564e-11</wgt>
  <wgt id="430">1.4442e-11</wgt>
  <wgt id="431">1.42356e-11</wgt>
  <wgt id="432">1.40795e-11</wgt>
  <wgt id="433">1.39261e-11</wgt>
  <wgt id="434">1.37101e-11</wgt>
  <wgt id="435">1.33707e-11</wgt>
  <wgt id="436">1.32103e-11</wgt>
  <wgt id="437">1.30429e-11</wgt>
  <wgt id="438">1.35564e-11</wgt>
  <wgt id="439">1.35868e-11</wgt>
  <wgt id="440">1.35613e-11</wgt>
  <wgt id="441">1.35586e-11</wgt>
  <wgt id="442">1.35621e-11</wgt>
  <wgt id="443">7.98004e-12</wgt>
  <wgt id="444">8.1454e-12</wgt>
  <wgt id="445">8.30359e-12</wgt>
  <wgt id="446">7.94984e-12</wgt>
  <wgt id="447">7.89658e-12</wgt>
  <wgt id="448">7.86503e-12</wgt>
  <wgt id="449">8.36927e-12</wgt>
  <wgt id="450">8.22572e-12</wgt>
  <wgt id="451">7.96433e-12</wgt>
  <wgt id="452">8.10243e-12</wgt>
  <wgt id="453">8.48673e-12</wgt>
  <wgt id="454">7.33082e-12</wgt>
  <wgt id="455">8.19989e-12</wgt>
  <wgt id="456">8.34842e-12</wgt>
  <wgt id="457">7.99371e-12</wgt>
  <wgt id="458">8.19291e-12</wgt>
  <wgt id="459">8.04113e-12</wgt>
  <wgt id="460">8.42835e-12</wgt>
  <wgt id="461">7.65805e-12</wgt>
  <wgt id="462">7.90803e-12</wgt>
  <wgt id="463">7.76531e-12</wgt>
  <wgt id="464">8.05039e-12</wgt>
  <wgt id="465">8.03716e-12</wgt>
  <wgt id="466">7.4468e-12</wgt>
  <wgt id="467">7.96513e-12</wgt>
  <wgt id="468">8.06265e-12</wgt>
  <wgt id="469">7.94376e-12</wgt>
  <wgt id="470">7.73848e-12</wgt>
  <wgt id="471">7.78871e-12</wgt>
  <wgt id="472">8.00749e-12</wgt>
  <wgt id="473">7.6174e-12</wgt>
  <wgt id="474">5.79e-12</wgt>
  <wgt id="475">6.07164e-12</wgt>
  <wgt id="476">6.47417e-12</wgt>
  <wgt id="477">7.69929e-12</wgt>
  <wgt id="478">6.79893e-12</wgt>
  <wgt id="479">4.81411e-12</wgt>
  <wgt id="480">6.54265e-12</wgt>
  <wgt id="481">6.50478e-12</wgt>
  <wgt id="482">8.2769e-12</wgt>
  <wgt id="483">5.07374e-12</wgt>
  <wgt id="484">7.55819e-12</wgt>
  <wgt id="485">6.04894e-12</wgt>
  <wgt id="486">6.64095e-12</wgt>
  <wgt id="487">5.53046e-12</wgt>
  <wgt id="488">3.55946e-12</wgt>
  <wgt id="489">3.09984e-12</wgt>
  <wgt id="490">6.89992e-12</wgt>
  <wgt id="491">6.09011e-12</wgt>
  <wgt id="492">6.24177e-12</wgt>
  <wgt id="493">3.29464e-12</wgt>
  <wgt id="494">3.6584e-12</wgt>
  <wgt id="495">7.08577e-12</wgt>
  <wgt id="496">3.00869e-12</wgt>
  <wgt id="497">5.66587e-12</wgt>
  <wgt id="498">5.94419e-12</wgt>
  <wgt id="499">5.81076e-12</wgt>
  <wgt id="500">7.73084e-12</wgt>
  <wgt id="501">6.81835e-12</wgt>
  <wgt id="502">7.53499e-12</wgt>
  <wgt id="503">5.84537e-12</wgt>
  <wgt id="504">6.07121e-12</wgt>
  <wgt id="505">7.20502e-12</wgt>
  <wgt id="506">4.79638e-12</wgt>
  <wgt id="507">5.26723e-12</wgt>
  <wgt id="508">5.90107e-12</wgt>
  <wgt id="509">6.99091e-12</wgt>
  <wgt id="510">4.33597e-12</wgt>
  <wgt id="511">5.9334e-12</wgt>
  <wgt id="512">6.11148e-12</wgt>
  <wgt id="513">7.79747e-12</wgt>
  <wgt id="514">6.49887e-12</wgt>
  <wgt id="515">7.65723e-12</wgt>
  <wgt id="516">6.88703e-12</wgt>
  <wgt id="517">5.84386e-12</wgt>
  <wgt id="518">7.02761e-12</wgt>
  <wgt id="519">6.55171e-12</wgt>
  <wgt id="520">3.50494e-12</wgt>
  <wgt id="521">5.44275e-12</wgt>
  <wgt id="522">5.52297e-12</wgt>
  <wgt id="523">6.74149e-12</wgt>
  <wgt id="524">4.18726e-12</wgt>
  <wgt id="525">6.29661e-12</wgt>
  <wgt id="526">6.49432e-12</wgt>
  <wgt id="527">6.18605e-12</wgt>
  <wgt id="528">3.91921e-12</wgt>
  <wgt id="529">2.72689e-12</wgt>
  <wgt id="530">6.87053e-12</wgt>
  <wgt id="531">5.6412e-12</wgt>
  <wgt id="532">6.0411e-12</wgt>
  <wgt id="533">6.54446e-12</wgt>
  <wgt id="534">4.47562e-12</wgt>
  <wgt id="535">7.34414e-12</wgt>
  <wgt id="536">7.4087e-12</wgt>
  <wgt id="537">3.93054e-12</wgt>
  <wgt id="538">5.43203e-12</wgt>
  <wgt id="539">6.12992e-12</wgt>
  <wgt id="540">4.99266e-12</wgt>
  <wgt id="541">5.97606e-12</wgt>
  <wgt id="542">3.72219e-12</wgt>
  <wgt id="543">4.39011e-12</wgt>
  <wgt id="544">5.08322e-12</wgt>
  <wgt id="545">4.97315e-12</wgt>
  <wgt id="546">5.39377e-12</wgt>
  <wgt id="547">5.10848e-12</wgt>
  <wgt id="548">7.72751e-12</wgt>
  <wgt id="549">5.36039e-12</wgt>
  <wgt id="550">3.62395e-12</wgt>
  <wgt id="551">3.67119e-12</wgt>
  <wgt id="552">6.7849e-12</wgt>
  <wgt id="553">5.23793e-12</wgt>
  <wgt id="554">4.59183e-12</wgt>
  <wgt id="555">5.48825e-12</wgt>
  <wgt id="556">6.89992e-12</wgt>
  <wgt id="557">5.14404e-12</wgt>
  <wgt id="558">5.62585e-12</wgt>
  <wgt id="559">6.03362e-12</wgt>
  <wgt id="560">5.34625e-12</wgt>
  <wgt id="561">7.04162e-12</wgt>
  <wgt id="562">6.22659e-12</wgt>
  <wgt id="563">6.27339e-12</wgt>
  <wgt id="564">7.43988e-12</wgt>
  <wgt id="565">7.54809e-12</wgt>
  <wgt id="566">4.02224e-12</wgt>
  <wgt id="567">6.649e-12</wgt>
  <wgt id="568">3.64363e-12</wgt>
  <wgt id="569">6.27662e-12</wgt>
  <wgt id="570">5.64644e-12</wgt>
  <wgt id="571">7.05281e-12</wgt>
  <wgt id="572">3.86141e-12</wgt>
  <wgt id="573">5.75431e-12</wgt>
  <wgt id="574">6.40945e-12</wgt>
  <wgt id="575">5.43862e-12</wgt>
  <wgt id="576">5.72284e-12</wgt>
  <wgt id="577">6.03583e-12</wgt>
  <wgt id="578">2.15975e-12</wgt>
  <wgt id="579">5.57573e-12</wgt>
  <wgt id="580">5.53314e-12</wgt>
  <wgt id="581">7.16585e-12</wgt>
  <wgt id="582">4.31706e-12</wgt>
  <wgt id="583">6.71113e-12</wgt>
  <wgt id="584">6.34446e-12</wgt>
  <wgt id="585">5.56108e-12</wgt>
  <wgt id="586">4.52934e-12</wgt>
  <wgt id="587">5.23643e-12</wgt>
  <wgt id="588">8.56424e-12</wgt>
  <wgt id="589">7.16046e-12</wgt>
  <wgt id="590">6.32615e-12</wgt>
  <wgt id="591">6.01506e-12</wgt>
  <wgt id="592">7.15397e-12</wgt>
  <wgt id="593">6.20766e-12</wgt>
  <wgt id="594">6.01331e-12</wgt>
  <wgt id="595">6.76908e-12</wgt>
  <wgt id="596">5.94812e-12</wgt>
  <wgt id="597">4.40326e-12</wgt>
  <wgt id="598">8.28417e-12</wgt>
  <wgt id="599">6.64667e-12</wgt>
  <wgt id="600">5.05568e-12</wgt>
  <wgt id="601">4.96072e-12</wgt>
  <wgt id="602">3.37742e-12</wgt>
  <wgt id="603">2.55538e-12</wgt>
  <wgt id="604">7.16425e-12</wgt>
  <wgt id="605">4.89691e-12</wgt>
  <wgt id="606">1.62079e-13</wgt>
  <wgt id="607">6.34002e-12</wgt>
  <wgt id="608">5.43675e-12</wgt>
  <wgt id="609">5.70811e-12</wgt>
  <wgt id="610">3.74864e-12</wgt>
  <wgt id="611">4.60132e-12</wgt>
  <wgt id="612">4.82682e-12</wgt>
  <wgt id="613">4.25384e-12</wgt>
  <wgt id="614">6.28684e-12</wgt>
  <wgt id="615">4.58081e-12</wgt>
  <wgt id="616">4.82041e-12</wgt>
  <wgt id="617">5.0487e-12</wgt>
  <wgt id="618">6.77319e-12</wgt>
  <wgt id="619">4.64721e-12</wgt>
  <wgt id="620">6.26845e-12</wgt>
  <wgt id="621">6.83657e-12</wgt>
  <wgt id="622">5.23643e-12</wgt>
  <wgt id="623">5.7466e-12</wgt>
  <wgt id="624">4.13618e-12</wgt>
  <wgt id="625">4.68058e-12</wgt>
  <wgt id="626">-7.432e-13</wgt>
  <wgt id="627">5.16709e-12</wgt>
  <wgt id="628">6.1043e-12</wgt>
  <wgt id="629">5.83714e-12</wgt>
  <wgt id="630">7.50936e-12</wgt>
  <wgt id="631">7.26156e-12</wgt>
  <wgt id="632">5.07327e-12</wgt>
  <wgt id="633">5.54033e-12</wgt>
  <wgt id="634">4.45612e-12</wgt>
  <wgt id="635">5.47173e-12</wgt>
  <wgt id="636">3.30927e-12</wgt>
  <wgt id="637">4.38073e-12</wgt>
  <wgt id="638">5.01191e-12</wgt>
  <wgt id="639">3.83444e-12</wgt>
  <wgt id="640">3.20416e-12</wgt>
  <wgt id="641">7.2698e-12</wgt>
  <wgt id="642">4.71311e-12</wgt>
  <wgt id="643">5.42912e-12</wgt>
  <wgt id="644">6.18607e-12</wgt>
  <wgt id="645">7.30456e-12</wgt>
  <wgt id="646">3.39722e-12</wgt>
  <wgt id="647">6.96411e-12</wgt>
  <wgt id="648">6.57741e-12</wgt>
  <wgt id="649">7.41992e-12</wgt>
  <wgt id="650">6.14832e-12</wgt>
  <wgt id="651">4.80772e-12</wgt>
  <wgt id="652">4.14107e-12</wgt>
  <wgt id="653">5.9503e-12</wgt>
  <wgt id="654">5.99798e-12</wgt>
  <wgt id="655">3.63776e-12</wgt>
  <wgt id="656">7.26337e-12</wgt>
  <wgt id="657">6.872e-12</wgt>
  <wgt id="658">4.35453e-12</wgt>
  <wgt id="659">6.67774e-12</wgt>
  <wgt id="660">3.963e-12</wgt>
  <wgt id="661">4.80339e-12</wgt>
  <wgt id="662">6.08167e-12</wgt>
  <wgt id="663">6.35772e-12</wgt>
  <wgt id="664">5.92778e-12</wgt>
  <wgt id="665">4.35704e-12</wgt>
  <wgt id="666">4.89788e-12</wgt>
  <wgt id="667">5.51328e-12</wgt>
  <wgt id="668">5.77442e-12</wgt>
  <wgt id="669">4.25783e-12</wgt>
  <wgt id="670">6.78535e-12</wgt>
  <wgt id="671">5.31536e-12</wgt>
  <wgt id="672">7.0839e-12</wgt>
  <wgt id="673">6.76861e-12</wgt>
  <wgt id="674">6.01818e-12</wgt>
  <wgt id="675">4.93204e-12</wgt>
  <wgt id="676">7.96929e-12</wgt>
  <wgt id="677">8.02855e-12</wgt>
  <wgt id="678">1.022e-11</wgt>
  <wgt id="679">6.82119e-12</wgt>
  <wgt id="680">9.16247e-12</wgt>
  <wgt id="681">7.88967e-12</wgt>
  <wgt id="682">1.00172e-11</wgt>
  <wgt id="683">7.46408e-12</wgt>
  <wgt id="684">1.00607e-11</wgt>
  <wgt id="685">8.80475e-12</wgt>
  <wgt id="686">8.85439e-12</wgt>
  <wgt id="687">6.08613e-12</wgt>
  <wgt id="688">9.38861e-12</wgt>
  <wgt id="689">1.21595e-11</wgt>
  <wgt id="690">1.00914e-11</wgt>
  <wgt id="691">1.04771e-11</wgt>
  <wgt id="692">6.2599e-12</wgt>
  <wgt id="693">1.38638e-11</wgt>
  <wgt id="694">1.16195e-11</wgt>
  <wgt id="695">4.75623e-12</wgt>
  <wgt id="696">3.41948e-12</wgt>
  <wgt id="697">5.24325e-12</wgt>
  <wgt id="698">3.20943e-12</wgt>
  <wgt id="699">7.02072e-12</wgt>
  <wgt id="700">3.2186e-12</wgt>
  <wgt id="701">9.17122e-12</wgt>
  <wgt id="702">7.30243e-12</wgt>
  <wgt id="703">1.30479e-11</wgt>
  <wgt id="704">1.13234e-11</wgt>
  <wgt id="705">7.51285e-12</wgt>
  <wgt id="706">3.08124e-12</wgt>
  <wgt id="707">6.18279e-12</wgt>
  <wgt id="708">7.33932e-12</wgt>
  <wgt id="709">6.25261e-12</wgt>
  <wgt id="710">-3.27415e-13</wgt>
  <wgt id="711">1.00021e-11</wgt>
  <wgt id="712">7.98735e-12</wgt>
  <wgt id="713">9.36734e-12</wgt>
  <wgt id="714">4.8499e-12</wgt>
  <wgt id="715">4.08696e-12</wgt>
  <wgt id="716">6.37213e-12</wgt>
  <wgt id="717">3.28563e-12</wgt>
  <wgt id="718">7.3038e-12</wgt>
  <wgt id="719">5.29709e-12</wgt>
  <wgt id="720">4.36528e-12</wgt>
  <wgt id="721">3.2928e-12</wgt>
  <wgt id="722">-1.78424e-12</wgt>
  <wgt id="723">1.27973e-11</wgt>
  <wgt id="724">9.60093e-12</wgt>
  <wgt id="725">9.6988e-12</wgt>
  <wgt id="726">8.523e-12</wgt>
  <wgt id="727">8.33024e-12</wgt>
  <wgt id="728">1.25929e-11</wgt>
  <wgt id="729">3.95015e-12</wgt>
  <wgt id="730">1.15774e-11</wgt>
  <wgt id="731">7.9759e-12</wgt>
  <wgt id="732">1.00692e-11</wgt>
  <wgt id="733">7.23258e-12</wgt>
  <wgt id="734">9.00581e-12</wgt>
  <wgt id="735">5.52519e-12</wgt>
  <wgt id="736">5.60369e-12</wgt>
  <wgt id="737">2.0336e-12</wgt>
  <wgt id="738">5.61068e-12</wgt>
  <wgt id="739">8.86625e-12</wgt>
  <wgt id="740">1.11581e-11</wgt>
  <wgt id="741">1.04844e-11</wgt>
  <wgt id="742">6.1368e-12</wgt>
  <wgt id="743">7.50903e-12</wgt>
  <wgt id="744">7.53755e-12</wgt>
  <wgt id="745">1.1248e-11</wgt>
  <wgt id="746">1.21227e-11</wgt>
  <wgt id="747">6.17334e-12</wgt>
  <wgt id="748">8.49317e-12</wgt>
  <wgt id="749">1.15537e-11</wgt>
  <wgt id="750">1.1173e-11</wgt>
  <wgt id="751">9.482e-12</wgt>
  <wgt id="752">5.92725e-12</wgt>
  <wgt id="753">6.17194e-12</wgt>
  <wgt id="754">7.62254e-12</wgt>
  <wgt id="755">5.51289e-12</wgt>
  <wgt id="756">5.9472e-12</wgt>
  <wgt id="757">6.71207e-12</wgt>
  <wgt id="758">9.05741e-12</wgt>
  <wgt id="759">8.44325e-12</wgt>
  <wgt id="760">4.94503e-12</wgt>
  <wgt id="761">1.17092e-11</wgt>
  <wgt id="762">9.54775e-12</wgt>
  <wgt id="763">1.3688e-11</wgt>
  <wgt id="764">1.08619e-11</wgt>
  <wgt id="765">1.00908e-11</wgt>
  <wgt id="766">1.11917e-11</wgt>
  <wgt id="767">1.05586e-11</wgt>
  <wgt id="768">6.91675e-12</wgt>
  <wgt id="769">9.14746e-12</wgt>
  <wgt id="770">-6.03686e-13</wgt>
  <wgt id="771">1.52174e-11</wgt>
  <wgt id="772">7.41035e-12</wgt>
  <wgt id="773">9.79132e-12</wgt>
  <wgt id="774">6.19455e-12</wgt>
  <wgt id="775">1.06125e-11</wgt>
  <wgt id="776">1.3012e-11</wgt>
  <wgt id="777">3.78796e-12</wgt>
  <wgt id="778">3.29555e-12</wgt>
  <wgt id="779">2.27173e-19</wgt>
  <wgt id="780">2.25838e-19</wgt>
  <wgt id="781">2.38913e-19</wgt>
  <wgt id="782">2.33176e-19</wgt>
  <wgt id="783">2.26619e-19</wgt>
  <wgt id="784">2.27969e-19</wgt>
  <wgt id="785">8.69005e-12</wgt>
  <wgt id="786">2.25494e-19</wgt>
  <wgt id="787">7.02383e-12</wgt>
  <wgt id="788">2.20571e-19</wgt>
  <wgt id="789">2.40013e-19</wgt>
  <wgt id="790">2.25746e-19</wgt>
  <wgt id="791">5.02544e-14</wgt>
  <wgt id="792">1.41017e-12</wgt>
  <wgt id="793">2.29026e-19</wgt>
  <wgt id="794">2.23589e-19</wgt>
  <wgt id="795">6.96737e-12</wgt>
  <wgt id="796">8.90558e-12</wgt>
  <wgt id="797">6.41447e-12</wgt>
  <wgt id="798">2.22704e-19</wgt>
  <wgt id="799">7.13755e-12</wgt>
  <wgt id="800">2.31085e-19</wgt>
  <wgt id="801">4.92546e-12</wgt>
  <wgt id="802">2.28601e-19</wgt>
  <wgt id="803">3.7098e-12</wgt>
  <wgt id="804">7.62992e-12</wgt>
  <wgt id="805">7.32051e-12</wgt>
  <wgt id="806">2.45249e-19</wgt>
  <wgt id="807">2.32275e-19</wgt>
  <wgt id="808">5.40605e-12</wgt>
  <wgt id="809">2.3546e-19</wgt>
  <wgt id="810">1.37404e-11</wgt>
  <wgt id="811">5.03153e-12</wgt>
  <wgt id="812">2.27357e-19</wgt>
  <wgt id="813">2.27292e-19</wgt>
  <wgt id="814">2.23289e-19</wgt>
  <wgt id="815">2.26662e-19</wgt>
  <wgt id="816">2.29957e-19</wgt>
  <wgt id="817">4.4946e-12</wgt>
  <wgt id="818">6.87984e-12</wgt>
  <wgt id="819">2.28813e-19</wgt>
  <wgt id="820">2.31461e-19</wgt>
  <wgt id="821">5.9865e-12</wgt>
  <wgt id="822">2.31184e-19</wgt>
  <wgt id="823">8.38483e-12</wgt>
  <wgt id="824">3.74085e-12</wgt>
  <wgt id="825">2.23866e-19</wgt>
  <wgt id="826">7.07987e-12</wgt>
  <wgt id="827">2.28462e-19</wgt>
  <wgt id="828">3.92719e-12</wgt>
  <wgt id="829">3.95646e-12</wgt>
  <wgt id="830">2.26355e-19</wgt>
  <wgt id="831">6.24457e-12</wgt>
  <wgt id="832">1.25735e-11</wgt>
  <wgt id="833">2.31325e-19</wgt>
  <wgt id="834">1.35801e-11</wgt>
  <wgt id="835">2.29395e-19</wgt>
  <wgt id="836">2.42376e-19</wgt>
  <wgt id="837">6.23283e-12</wgt>
  <wgt id="838">2.29484e-19</wgt>
  <wgt id="839">8.82339e-12</wgt>
  <wgt id="840">2.33022e-19</wgt>
  <wgt id="841">6.98672e-12</wgt>
  <wgt id="842">2.33785e-19</wgt>
  <wgt id="843">2.31374e-19</wgt>
  <wgt id="844">6.28577e-12</wgt>
  <wgt id="845">1.09583e-11</wgt>
  <wgt id="846">2.37829e-19</wgt>
  <wgt id="847">5.42454e-12</wgt>
  <wgt id="848">2.30136e-19</wgt>
  <wgt id="849">6.34908e-12</wgt>
  <wgt id="850">9.08992e-12</wgt>
  <wgt id="851">6.12543e-12</wgt>
  <wgt id="852">2.30846e-19</wgt>
  <wgt id="853">6.42497e-12</wgt>
  <wgt id="854">8.26589e-12</wgt>
  <wgt id="855">5.91583e-13</wgt>
  <wgt id="856">2.25478e-19</wgt>
  <wgt id="857">2.30396e-19</wgt>
  <wgt id="858">5.44555e-12</wgt>
  <wgt id="859">2.32394e-19</wgt>
  <wgt id="860">6.57764e-14</wgt>
  <wgt id="861">2.33353e-19</wgt>
  <wgt id="862">4.58291e-12</wgt>
  <wgt id="863">6.93294e-12</wgt>
  <wgt id="864">1.4118e-12</wgt>
  <wgt id="865">8.70301e-12</wgt>
  <wgt id="866">1.07464e-11</wgt>
  <wgt id="867">4.85949e-12</wgt>
  <wgt id="868">6.37119e-12</wgt>
  <wgt id="869">2.26541e-19</wgt>
  <wgt id="870">2.27756e-19</wgt>
  <wgt id="871">2.28645e-19</wgt>
  <wgt id="872">1.11951e-11</wgt>
  <wgt id="873">2.2997e-19</wgt>
  <wgt id="874">6.03359e-12</wgt>
  <wgt id="875">2.26698e-19</wgt>
  <wgt id="876">1.02192e-11</wgt>
  <wgt id="877">6.02637e-12</wgt>
  <wgt id="878">2.30325e-19</wgt>
  <wgt id="879">7.96929e-12</wgt>
  <wgt id="880">8.02855e-12</wgt>
  <wgt id="881">1.022e-11</wgt>
  <wgt id="882">6.82119e-12</wgt>
  <wgt id="883">9.16247e-12</wgt>
  <wgt id="884">7.88967e-12</wgt>
  <wgt id="885">1.00172e-11</wgt>
  <wgt id="886">7.46408e-12</wgt>
  <wgt id="887">1.00607e-11</wgt>
  <wgt id="888">8.80475e-12</wgt>
  <wgt id="889">8.85439e-12</wgt>
  <wgt id="890">6.08613e-12</wgt>
  <wgt id="891">9.38861e-12</wgt>
  <wgt id="892">1.21595e-11</wgt>
  <wgt id="893">1.00914e-11</wgt>
  <wgt id="894">1.04771e-11</wgt>
  <wgt id="895">6.2599e-12</wgt>
  <wgt id="896">1.38638e-11</wgt>
  <wgt id="897">1.16195e-11</wgt>
  <wgt id="898">4.75623e-12</wgt>
  <wgt id="899">3.41948e-12</wgt>
  <wgt id="900">5.24325e-12</wgt>
  <wgt id="901">3.20943e-12</wgt>
  <wgt id="902">7.02072e-12</wgt>
  <wgt id="903">3.2186e-12</wgt>
  <wgt id="904">9.17122e-12</wgt>
  <wgt id="905">7.30243e-12</wgt>
  <wgt id="906">1.30479e-11</wgt>
  <wgt id="907">1.13234e-11</wgt>
  <wgt id="908">7.51285e-12</wgt>
  <wgt id="909">3.08124e-12</wgt>
  <wgt id="910">6.18279e-12</wgt>
  <wgt id="911">7.33932e-12</wgt>
  <wgt id="912">6.25261e-12</wgt>
  <wgt id="913">-3.27415e-13</wgt>
  <wgt id="914">1.00021e-11</wgt>
  <wgt id="915">7.98735e-12</wgt>
  <wgt id="916">9.36734e-12</wgt>
  <wgt id="917">4.8499e-12</wgt>
  <wgt id="918">4.08696e-12</wgt>
  <wgt id="919">6.37213e-12</wgt>
  <wgt id="920">3.28563e-12</wgt>
  <wgt id="921">7.3038e-12</wgt>
  <wgt id="922">5.29709e-12</wgt>
  <wgt id="923">4.36528e-12</wgt>
  <wgt id="924">3.2928e-12</wgt>
  <wgt id="925">-1.78424e-12</wgt>
  <wgt id="926">1.27973e-11</wgt>
  <wgt id="927">9.60093e-12</wgt>
  <wgt id="928">9.6988e-12</wgt>
  <wgt id="929">8.523e-12</wgt>
  <wgt id="930">8.33024e-12</wgt>
  <wgt id="931">1.25929e-11</wgt>
  <wgt id="932">3.95015e-12</wgt>
  <wgt id="933">1.15774e-11</wgt>
  <wgt id="934">7.9759e-12</wgt>
  <wgt id="935">1.00692e-11</wgt>
  <wgt id="936">7.23258e-12</wgt>
  <wgt id="937">9.00581e-12</wgt>
  <wgt id="938">5.52519e-12</wgt>
  <wgt id="939">5.60369e-12</wgt>
  <wgt id="940">2.0336e-12</wgt>
  <wgt id="941">5.61068e-12</wgt>
  <wgt id="942">8.86625e-12</wgt>
  <wgt id="943">1.11581e-11</wgt>
  <wgt id="944">1.04844e-11</wgt>
  <wgt id="945">6.1368e-12</wgt>
  <wgt id="946">7.50903e-12</wgt>
  <wgt id="947">7.53755e-12</wgt>
  <wgt id="948">1.1248e-11</wgt>
  <wgt id="949">1.21227e-11</wgt>
  <wgt id="950">6.17334e-12</wgt>
  <wgt id="951">8.49317e-12</wgt>
  <wgt id="952">1.15537e-11</wgt>
  <wgt id="953">1.1173e-11</wgt>
  <wgt id="954">9.482e-12</wgt>
  <wgt id="955">5.92725e-12</wgt>
  <wgt id="956">6.17194e-12</wgt>
  <wgt id="957">7.62254e-12</wgt>
  <wgt id="958">5.51289e-12</wgt>
  <wgt id="959">5.9472e-12</wgt>
  <wgt id="960">6.71207e-12</wgt>
  <wgt id="961">9.05741e-12</wgt>
  <wgt id="962">8.44325e-12</wgt>
  <wgt id="963">4.94503e-12</wgt>
  <wgt id="964">1.17092e-11</wgt>
  <wgt id="965">9.54775e-12</wgt>
  <wgt id="966">1.3688e-11</wgt>
  <wgt id="967">1.08619e-11</wgt>
  <wgt id="968">1.00908e-11</wgt>
  <wgt id="969">1.11917e-11</wgt>
  <wgt id="970">1.05586e-11</wgt>
  <wgt id="971">6.91675e-12</wgt>
  <wgt id="972">9.14746e-12</wgt>
  <wgt id="973">-6.03686e-13</wgt>
  <wgt id="974">1.52174e-11</wgt>
  <wgt id="975">7.41035e-12</wgt>
  <wgt id="976">9.79132e-12</wgt>
  <wgt id="977">6.19455e-12</wgt>
  <wgt id="978">1.06125e-11</wgt>
  <wgt id="979">1.3012e-11</wgt>
  <wgt id="980">7.77401e-12</wgt>
  <wgt id="981">9.52111e-12</wgt>
  <wgt id="982">8.98784e-12</wgt>
</rwgt>
</event>
<event>
 5   1  0.5790000E-11  0.2249441E+04  0.7818608E-02  0.7730499E-01
       21   -1    0    0  502  501  0.00000000000E+00  0.00000000000E+00  0.46504353103E+03  0.46504353103E+03  0.00000000000E+00 0.  1.
       21   -1    0    0  501  502 -0.00000000000E+00 -0.00000000000E+00 -0.27201680261E+04  0.27201680261E+04  0.00000000000E+00 0. -1.
       39    2    1    2    0    0  0.00000000000E+00  0.00000000000E+00 -0.22551244950E+04  0.31852115571E+04  0.22494413029E+04 0.  0.
       25    1    3    3    0    0  0.29523070179E+03 -0.10754495773E+04 -0.10214227505E+04  0.15174591909E+04  0.12500000000E+03 0.  0.
       25    1    3    3    0    0 -0.29523070179E+03  0.10754495773E+04 -0.12337017445E+04  0.16677523662E+04  0.12500000000E+03 0.  0.
<mgrwt>
<rscale>  0 0.22494413E+04</rscale>
<asrwt>0</asrwt>
<pdfrwt beam="1">  1       21 0.71545157E-01 0.22494413E+04</pdfrwt>
<pdfrwt beam="2">  1       21 0.41848740E+00 0.22494413E+04</pdfrwt>
<totfact> 0.40556427E+00</totfact>
</mgrwt>
<rwgt>
  <wgt id="1">5.79e-12</wgt>
  <wgt id="2">4.93391e-12</wgt>
  <wgt id="3">6.88264e-12</wgt>
  <wgt id="4">5.79e-12</wgt>
  <wgt id="5">4.93391e-12</wgt>
  <wgt id="6">6.88264e-12</wgt>
  <wgt id="7">5.79e-12</wgt>
  <wgt id="8">4.93391e-12</wgt>
  <wgt id="9">6.88264e-12</wgt>
  <wgt id="10">6.21102e-12</wgt>
  <wgt id="11">6.21916e-12</wgt>
  <wgt id="12">6.18784e-12</wgt>
  <wgt id="13">6.21013e-12</wgt>
  <wgt id="14">6.20648e-12</wgt>
  <wgt id="15">6.2128e-12</wgt>
  <wgt id="16">6.17206e-12</wgt>
  <wgt id="17">6.26854e-12</wgt>
  <wgt id="18">6.21121e-12</wgt>
  <wgt id="19">6.24829e-12</wgt>
  <wgt id="20">6.2263e-12</wgt>
  <wgt id="21">6.13457e-12</wgt>
  <wgt id="22">6.14958e-12</wgt>
  <wgt id="23">6.0949e-12</wgt>
  <wgt id="24">6.1578e-12</wgt>
  <wgt id="25">6.20084e-12</wgt>
  <wgt id="26">6.22539e-12</wgt>
  <wgt id="27">6.19845e-12</wgt>
  <wgt id="28">6.17114e-12</wgt>
  <wgt id="29">6.20996e-12</wgt>
  <wgt id="30">6.14604e-12</wgt>
  <wgt id="31">6.23512e-12</wgt>
  <wgt id="32">6.13047e-12</wgt>
  <wgt id="33">6.2148e-12</wgt>
  <wgt id="34">6.14887e-12</wgt>
  <wgt id="35">6.13217e-12</wgt>
  <wgt id="36">6.24759e-12</wgt>
  <wgt id="37">6.1925e-12</wgt>
  <wgt id="38">6.17237e-12</wgt>
  <wgt id="39">6.36225e-12</wgt>
  <wgt id="40">6.23664e-12</wgt>
  <wgt id="41">6.20093e-12</wgt>
  <wgt id="42">6.21564e-12</wgt>
  <wgt id="43">6.22342e-12</wgt>
  <wgt id="44">6.26794e-12</wgt>
  <wgt id="45">6.22824e-12</wgt>
  <wgt id="46">6.1529e-12</wgt>
  <wgt id="47">6.34753e-12</wgt>
  <wgt id="48">6.30167e-12</wgt>
  <wgt id="49">6.1864e-12</wgt>
  <wgt id="50">6.11602e-12</wgt>
  <wgt id="51">6.14589e-12</wgt>
  <wgt id="52">6.21969e-12</wgt>
  <wgt id="53">6.40121e-12</wgt>
  <wgt id="54">6.27469e-12</wgt>
  <wgt id="55">6.17963e-12</wgt>
  <wgt id="56">6.05687e-12</wgt>
  <wgt id="57">6.08812e-12</wgt>
  <wgt id="58">6.20972e-12</wgt>
  <wgt id="59">6.25256e-12</wgt>
  <wgt id="60">6.08029e-12</wgt>
  <wgt id="61">6.23882e-12</wgt>
  <wgt id="62">6.27635e-12</wgt>
  <wgt id="63">6.19103e-12</wgt>
  <wgt id="64">6.19899e-12</wgt>
  <wgt id="65">6.15252e-12</wgt>
  <wgt id="66">6.28628e-12</wgt>
  <wgt id="67">6.31643e-12</wgt>
  <wgt id="68">6.20989e-12</wgt>
  <wgt id="69">6.20296e-12</wgt>
  <wgt id="70">6.12549e-12</wgt>
  <wgt id="71">6.28025e-12</wgt>
  <wgt id="72">6.27771e-12</wgt>
  <wgt id="73">6.15176e-12</wgt>
  <wgt id="74">6.27135e-12</wgt>
  <wgt id="75">6.08865e-12</wgt>
  <wgt id="76">6.25815e-12</wgt>
  <wgt id="77">6.18483e-12</wgt>
  <wgt id="78">6.20103e-12</wgt>
  <wgt id="79">6.22004e-12</wgt>
  <wgt id="80">6.1723e-12</wgt>
  <wgt id="81">6.19613e-12</wgt>
  <wgt id="82">6.21104e-12</wgt>
  <wgt id="83">6.14835e-12</wgt>
  <wgt id="84">6.15009e-12</wgt>
  <wgt id="85">6.14172e-12</wgt>
  <wgt id="86">6.30004e-12</wgt>
  <wgt id="87">6.09153e-12</wgt>
  <wgt id="88">6.24068e-12</wgt>
  <wgt id="89">6.23736e-12</wgt>
  <wgt id="90">6.27003e-12</wgt>
  <wgt id="91">6.2135e-12</wgt>
  <wgt id="92">6.24711e-12</wgt>
  <wgt id="93">6.22746e-12</wgt>
  <wgt id="94">6.16444e-12</wgt>
  <wgt id="95">6.2722e-12</wgt>
  <wgt id="96">6.2664e-12</wgt>
  <wgt id="97">6.1391e-12</wgt>
  <wgt id="98">6.21378e-12</wgt>
  <wgt id="99">6.18897e-12</wgt>
  <wgt id="100">6.23389e-12</wgt>
  <wgt id="101">6.17946e-12</wgt>
  <wgt id="102">6.19343e-12</wgt>
  <wgt id="103">6.26115e-12</wgt>
  <wgt id="104">6.20343e-12</wgt>
  <wgt id="105">6.26808e-12</wgt>
  <wgt id="106">6.16252e-12</wgt>
  <wgt id="107">6.29882e-12</wgt>
  <wgt id="108">6.18515e-12</wgt>
  <wgt id="109">6.20529e-12</wgt>
  <wgt id="110">6.21276e-12</wgt>
  <wgt id="111">6.10824e-12</wgt>
  <wgt id="112">6.35165e-12</wgt>
  <wgt id="113">9.82205e-12</wgt>
  <wgt id="114">7.80376e-12</wgt>
  <wgt id="115">7.64659e-12</wgt>
  <wgt id="116">1.03936e-11</wgt>
  <wgt id="117">6.8014e-12</wgt>
  <wgt id="118">6.82826e-12</wgt>
  <wgt id="119">6.78644e-12</wgt>
  <wgt id="120">6.80123e-12</wgt>
  <wgt id="121">6.80148e-12</wgt>
  <wgt id="122">6.79225e-12</wgt>
  <wgt id="123">6.81485e-12</wgt>
  <wgt id="124">6.79331e-12</wgt>
  <wgt id="125">6.80679e-12</wgt>
  <wgt id="126">6.80791e-12</wgt>
  <wgt id="127">6.79734e-12</wgt>
  <wgt id="128">6.82163e-12</wgt>
  <wgt id="129">6.78165e-12</wgt>
  <wgt id="130">6.827e-12</wgt>
  <wgt id="131">6.77479e-12</wgt>
  <wgt id="132">6.5976e-12</wgt>
  <wgt id="133">7.04606e-12</wgt>
  <wgt id="134">6.73053e-12</wgt>
  <wgt id="135">6.85714e-12</wgt>
  <wgt id="136">6.92911e-12</wgt>
  <wgt id="137">6.64893e-12</wgt>
  <wgt id="138">7.17431e-12</wgt>
  <wgt id="139">6.45559e-12</wgt>
  <wgt id="140">6.78641e-12</wgt>
  <wgt id="141">6.81131e-12</wgt>
  <wgt id="142">6.79727e-12</wgt>
  <wgt id="143">6.83405e-12</wgt>
  <wgt id="144">6.40477e-12</wgt>
  <wgt id="145">7.2081e-12</wgt>
  <wgt id="146">6.9376e-12</wgt>
  <wgt id="147">6.68772e-12</wgt>
  <wgt id="148">6.82863e-12</wgt>
  <wgt id="149">6.79952e-12</wgt>
  <wgt id="150">6.85602e-12</wgt>
  <wgt id="151">6.77569e-12</wgt>
  <wgt id="152">6.80091e-12</wgt>
  <wgt id="153">6.80158e-12</wgt>
  <wgt id="154">6.76452e-12</wgt>
  <wgt id="155">6.81675e-12</wgt>
  <wgt id="156">7.16606e-12</wgt>
  <wgt id="157">6.50083e-12</wgt>
  <wgt id="158">8.07498e-12</wgt>
  <wgt id="159">8.11027e-12</wgt>
  <wgt id="160">8.04618e-12</wgt>
  <wgt id="161">8.05416e-12</wgt>
  <wgt id="162">8.09823e-12</wgt>
  <wgt id="163">8.06554e-12</wgt>
  <wgt id="164">8.08898e-12</wgt>
  <wgt id="165">8.07772e-12</wgt>
  <wgt id="166">8.07297e-12</wgt>
  <wgt id="167">8.07003e-12</wgt>
  <wgt id="168">8.08225e-12</wgt>
  <wgt id="169">8.04361e-12</wgt>
  <wgt id="170">8.09439e-12</wgt>
  <wgt id="171">8.07293e-12</wgt>
  <wgt id="172">8.07802e-12</wgt>
  <wgt id="173">8.0432e-12</wgt>
  <wgt id="174">8.08641e-12</wgt>
  <wgt id="175">7.82833e-12</wgt>
  <wgt id="176">8.39972e-12</wgt>
  <wgt id="177">8.10126e-12</wgt>
  <wgt id="178">8.05188e-12</wgt>
  <wgt id="179">8.5868e-12</wgt>
  <wgt id="180">7.30969e-12</wgt>
  <wgt id="181">7.75941e-12</wgt>
  <wgt id="182">8.28833e-12</wgt>
  <wgt id="183">7.88369e-12</wgt>
  <wgt id="184">8.17028e-12</wgt>
  <wgt id="185">7.95875e-12</wgt>
  <wgt id="186">8.21457e-12</wgt>
  <wgt id="187">7.95678e-12</wgt>
  <wgt id="188">8.28005e-12</wgt>
  <wgt id="189">7.99814e-12</wgt>
  <wgt id="190">8.10628e-12</wgt>
  <wgt id="191">8.11302e-12</wgt>
  <wgt id="192">8.05189e-12</wgt>
  <wgt id="193">8.23664e-12</wgt>
  <wgt id="194">7.99239e-12</wgt>
  <wgt id="195">7.65898e-12</wgt>
  <wgt id="196">8.72856e-12</wgt>
  <wgt id="197">8.11997e-12</wgt>
  <wgt id="198">8.06387e-12</wgt>
  <wgt id="199">8.07498e-12</wgt>
  <wgt id="200">8.16449e-12</wgt>
  <wgt id="201">8.13689e-12</wgt>
  <wgt id="202">8.10839e-12</wgt>
  <wgt id="203">8.07239e-12</wgt>
  <wgt id="204">8.05173e-12</wgt>
  <wgt id="205">8.03541e-12</wgt>
  <wgt id="206">7.99184e-12</wgt>
  <wgt id="207">8.04061e-12</wgt>
  <wgt id="208">7.94239e-12</wgt>
  <wgt id="209">8.01412e-12</wgt>
  <wgt id="210">7.97474e-12</wgt>
  <wgt id="211">7.98902e-12</wgt>
  <wgt id="212">7.99341e-12</wgt>
  <wgt id="213">7.99056e-12</wgt>
  <wgt id="214">7.99192e-12</wgt>
  <wgt id="215">7.99744e-12</wgt>
  <wgt id="216">7.98733e-12</wgt>
  <wgt id="217">8.00368e-12</wgt>
  <wgt id="218">7.98161e-12</wgt>
  <wgt id="219">7.97904e-12</wgt>
  <wgt id="220">7.99932e-12</wgt>
  <wgt id="221">8.00171e-12</wgt>
  <wgt id="222">7.96288e-12</wgt>
  <wgt id="223">7.48136e-12</wgt>
  <wgt id="224">8.46241e-12</wgt>
  <wgt id="225">7.8894e-12</wgt>
  <wgt id="226">8.12242e-12</wgt>
  <wgt id="227">7.91208e-12</wgt>
  <wgt id="228">8.02641e-12</wgt>
  <wgt id="229">7.86823e-12</wgt>
  <wgt id="230">8.05251e-12</wgt>
  <wgt id="231">8.32637e-12</wgt>
  <wgt id="232">7.71979e-12</wgt>
  <wgt id="233">7.92249e-12</wgt>
  <wgt id="234">8.10986e-12</wgt>
  <wgt id="235">7.43557e-12</wgt>
  <wgt id="236">8.43525e-12</wgt>
  <wgt id="237">7.68717e-12</wgt>
  <wgt id="238">8.09288e-12</wgt>
  <wgt id="239">7.87258e-12</wgt>
  <wgt id="240">8.20529e-12</wgt>
  <wgt id="241">7.86961e-12</wgt>
  <wgt id="242">8.13157e-12</wgt>
  <wgt id="243">8.19314e-12</wgt>
  <wgt id="244">7.94279e-12</wgt>
  <wgt id="245">7.99201e-12</wgt>
  <wgt id="246">8.01642e-12</wgt>
  <wgt id="247">7.99184e-12</wgt>
  <wgt id="248">8.09721e-12</wgt>
  <wgt id="249">8.06384e-12</wgt>
  <wgt id="250">8.02249e-12</wgt>
  <wgt id="251">7.97565e-12</wgt>
  <wgt id="252">7.94779e-12</wgt>
  <wgt id="253">7.93046e-12</wgt>
  <wgt id="254">7.56557e-12</wgt>
  <wgt id="255">7.57148e-12</wgt>
  <wgt id="256">7.55865e-12</wgt>
  <wgt id="257">7.5713e-12</wgt>
  <wgt id="258">7.56062e-12</wgt>
  <wgt id="259">7.61662e-12</wgt>
  <wgt id="260">7.51629e-12</wgt>
  <wgt id="261">7.57821e-12</wgt>
  <wgt id="262">7.55013e-12</wgt>
  <wgt id="263">7.55789e-12</wgt>
  <wgt id="264">7.57429e-12</wgt>
  <wgt id="265">7.55598e-12</wgt>
  <wgt id="266">7.58376e-12</wgt>
  <wgt id="267">7.56805e-12</wgt>
  <wgt id="268">7.56244e-12</wgt>
  <wgt id="269">7.58706e-12</wgt>
  <wgt id="270">7.55057e-12</wgt>
  <wgt id="271">7.53443e-12</wgt>
  <wgt id="272">7.60029e-12</wgt>
  <wgt id="273">7.54871e-12</wgt>
  <wgt id="274">7.57792e-12</wgt>
  <wgt id="275">7.50037e-12</wgt>
  <wgt id="276">7.63287e-12</wgt>
  <wgt id="277">7.52551e-12</wgt>
  <wgt id="278">7.60194e-12</wgt>
  <wgt id="279">7.42515e-12</wgt>
  <wgt id="280">7.74289e-12</wgt>
  <wgt id="281">7.5175e-12</wgt>
  <wgt id="282">7.60016e-12</wgt>
  <wgt id="283">7.26939e-12</wgt>
  <wgt id="284">7.9423e-12</wgt>
  <wgt id="285">7.07949e-12</wgt>
  <wgt id="286">7.98847e-12</wgt>
  <wgt id="287">7.59647e-12</wgt>
  <wgt id="288">7.52612e-12</wgt>
  <wgt id="289">7.63803e-12</wgt>
  <wgt id="290">7.41242e-12</wgt>
  <wgt id="291">7.53023e-12</wgt>
  <wgt id="292">7.55309e-12</wgt>
  <wgt id="293">7.48621e-12</wgt>
  <wgt id="294">7.64478e-12</wgt>
  <wgt id="295">7.37276e-12</wgt>
  <wgt id="296">7.80174e-12</wgt>
  <wgt id="297">7.51819e-12</wgt>
  <wgt id="298">7.61827e-12</wgt>
  <wgt id="299">7.53694e-12</wgt>
  <wgt id="300">7.64106e-12</wgt>
  <wgt id="301">7.33394e-12</wgt>
  <wgt id="302">8.07e-12</wgt>
  <wgt id="303">7.4399e-12</wgt>
  <wgt id="304">7.63472e-12</wgt>
  <wgt id="305">7.36882e-12</wgt>
  <wgt id="306">7.37507e-12</wgt>
  <wgt id="307">7.36242e-12</wgt>
  <wgt id="308">7.37565e-12</wgt>
  <wgt id="309">7.36498e-12</wgt>
  <wgt id="310">7.41955e-12</wgt>
  <wgt id="311">7.32237e-12</wgt>
  <wgt id="312">7.38225e-12</wgt>
  <wgt id="313">7.35488e-12</wgt>
  <wgt id="314">7.36051e-12</wgt>
  <wgt id="315">7.37765e-12</wgt>
  <wgt id="316">7.35925e-12</wgt>
  <wgt id="317">7.39048e-12</wgt>
  <wgt id="318">7.37466e-12</wgt>
  <wgt id="319">7.35961e-12</wgt>
  <wgt id="320">7.39265e-12</wgt>
  <wgt id="321">7.35627e-12</wgt>
  <wgt id="322">7.33877e-12</wgt>
  <wgt id="323">7.40508e-12</wgt>
  <wgt id="324">7.36037e-12</wgt>
  <wgt id="325">7.37677e-12</wgt>
  <wgt id="326">7.31494e-12</wgt>
  <wgt id="327">7.43912e-12</wgt>
  <wgt id="328">7.33781e-12</wgt>
  <wgt id="329">7.38559e-12</wgt>
  <wgt id="330">7.57617e-12</wgt>
  <wgt id="331">7.17343e-12</wgt>
  <wgt id="332">7.329e-12</wgt>
  <wgt id="333">7.39398e-12</wgt>
  <wgt id="334">7.15383e-12</wgt>
  <wgt id="335">7.64335e-12</wgt>
  <wgt id="336">7.03775e-12</wgt>
  <wgt id="337">7.79034e-12</wgt>
  <wgt id="338">7.47388e-12</wgt>
  <wgt id="339">7.27427e-12</wgt>
  <wgt id="340">7.43026e-12</wgt>
  <wgt id="341">7.22476e-12</wgt>
  <wgt id="342">7.34726e-12</wgt>
  <wgt id="343">7.33645e-12</wgt>
  <wgt id="344">7.30327e-12</wgt>
  <wgt id="345">7.44595e-12</wgt>
  <wgt id="346">7.17881e-12</wgt>
  <wgt id="347">7.58559e-12</wgt>
  <wgt id="348">7.32155e-12</wgt>
  <wgt id="349">7.4193e-12</wgt>
  <wgt id="350">7.33524e-12</wgt>
  <wgt id="351">7.45601e-12</wgt>
  <wgt id="352">7.15014e-12</wgt>
  <wgt id="353">7.82564e-12</wgt>
  <wgt id="354">7.20353e-12</wgt>
  <wgt id="355">7.46505e-12</wgt>
  <wgt id="356">7.56557e-12</wgt>
  <wgt id="357">7.34073e-12</wgt>
  <wgt id="358">7.36882e-12</wgt>
  <wgt id="359">7.52216e-12</wgt>
  <wgt id="360">7.81754e-12</wgt>
  <wgt id="361">7.62687e-12</wgt>
  <wgt id="362">7.81503e-12</wgt>
  <wgt id="363">7.79207e-12</wgt>
  <wgt id="364">7.73573e-12</wgt>
  <wgt id="365">7.70028e-12</wgt>
  <wgt id="366">7.66753e-12</wgt>
  <wgt id="367">7.61075e-12</wgt>
  <wgt id="368">7.5678e-12</wgt>
  <wgt id="369">7.52182e-12</wgt>
  <wgt id="370">7.62687e-12</wgt>
  <wgt id="371">7.65461e-12</wgt>
  <wgt id="372">7.63856e-12</wgt>
  <wgt id="373">7.61811e-12</wgt>
  <wgt id="374">7.64389e-12</wgt>
  <wgt id="375">9.75235e-12</wgt>
  <wgt id="376">9.75242e-12</wgt>
  <wgt id="377">9.75278e-12</wgt>
  <wgt id="378">9.79312e-12</wgt>
  <wgt id="379">9.71247e-12</wgt>
  <wgt id="380">9.78282e-12</wgt>
  <wgt id="381">9.74029e-12</wgt>
  <wgt id="382">9.78912e-12</wgt>
  <wgt id="383">9.71689e-12</wgt>
  <wgt id="384">9.75918e-12</wgt>
  <wgt id="385">9.74635e-12</wgt>
  <wgt id="386">9.77021e-12</wgt>
  <wgt id="387">9.74518e-12</wgt>
  <wgt id="388">9.74586e-12</wgt>
  <wgt id="389">9.76078e-12</wgt>
  <wgt id="390">9.76767e-12</wgt>
  <wgt id="391">9.73684e-12</wgt>
  <wgt id="392">9.65119e-12</wgt>
  <wgt id="393">9.81002e-12</wgt>
  <wgt id="394">9.75091e-12</wgt>
  <wgt id="395">9.75512e-12</wgt>
  <wgt id="396">9.77966e-12</wgt>
  <wgt id="397">9.7336e-12</wgt>
  <wgt id="398">9.76151e-12</wgt>
  <wgt id="399">9.74401e-12</wgt>
  <wgt id="400">9.73621e-12</wgt>
  <wgt id="401">9.7893e-12</wgt>
  <wgt id="402">9.63332e-12</wgt>
  <wgt id="403">9.85648e-12</wgt>
  <wgt id="404">1.01369e-11</wgt>
  <wgt id="405">8.85689e-12</wgt>
  <wgt id="406">9.47424e-12</wgt>
  <wgt id="407">1.03848e-11</wgt>
  <wgt id="408">9.89812e-12</wgt>
  <wgt id="409">9.4904e-12</wgt>
  <wgt id="410">9.30869e-12</wgt>
  <wgt id="411">9.9734e-12</wgt>
  <wgt id="412">9.72283e-12</wgt>
  <wgt id="413">9.79366e-12</wgt>
  <wgt id="414">9.57808e-12</wgt>
  <wgt id="415">9.88806e-12</wgt>
  <wgt id="416">1.02237e-11</wgt>
  <wgt id="417">9.11693e-12</wgt>
  <wgt id="418">9.78255e-12</wgt>
  <wgt id="419">9.59117e-12</wgt>
  <wgt id="420">1.01546e-11</wgt>
  <wgt id="421">9.46845e-12</wgt>
  <wgt id="422">9.61483e-12</wgt>
  <wgt id="423">9.81356e-12</wgt>
  <wgt id="424">1.02162e-11</wgt>
  <wgt id="425">9.42636e-12</wgt>
  <wgt id="426">9.75235e-12</wgt>
  <wgt id="427">9.37627e-12</wgt>
  <wgt id="428">1.0531e-11</wgt>
  <wgt id="429">9.96417e-12</wgt>
  <wgt id="430">1.04033e-11</wgt>
  <wgt id="431">1.03092e-11</wgt>
  <wgt id="432">1.02305e-11</wgt>
  <wgt id="433">1.01523e-11</wgt>
  <wgt id="434">1.0047e-11</wgt>
  <wgt id="435">9.86156e-12</wgt>
  <wgt id="436">9.7713e-12</wgt>
  <wgt id="437">9.67895e-12</wgt>
  <wgt id="438">9.96417e-12</wgt>
  <wgt id="439">9.99112e-12</wgt>
  <wgt id="440">9.97231e-12</wgt>
  <wgt id="441">9.95996e-12</wgt>
  <wgt id="442">9.95742e-12</wgt>
  <wgt id="443">7.86222e-12</wgt>
  <wgt id="444">7.99489e-12</wgt>
  <wgt id="445">8.07496e-12</wgt>
  <wgt id="446">7.81267e-12</wgt>
  <wgt id="447">7.85513e-12</wgt>
  <wgt id="448">7.70256e-12</wgt>
  <wgt id="449">8.12186e-12</wgt>
  <wgt id="450">8.07577e-12</wgt>
  <wgt id="451">7.83687e-12</wgt>
  <wgt id="452">8.02151e-12</wgt>
  <wgt id="453">8.05894e-12</wgt>
  <wgt id="454">7.32963e-12</wgt>
  <wgt id="455">7.99929e-12</wgt>
  <wgt id="456">8.15035e-12</wgt>
  <wgt id="457">7.8837e-12</wgt>
  <wgt id="458">8.04998e-12</wgt>
  <wgt id="459">7.93577e-12</wgt>
  <wgt id="460">8.16969e-12</wgt>
  <wgt id="461">7.61474e-12</wgt>
  <wgt id="462">7.79965e-12</wgt>
  <wgt id="463">7.69597e-12</wgt>
  <wgt id="464">7.83506e-12</wgt>
  <wgt id="465">7.94008e-12</wgt>
  <wgt id="466">7.50288e-12</wgt>
  <wgt id="467">7.82461e-12</wgt>
  <wgt id="468">7.89059e-12</wgt>
  <wgt id="469">7.82784e-12</wgt>
  <wgt id="470">7.67344e-12</wgt>
  <wgt id="471">7.71087e-12</wgt>
  <wgt id="472">7.94113e-12</wgt>
  <wgt id="473">7.56116e-12</wgt>
  <wgt id="474">5.79e-12</wgt>
  <wgt id="475">5.89537e-12</wgt>
  <wgt id="476">5.97772e-12</wgt>
  <wgt id="477">6.26781e-12</wgt>
  <wgt id="478">6.18546e-12</wgt>
  <wgt id="479">5.02857e-12</wgt>
  <wgt id="480">6.36373e-12</wgt>
  <wgt id="481">5.9402e-12</wgt>
  <wgt id="482">6.27211e-12</wgt>
  <wgt id="483">6.5453e-12</wgt>
  <wgt id="484">6.27048e-12</wgt>
  <wgt id="485">5.10939e-12</wgt>
  <wgt id="486">6.12892e-12</wgt>
  <wgt id="487">5.38839e-12</wgt>
  <wgt id="488">5.51114e-12</wgt>
  <wgt id="489">4.5296e-12</wgt>
  <wgt id="490">5.95964e-12</wgt>
  <wgt id="491">5.65951e-12</wgt>
  <wgt id="492">5.71548e-12</wgt>
  <wgt id="493">4.79891e-12</wgt>
  <wgt id="494">4.75403e-12</wgt>
  <wgt id="495">6.15313e-12</wgt>
  <wgt id="496">5.00672e-12</wgt>
  <wgt id="497">5.26262e-12</wgt>
  <wgt id="498">5.89701e-12</wgt>
  <wgt id="499">6.00675e-12</wgt>
  <wgt id="500">6.226e-12</wgt>
  <wgt id="501">6.26227e-12</wgt>
  <wgt id="502">6.72891e-12</wgt>
  <wgt id="503">5.56013e-12</wgt>
  <wgt id="504">6.05751e-12</wgt>
  <wgt id="505">6.40372e-12</wgt>
  <wgt id="506">4.72563e-12</wgt>
  <wgt id="507">5.25055e-12</wgt>
  <wgt id="508">6.18811e-12</wgt>
  <wgt id="509">5.92309e-12</wgt>
  <wgt id="510">5.55335e-12</wgt>
  <wgt id="511">5.40533e-12</wgt>
  <wgt id="512">6.465e-12</wgt>
  <wgt id="513">6.48354e-12</wgt>
  <wgt id="514">6.67446e-12</wgt>
  <wgt id="515">6.61822e-12</wgt>
  <wgt id="516">6.82917e-12</wgt>
  <wgt id="517">5.91979e-12</wgt>
  <wgt id="518">6.39165e-12</wgt>
  <wgt id="519">5.66172e-12</wgt>
  <wgt id="520">5.42338e-12</wgt>
  <wgt id="521">5.25526e-12</wgt>
  <wgt id="522">5.74528e-12</wgt>
  <wgt id="523">5.58054e-12</wgt>
  <wgt id="524">6.12423e-12</wgt>
  <wgt id="525">5.56061e-12</wgt>
  <wgt id="526">6.48708e-12</wgt>
  <wgt id="527">5.72783e-12</wgt>
  <wgt id="528">5.3927e-12</wgt>
  <wgt id="529">4.75811e-12</wgt>
  <wgt id="530">6.39851e-12</wgt>
  <wgt id="531">5.38987e-12</wgt>
  <wgt id="532">6.25445e-12</wgt>
  <wgt id="533">6.15827e-12</wgt>
  <wgt id="534">5.09661e-12</wgt>
  <wgt id="535">6.24018e-12</wgt>
  <wgt id="536">6.34923e-12</wgt>
  <wgt id="537">5.03762e-12</wgt>
  <wgt id="538">5.65849e-12</wgt>
  <wgt id="539">5.6635e-12</wgt>
  <wgt id="540">5.598e-12</wgt>
  <wgt id="541">5.75275e-12</wgt>
  <wgt id="542">5.22617e-12</wgt>
  <wgt id="543">5.17943e-12</wgt>
  <wgt id="544">5.63188e-12</wgt>
  <wgt id="545">5.14185e-12</wgt>
  <wgt id="546">5.04916e-12</wgt>
  <wgt id="547">5.31429e-12</wgt>
  <wgt id="548">6.02074e-12</wgt>
  <wgt id="549">5.67213e-12</wgt>
  <wgt id="550">4.8643e-12</wgt>
  <wgt id="551">5.44429e-12</wgt>
  <wgt id="552">5.91736e-12</wgt>
  <wgt id="553">4.92114e-12</wgt>
  <wgt id="554">5.84245e-12</wgt>
  <wgt id="555">5.76321e-12</wgt>
  <wgt id="556">5.95964e-12</wgt>
  <wgt id="557">5.56776e-12</wgt>
  <wgt id="558">5.77147e-12</wgt>
  <wgt id="559">6.16326e-12</wgt>
  <wgt id="560">6.32748e-12</wgt>
  <wgt id="561">6.54022e-12</wgt>
  <wgt id="562">6.11062e-12</wgt>
  <wgt id="563">6.20062e-12</wgt>
  <wgt id="564">6.4931e-12</wgt>
  <wgt id="565">6.74833e-12</wgt>
  <wgt id="566">4.89493e-12</wgt>
  <wgt id="567">6.07991e-12</wgt>
  <wgt id="568">5.06354e-12</wgt>
  <wgt id="569">5.95913e-12</wgt>
  <wgt id="570">6.33506e-12</wgt>
  <wgt id="571">6.60734e-12</wgt>
  <wgt id="572">5.20054e-12</wgt>
  <wgt id="573">5.64839e-12</wgt>
  <wgt id="574">5.82321e-12</wgt>
  <wgt id="575">6.25317e-12</wgt>
  <wgt id="576">7.1996e-12</wgt>
  <wgt id="577">6.18896e-12</wgt>
  <wgt id="578">5.64198e-12</wgt>
  <wgt id="579">6.5211e-12</wgt>
  <wgt id="580">6.37452e-12</wgt>
  <wgt id="581">6.95713e-12</wgt>
  <wgt id="582">6.87583e-12</wgt>
  <wgt id="583">6.7921e-12</wgt>
  <wgt id="584">6.31429e-12</wgt>
  <wgt id="585">5.50793e-12</wgt>
  <wgt id="586">5.74072e-12</wgt>
  <wgt id="587">6.42771e-12</wgt>
  <wgt id="588">7.8846e-12</wgt>
  <wgt id="589">7.47015e-12</wgt>
  <wgt id="590">6.50604e-12</wgt>
  <wgt id="591">6.53011e-12</wgt>
  <wgt id="592">6.20117e-12</wgt>
  <wgt id="593">5.9731e-12</wgt>
  <wgt id="594">5.77132e-12</wgt>
  <wgt id="595">7.2558e-12</wgt>
  <wgt id="596">7.04466e-12</wgt>
  <wgt id="597">6.36271e-12</wgt>
  <wgt id="598">6.96254e-12</wgt>
  <wgt id="599">7.09213e-12</wgt>
  <wgt id="600">7.64906e-12</wgt>
  <wgt id="601">5.89823e-12</wgt>
  <wgt id="602">5.58778e-12</wgt>
  <wgt id="603">5.32401e-12</wgt>
  <wgt id="604">6.8653e-12</wgt>
  <wgt id="605">5.96217e-12</wgt>
  <wgt id="606">5.75085e-12</wgt>
  <wgt id="607">6.93645e-12</wgt>
  <wgt id="608">6.4202e-12</wgt>
  <wgt id="609">5.9462e-12</wgt>
  <wgt id="610">5.64347e-12</wgt>
  <wgt id="611">5.60112e-12</wgt>
  <wgt id="612">6.07446e-12</wgt>
  <wgt id="613">5.64813e-12</wgt>
  <wgt id="614">6.42451e-12</wgt>
  <wgt id="615">6.89326e-12</wgt>
  <wgt id="616">5.12246e-12</wgt>
  <wgt id="617">6.61304e-12</wgt>
  <wgt id="618">7.04933e-12</wgt>
  <wgt id="619">6.11997e-12</wgt>
  <wgt id="620">6.32362e-12</wgt>
  <wgt id="621">6.22048e-12</wgt>
  <wgt id="622">6.42771e-12</wgt>
  <wgt id="623">6.0822e-12</wgt>
  <wgt id="624">6.04055e-12</wgt>
  <wgt id="625">5.79977e-12</wgt>
  <wgt id="626">4.17975e-12</wgt>
  <wgt id="627">5.24475e-12</wgt>
  <wgt id="628">6.2488e-12</wgt>
  <wgt id="629">7.81029e-12</wgt>
  <wgt id="630">6.38138e-12</wgt>
  <wgt id="631">6.94954e-12</wgt>
  <wgt id="632">5.58962e-12</wgt>
  <wgt id="633">6.19936e-12</wgt>
  <wgt id="634">5.62372e-12</wgt>
  <wgt id="635">5.83305e-12</wgt>
  <wgt id="636">5.91303e-12</wgt>
  <wgt id="637">6.56652e-12</wgt>
  <wgt id="638">5.75975e-12</wgt>
  <wgt id="639">5.5574e-12</wgt>
  <wgt id="640">5.64849e-12</wgt>
  <wgt id="641">6.88645e-12</wgt>
  <wgt id="642">5.00911e-12</wgt>
  <wgt id="643">5.92363e-12</wgt>
  <wgt id="644">5.81661e-12</wgt>
  <wgt id="645">6.43858e-12</wgt>
  <wgt id="646">4.91703e-12</wgt>
  <wgt id="647">6.92888e-12</wgt>
  <wgt id="648">7.06584e-12</wgt>
  <wgt id="649">6.53234e-12</wgt>
  <wgt id="650">6.36097e-12</wgt>
  <wgt id="651">6.54619e-12</wgt>
  <wgt id="652">5.75708e-12</wgt>
  <wgt id="653">5.9057e-12</wgt>
  <wgt id="654">6.14188e-12</wgt>
  <wgt id="655">5.40612e-12</wgt>
  <wgt id="656">6.55688e-12</wgt>
  <wgt id="657">7.1628e-12</wgt>
  <wgt id="658">5.91919e-12</wgt>
  <wgt id="659">6.1491e-12</wgt>
  <wgt id="660">5.46367e-12</wgt>
  <wgt id="661">5.88699e-12</wgt>
  <wgt id="662">6.28719e-12</wgt>
  <wgt id="663">6.66104e-12</wgt>
  <wgt id="664">6.86855e-12</wgt>
  <wgt id="665">5.90364e-12</wgt>
  <wgt id="666">5.96959e-12</wgt>
  <wgt id="667">6.58254e-12</wgt>
  <wgt id="668">6.05148e-12</wgt>
  <wgt id="669">5.88462e-12</wgt>
  <wgt id="670">6.83461e-12</wgt>
  <wgt id="671">6.49416e-12</wgt>
  <wgt id="672">6.8448e-12</wgt>
  <wgt id="673">7.18559e-12</wgt>
  <wgt id="674">5.90348e-12</wgt>
  <wgt id="675">5.67172e-12</wgt>
  <wgt id="676">8.38363e-12</wgt>
  <wgt id="677">8.29522e-12</wgt>
  <wgt id="678">9.85797e-12</wgt>
  <wgt id="679">9.80199e-12</wgt>
  <wgt id="680">8.65591e-12</wgt>
  <wgt id="681">7.88107e-12</wgt>
  <wgt id="682">9.20177e-12</wgt>
  <wgt id="683">7.09809e-12</wgt>
  <wgt id="684">9.4923e-12</wgt>
  <wgt id="685">8.80491e-12</wgt>
  <wgt id="686">9.12841e-12</wgt>
  <wgt id="687">8.1684e-12</wgt>
  <wgt id="688">8.27079e-12</wgt>
  <wgt id="689">9.5731e-12</wgt>
  <wgt id="690">8.94943e-12</wgt>
  <wgt id="691">8.80067e-12</wgt>
  <wgt id="692">7.83069e-12</wgt>
  <wgt id="693">1.35498e-11</wgt>
  <wgt id="694">9.99498e-12</wgt>
  <wgt id="695">7.00571e-12</wgt>
  <wgt id="696">7.21152e-12</wgt>
  <wgt id="697">6.46314e-12</wgt>
  <wgt id="698">5.71107e-12</wgt>
  <wgt id="699">6.78871e-12</wgt>
  <wgt id="700">6.976e-12</wgt>
  <wgt id="701">8.48758e-12</wgt>
  <wgt id="702">7.47754e-12</wgt>
  <wgt id="703">1.23329e-11</wgt>
  <wgt id="704">9.91657e-12</wgt>
  <wgt id="705">9.37278e-12</wgt>
  <wgt id="706">6.90292e-12</wgt>
  <wgt id="707">7.40302e-12</wgt>
  <wgt id="708">7.29902e-12</wgt>
  <wgt id="709">7.59927e-12</wgt>
  <wgt id="710">4.74419e-12</wgt>
  <wgt id="711">9.77491e-12</wgt>
  <wgt id="712">7.63112e-12</wgt>
  <wgt id="713">9.13028e-12</wgt>
  <wgt id="714">6.5392e-12</wgt>
  <wgt id="715">7.30062e-12</wgt>
  <wgt id="716">7.76046e-12</wgt>
  <wgt id="717">6.04162e-12</wgt>
  <wgt id="718">8.54921e-12</wgt>
  <wgt id="719">7.76674e-12</wgt>
  <wgt id="720">9.04129e-12</wgt>
  <wgt id="721">6.73632e-12</wgt>
  <wgt id="722">4.61236e-12</wgt>
  <wgt id="723">1.06896e-11</wgt>
  <wgt id="724">9.60604e-12</wgt>
  <wgt id="725">9.08395e-12</wgt>
  <wgt id="726">8.24341e-12</wgt>
  <wgt id="727">8.73402e-12</wgt>
  <wgt id="728">9.38995e-12</wgt>
  <wgt id="729">6.06085e-12</wgt>
  <wgt id="730">1.00839e-11</wgt>
  <wgt id="731">8.35921e-12</wgt>
  <wgt id="732">1.03559e-11</wgt>
  <wgt id="733">7.28801e-12</wgt>
  <wgt id="734">8.88267e-12</wgt>
  <wgt id="735">7.63314e-12</wgt>
  <wgt id="736">7.15611e-12</wgt>
  <wgt id="737">5.47879e-12</wgt>
  <wgt id="738">7.64761e-12</wgt>
  <wgt id="739">8.38779e-12</wgt>
  <wgt id="740">1.13393e-11</wgt>
  <wgt id="741">9.99451e-12</wgt>
  <wgt id="742">6.71691e-12</wgt>
  <wgt id="743">7.3802e-12</wgt>
  <wgt id="744">7.77984e-12</wgt>
  <wgt id="745">1.01671e-11</wgt>
  <wgt id="746">1.0582e-11</wgt>
  <wgt id="747">6.33232e-12</wgt>
  <wgt id="748">7.75828e-12</wgt>
  <wgt id="749">9.33469e-12</wgt>
  <wgt id="750">9.56498e-12</wgt>
  <wgt id="751">8.70582e-12</wgt>
  <wgt id="752">7.10427e-12</wgt>
  <wgt id="753">6.90336e-12</wgt>
  <wgt id="754">8.76889e-12</wgt>
  <wgt id="755">7.68038e-12</wgt>
  <wgt id="756">7.69068e-12</wgt>
  <wgt id="757">6.60806e-12</wgt>
  <wgt id="758">8.14297e-12</wgt>
  <wgt id="759">9.03731e-12</wgt>
  <wgt id="760">7.24759e-12</wgt>
  <wgt id="761">1.02895e-11</wgt>
  <wgt id="762">1.04279e-11</wgt>
  <wgt id="763">1.00528e-11</wgt>
  <wgt id="764">9.83489e-12</wgt>
  <wgt id="765">8.84922e-12</wgt>
  <wgt id="766">9.11529e-12</wgt>
  <wgt id="767">8.94428e-12</wgt>
  <wgt id="768">7.09771e-12</wgt>
  <wgt id="769">8.66734e-12</wgt>
  <wgt id="770">6.24938e-12</wgt>
  <wgt id="771">1.17906e-11</wgt>
  <wgt id="772">7.78833e-12</wgt>
  <wgt id="773">8.99222e-12</wgt>
  <wgt id="774">6.09337e-12</wgt>
  <wgt id="775">9.13829e-12</wgt>
  <wgt id="776">1.17829e-11</wgt>
  <wgt id="777">5.74803e-12</wgt>
  <wgt id="778">4.04931e-12</wgt>
  <wgt id="779">1.91694e-13</wgt>
  <wgt id="780">5.09464e-20</wgt>
  <wgt id="781">3.75181e-12</wgt>
  <wgt id="782">4.80686e-12</wgt>
  <wgt id="783">5.15124e-20</wgt>
  <wgt id="784">5.16622e-20</wgt>
  <wgt id="785">8.08624e-12</wgt>
  <wgt id="786">5.06116e-20</wgt>
  <wgt id="787">7.00477e-12</wgt>
  <wgt id="788">4.94555e-20</wgt>
  <wgt id="789">5.38453e-20</wgt>
  <wgt id="790">5.06084e-20</wgt>
  <wgt id="791">4.44855e-12</wgt>
  <wgt id="792">5.86649e-12</wgt>
  <wgt id="793">1.61879e-12</wgt>
  <wgt id="794">5.06572e-20</wgt>
  <wgt id="795">7.70031e-12</wgt>
  <wgt id="796">7.97934e-12</wgt>
  <wgt id="797">6.41731e-12</wgt>
  <wgt id="798">1.09977e-12</wgt>
  <wgt id="799">7.55493e-12</wgt>
  <wgt id="800">1.08501e-12</wgt>
  <wgt id="801">6.13282e-12</wgt>
  <wgt id="802">5.16808e-20</wgt>
  <wgt id="803">7.64815e-12</wgt>
  <wgt id="804">8.01726e-12</wgt>
  <wgt id="805">7.62167e-12</wgt>
  <wgt id="806">5.50362e-12</wgt>
  <wgt id="807">3.95572e-12</wgt>
  <wgt id="808">4.74893e-12</wgt>
  <wgt id="809">2.47454e-12</wgt>
  <wgt id="810">9.78772e-12</wgt>
  <wgt id="811">4.86124e-12</wgt>
  <wgt id="812">5.14792e-20</wgt>
  <wgt id="813">5.07456e-20</wgt>
  <wgt id="814">1.07071e-12</wgt>
  <wgt id="815">5.11922e-20</wgt>
  <wgt id="816">5.18478e-20</wgt>
  <wgt id="817">4.86273e-12</wgt>
  <wgt id="818">7.18106e-12</wgt>
  <wgt id="819">1.98679e-15</wgt>
  <wgt id="820">2.73485e-12</wgt>
  <wgt id="821">6.18698e-12</wgt>
  <wgt id="822">1.39368e-12</wgt>
  <wgt id="823">7.35275e-12</wgt>
  <wgt id="824">6.93565e-12</wgt>
  <wgt id="825">5.05841e-20</wgt>
  <wgt id="826">7.84593e-12</wgt>
  <wgt id="827">5.08524e-20</wgt>
  <wgt id="828">6.00134e-12</wgt>
  <wgt id="829">4.49816e-12</wgt>
  <wgt id="830">5.07129e-20</wgt>
  <wgt id="831">6.44493e-12</wgt>
  <wgt id="832">1.0594e-11</wgt>
  <wgt id="833">1.82843e-12</wgt>
  <wgt id="834">1.08087e-11</wgt>
  <wgt id="835">5.48992e-14</wgt>
  <wgt id="836">1.06042e-12</wgt>
  <wgt id="837">6.10466e-12</wgt>
  <wgt id="838">8.76757e-13</wgt>
  <wgt id="839">7.11824e-12</wgt>
  <wgt id="840">2.87019e-12</wgt>
  <wgt id="841">7.32986e-12</wgt>
  <wgt id="842">4.17956e-12</wgt>
  <wgt id="843">3.78733e-12</wgt>
  <wgt id="844">5.99545e-12</wgt>
  <wgt id="845">1.09761e-11</wgt>
  <wgt id="846">1.49979e-12</wgt>
  <wgt id="847">5.33357e-12</wgt>
  <wgt id="848">5.2227e-20</wgt>
  <wgt id="849">6.02654e-12</wgt>
  <wgt id="850">9.75655e-12</wgt>
  <wgt id="851">6.31777e-12</wgt>
  <wgt id="852">5.14443e-20</wgt>
  <wgt id="853">6.59991e-12</wgt>
  <wgt id="854">8.65897e-12</wgt>
  <wgt id="855">5.87126e-12</wgt>
  <wgt id="856">5.05794e-20</wgt>
  <wgt id="857">1.46121e-12</wgt>
  <wgt id="858">4.95288e-12</wgt>
  <wgt id="859">3.64848e-12</wgt>
  <wgt id="860">5.00192e-12</wgt>
  <wgt id="861">1.3763e-12</wgt>
  <wgt id="862">4.95148e-12</wgt>
  <wgt id="863">6.30053e-12</wgt>
  <wgt id="864">4.03498e-12</wgt>
  <wgt id="865">9.71017e-12</wgt>
  <wgt id="866">1.01578e-11</wgt>
  <wgt id="867">4.15857e-12</wgt>
  <wgt id="868">5.69442e-12</wgt>
  <wgt id="869">5.09817e-20</wgt>
  <wgt id="870">7.97602e-13</wgt>
  <wgt id="871">2.2233e-12</wgt>
  <wgt id="872">9.6921e-12</wgt>
  <wgt id="873">1.79189e-12</wgt>
  <wgt id="874">5.81464e-12</wgt>
  <wgt id="875">5.72484e-13</wgt>
  <wgt id="876">8.68343e-12</wgt>
  <wgt id="877">5.82051e-12</wgt>
  <wgt id="878">1.32058e-12</wgt>
  <wgt id="879">8.38363e-12</wgt>
  <wgt id="880">8.29522e-12</wgt>
  <wgt id="881">9.85797e-12</wgt>
  <wgt id="882">9.80199e-12</wgt>
  <wgt id="883">8.65591e-12</wgt>
  <wgt id="884">7.88107e-12</wgt>
  <wgt id="885">9.20177e-12</wgt>
  <wgt id="886">7.09809e-12</wgt>
  <wgt id="887">9.4923e-12</wgt>
  <wgt id="888">8.80491e-12</wgt>
  <wgt id="889">9.12841e-12</wgt>
  <wgt id="890">8.1684e-12</wgt>
  <wgt id="891">8.27079e-12</wgt>
  <wgt id="892">9.5731e-12</wgt>
  <wgt id="893">8.94943e-12</wgt>
  <wgt id="894">8.80067e-12</wgt>
  <wgt id="895">7.83069e-12</wgt>
  <wgt id="896">1.35498e-11</wgt>
  <wgt id="897">9.99498e-12</wgt>
  <wgt id="898">7.00571e-12</wgt>
  <wgt id="899">7.21152e-12</wgt>
  <wgt id="900">6.46314e-12</wgt>
  <wgt id="901">5.71107e-12</wgt>
  <wgt id="902">6.78871e-12</wgt>
  <wgt id="903">6.976e-12</wgt>
  <wgt id="904">8.48758e-12</wgt>
  <wgt id="905">7.47754e-12</wgt>
  <wgt id="906">1.23329e-11</wgt>
  <wgt id="907">9.91657e-12</wgt>
  <wgt id="908">9.37278e-12</wgt>
  <wgt id="909">6.90292e-12</wgt>
  <wgt id="910">7.40302e-12</wgt>
  <wgt id="911">7.29902e-12</wgt>
  <wgt id="912">7.59927e-12</wgt>
  <wgt id="913">4.74419e-12</wgt>
  <wgt id="914">9.77491e-12</wgt>
  <wgt id="915">7.63112e-12</wgt>
  <wgt id="916">9.13028e-12</wgt>
  <wgt id="917">6.5392e-12</wgt>
  <wgt id="918">7.30062e-12</wgt>
  <wgt id="919">7.76046e-12</wgt>
  <wgt id="920">6.04162e-12</wgt>
  <wgt id="921">8.54921e-12</wgt>
  <wgt id="922">7.76674e-12</wgt>
  <wgt id="923">9.04129e-12</wgt>
  <wgt id="924">6.73632e-12</wgt>
  <wgt id="925">4.61236e-12</wgt>
  <wgt id="926">1.06896e-11</wgt>
  <wgt id="927">9.60604e-12</wgt>
  <wgt id="928">9.08395e-12</wgt>
  <wgt id="929">8.24341e-12</wgt>
  <wgt id="930">8.73402e-12</wgt>
  <wgt id="931">9.38995e-12</wgt>
  <wgt id="932">6.06085e-12</wgt>
  <wgt id="933">1.00839e-11</wgt>
  <wgt id="934">8.35921e-12</wgt>
  <wgt id="935">1.03559e-11</wgt>
  <wgt id="936">7.28801e-12</wgt>
  <wgt id="937">8.88267e-12</wgt>
  <wgt id="938">7.63314e-12</wgt>
  <wgt id="939">7.15611e-12</wgt>
  <wgt id="940">5.47879e-12</wgt>
  <wgt id="941">7.64761e-12</wgt>
  <wgt id="942">8.38779e-12</wgt>
  <wgt id="943">1.13393e-11</wgt>
  <wgt id="944">9.99451e-12</wgt>
  <wgt id="945">6.71691e-12</wgt>
  <wgt id="946">7.3802e-12</wgt>
  <wgt id="947">7.77984e-12</wgt>
  <wgt id="948">1.01671e-11</wgt>
  <wgt id="949">1.0582e-11</wgt>
  <wgt id="950">6.33232e-12</wgt>
  <wgt id="951">7.75828e-12</wgt>
  <wgt id="952">9.33469e-12</wgt>
  <wgt id="953">9.56498e-12</wgt>
  <wgt id="954">8.70582e-12</wgt>
  <wgt id="955">7.10427e-12</wgt>
  <wgt id="956">6.90336e-12</wgt>
  <wgt id="957">8.76889e-12</wgt>
  <wgt id="958">7.68038e-12</wgt>
  <wgt id="959">7.69068e-12</wgt>
  <wgt id="960">6.60806e-12</wgt>
  <wgt id="961">8.14297e-12</wgt>
  <wgt id="962">9.03731e-12</wgt>
  <wgt id="963">7.24759e-12</wgt>
  <wgt id="964">1.02895e-11</wgt>
  <wgt id="965">1.04279e-11</wgt>
  <wgt id="966">1.00528e-11</wgt>
  <wgt id="967">9.83489e-12</wgt>
  <wgt id="968">8.84922e-12</wgt>
  <wgt id="969">9.11529e-12</wgt>
  <wgt id="970">8.94428e-12</wgt>
  <wgt id="971">7.09771e-12</wgt>
  <wgt id="972">8.66734e-12</wgt>
  <wgt id="973">6.24938e-12</wgt>
  <wgt id="974">1.17906e-11</wgt>
  <wgt id="975">7.78833e-12</wgt>
  <wgt id="976">8.99222e-12</wgt>
  <wgt id="977">6.09337e-12</wgt>
  <wgt id="978">9.13829e-12</wgt>
  <wgt id="979">1.17829e-11</wgt>
  <wgt id="980">8.28339e-12</wgt>
  <wgt id="981">8.95465e-12</wgt>
  <wgt id="982">8.34201e-12</wgt>
</rwgt>
</event>
<event>
 5   1  0.5790000E-11  0.2283951E+04  0.7818608E-02  0.7717968E-01
       21   -1    0    0  502  501  0.00000000000E+00  0.00000000000E+00  0.15648420429E+04  0.15648420429E+04  0.00000000000E+00 0. -1.
       21   -1    0    0  501  502 -0.00000000000E+00 -0.00000000000E+00 -0.83337975556E+03  0.83337975556E+03  0.00000000000E+00 0.  1.
       39    2    1    2    0    0  0.00000000000E+00  0.00000000000E+00  0.73146228733E+03  0.23982217984E+04  0.22839506818E+04 0.  0.
       25    1    3    3    0    0  0.49093698045E+03 -0.90467353802E+03  0.86824517719E+03  0.13523786514E+04  0.12500000000E+03 0.  0.
       25    1    3    3    0    0 -0.49093698045E+03  0.90467353802E+03 -0.13678288985E+03  0.10458431470E+04  0.12500000000E+03 0.  0.
<mgrwt>
<rscale>  0 0.22839507E+04</rscale>
<asrwt>0</asrwt>
<pdfrwt beam="1">  1       21 0.24074493E+00 0.22839507E+04</pdfrwt>
<pdfrwt beam="2">  1       21 0.12821227E+00 0.22839507E+04</pdfrwt>
<totfact> 0.12600505E+01</totfact>
</mgrwt>
<rwgt>
  <wgt id="1">5.79e-12</wgt>
  <wgt id="2">5.0382e-12</wgt>
  <wgt id="3">6.72349e-12</wgt>
  <wgt id="4">5.79e-12</wgt>
  <wgt id="5">5.0382e-12</wgt>
  <wgt id="6">6.72349e-12</wgt>
  <wgt id="7">5.79e-12</wgt>
  <wgt id="8">5.0382e-12</wgt>
  <wgt id="9">6.72349e-12</wgt>
  <wgt id="10">6.0075e-12</wgt>
  <wgt id="11">6.00323e-12</wgt>
  <wgt id="12">5.99708e-12</wgt>
  <wgt id="13">5.98846e-12</wgt>
  <wgt id="14">6.02935e-12</wgt>
  <wgt id="15">6.01748e-12</wgt>
  <wgt id="16">5.99762e-12</wgt>
  <wgt id="17">6.02379e-12</wgt>
  <wgt id="18">5.99713e-12</wgt>
  <wgt id="19">6.02138e-12</wgt>
  <wgt id="20">5.993e-12</wgt>
  <wgt id="21">5.967e-12</wgt>
  <wgt id="22">5.97894e-12</wgt>
  <wgt id="23">5.94571e-12</wgt>
  <wgt id="24">5.97555e-12</wgt>
  <wgt id="25">5.99104e-12</wgt>
  <wgt id="26">6.02838e-12</wgt>
  <wgt id="27">6.00461e-12</wgt>
  <wgt id="28">5.97764e-12</wgt>
  <wgt id="29">6.01182e-12</wgt>
  <wgt id="30">5.98264e-12</wgt>
  <wgt id="31">6.02889e-12</wgt>
  <wgt id="32">5.99052e-12</wgt>
  <wgt id="33">6.02039e-12</wgt>
  <wgt id="34">5.98317e-12</wgt>
  <wgt id="35">5.99567e-12</wgt>
  <wgt id="36">6.02779e-12</wgt>
  <wgt id="37">5.99132e-12</wgt>
  <wgt id="38">5.98963e-12</wgt>
  <wgt id="39">6.07961e-12</wgt>
  <wgt id="40">6.01589e-12</wgt>
  <wgt id="41">6.00488e-12</wgt>
  <wgt id="42">6.01844e-12</wgt>
  <wgt id="43">6.00719e-12</wgt>
  <wgt id="44">5.99969e-12</wgt>
  <wgt id="45">6.01942e-12</wgt>
  <wgt id="46">6.00905e-12</wgt>
  <wgt id="47">6.00215e-12</wgt>
  <wgt id="48">6.00987e-12</wgt>
  <wgt id="49">6.00202e-12</wgt>
  <wgt id="50">6.01808e-12</wgt>
  <wgt id="51">6.01649e-12</wgt>
  <wgt id="52">6.01086e-12</wgt>
  <wgt id="53">5.98077e-12</wgt>
  <wgt id="54">6.00286e-12</wgt>
  <wgt id="55">6.00703e-12</wgt>
  <wgt id="56">6.02892e-12</wgt>
  <wgt id="57">6.02012e-12</wgt>
  <wgt id="58">5.97838e-12</wgt>
  <wgt id="59">5.99215e-12</wgt>
  <wgt id="60">6.00919e-12</wgt>
  <wgt id="61">5.97938e-12</wgt>
  <wgt id="62">5.99291e-12</wgt>
  <wgt id="63">6.00324e-12</wgt>
  <wgt id="64">6.01054e-12</wgt>
  <wgt id="65">6.01488e-12</wgt>
  <wgt id="66">6.00033e-12</wgt>
  <wgt id="67">5.98299e-12</wgt>
  <wgt id="68">6.00406e-12</wgt>
  <wgt id="69">6.00819e-12</wgt>
  <wgt id="70">6.00756e-12</wgt>
  <wgt id="71">6.00479e-12</wgt>
  <wgt id="72">5.99283e-12</wgt>
  <wgt id="73">6.0148e-12</wgt>
  <wgt id="74">6.01051e-12</wgt>
  <wgt id="75">6.00124e-12</wgt>
  <wgt id="76">6.02335e-12</wgt>
  <wgt id="77">6.00487e-12</wgt>
  <wgt id="78">6.00613e-12</wgt>
  <wgt id="79">6.02251e-12</wgt>
  <wgt id="80">5.98252e-12</wgt>
  <wgt id="81">6.00399e-12</wgt>
  <wgt id="82">6.00791e-12</wgt>
  <wgt id="83">5.98436e-12</wgt>
  <wgt id="84">5.99959e-12</wgt>
  <wgt id="85">5.99318e-12</wgt>
  <wgt id="86">6.02613e-12</wgt>
  <wgt id="87">5.97421e-12</wgt>
  <wgt id="88">6.0139e-12</wgt>
  <wgt id="89">6.01241e-12</wgt>
  <wgt id="90">6.02172e-12</wgt>
  <wgt id="91">6.01395e-12</wgt>
  <wgt id="92">6.01974e-12</wgt>
  <wgt id="93">6.0116e-12</wgt>
  <wgt id="94">6.0017e-12</wgt>
  <wgt id="95">6.01854e-12</wgt>
  <wgt id="96">6.01252e-12</wgt>
  <wgt id="97">5.99496e-12</wgt>
  <wgt id="98">6.01018e-12</wgt>
  <wgt id="99">5.99639e-12</wgt>
  <wgt id="100">6.01526e-12</wgt>
  <wgt id="101">6.00922e-12</wgt>
  <wgt id="102">6.00336e-12</wgt>
  <wgt id="103">6.01638e-12</wgt>
  <wgt id="104">6.00496e-12</wgt>
  <wgt id="105">6.01668e-12</wgt>
  <wgt id="106">5.99775e-12</wgt>
  <wgt id="107">6.02639e-12</wgt>
  <wgt id="108">6.00031e-12</wgt>
  <wgt id="109">6.00881e-12</wgt>
  <wgt id="110">6.00782e-12</wgt>
  <wgt id="111">6.0587e-12</wgt>
  <wgt id="112">6.02248e-12</wgt>
  <wgt id="113">8.15921e-12</wgt>
  <wgt id="114">8.26653e-12</wgt>
  <wgt id="115">8.14126e-12</wgt>
  <wgt id="116">1.12933e-11</wgt>
  <wgt id="117">6.6644e-12</wgt>
  <wgt id="118">6.68745e-12</wgt>
  <wgt id="119">6.65104e-12</wgt>
  <wgt id="120">6.66499e-12</wgt>
  <wgt id="121">6.66406e-12</wgt>
  <wgt id="122">6.65263e-12</wgt>
  <wgt id="123">6.68027e-12</wgt>
  <wgt id="124">6.65485e-12</wgt>
  <wgt id="125">6.6703e-12</wgt>
  <wgt id="126">6.67568e-12</wgt>
  <wgt id="127">6.65674e-12</wgt>
  <wgt id="128">6.68513e-12</wgt>
  <wgt id="129">6.64373e-12</wgt>
  <wgt id="130">6.70184e-12</wgt>
  <wgt id="131">6.62588e-12</wgt>
  <wgt id="132">6.4902e-12</wgt>
  <wgt id="133">6.87046e-12</wgt>
  <wgt id="134">6.59329e-12</wgt>
  <wgt id="135">6.71992e-12</wgt>
  <wgt id="136">6.75164e-12</wgt>
  <wgt id="137">6.55873e-12</wgt>
  <wgt id="138">6.9274e-12</wgt>
  <wgt id="139">6.41076e-12</wgt>
  <wgt id="140">6.6222e-12</wgt>
  <wgt id="141">6.69717e-12</wgt>
  <wgt id="142">6.66474e-12</wgt>
  <wgt id="143">6.67576e-12</wgt>
  <wgt id="144">6.46596e-12</wgt>
  <wgt id="145">6.84977e-12</wgt>
  <wgt id="146">6.72719e-12</wgt>
  <wgt id="147">6.61424e-12</wgt>
  <wgt id="148">6.68545e-12</wgt>
  <wgt id="149">6.66285e-12</wgt>
  <wgt id="150">6.72138e-12</wgt>
  <wgt id="151">6.63772e-12</wgt>
  <wgt id="152">6.66718e-12</wgt>
  <wgt id="153">6.66331e-12</wgt>
  <wgt id="154">6.71176e-12</wgt>
  <wgt id="155">6.60544e-12</wgt>
  <wgt id="156">6.80835e-12</wgt>
  <wgt id="157">6.51668e-12</wgt>
  <wgt id="158">8.01446e-12</wgt>
  <wgt id="159">8.04796e-12</wgt>
  <wgt id="160">7.98742e-12</wgt>
  <wgt id="161">7.99459e-12</wgt>
  <wgt id="162">8.0364e-12</wgt>
  <wgt id="163">8.00543e-12</wgt>
  <wgt id="164">8.02691e-12</wgt>
  <wgt id="165">8.01731e-12</wgt>
  <wgt id="166">8.01175e-12</wgt>
  <wgt id="167">8.00856e-12</wgt>
  <wgt id="168">8.02255e-12</wgt>
  <wgt id="169">7.98006e-12</wgt>
  <wgt id="170">8.03558e-12</wgt>
  <wgt id="171">8.00586e-12</wgt>
  <wgt id="172">8.0256e-12</wgt>
  <wgt id="173">8.01133e-12</wgt>
  <wgt id="174">8.01521e-12</wgt>
  <wgt id="175">7.78975e-12</wgt>
  <wgt id="176">8.30665e-12</wgt>
  <wgt id="177">8.05575e-12</wgt>
  <wgt id="178">7.97644e-12</wgt>
  <wgt id="179">8.35809e-12</wgt>
  <wgt id="180">7.47337e-12</wgt>
  <wgt id="181">7.77792e-12</wgt>
  <wgt id="182">8.17063e-12</wgt>
  <wgt id="183">7.87016e-12</wgt>
  <wgt id="184">8.08565e-12</wgt>
  <wgt id="185">7.94537e-12</wgt>
  <wgt id="186">8.09726e-12</wgt>
  <wgt id="187">7.93938e-12</wgt>
  <wgt id="188">8.14848e-12</wgt>
  <wgt id="189">7.96105e-12</wgt>
  <wgt id="190">8.0359e-12</wgt>
  <wgt id="191">8.03693e-12</wgt>
  <wgt id="192">8.00047e-12</wgt>
  <wgt id="193">8.12998e-12</wgt>
  <wgt id="194">7.95688e-12</wgt>
  <wgt id="195">7.80764e-12</wgt>
  <wgt id="196">8.37773e-12</wgt>
  <wgt id="197">8.05457e-12</wgt>
  <wgt id="198">8.00476e-12</wgt>
  <wgt id="199">8.01446e-12</wgt>
  <wgt id="200">8.08387e-12</wgt>
  <wgt id="201">8.05874e-12</wgt>
  <wgt id="202">8.03468e-12</wgt>
  <wgt id="203">7.99806e-12</wgt>
  <wgt id="204">7.98071e-12</wgt>
  <wgt id="205">7.96623e-12</wgt>
  <wgt id="206">7.79398e-12</wgt>
  <wgt id="207">7.83977e-12</wgt>
  <wgt id="208">7.74911e-12</wgt>
  <wgt id="209">7.8175e-12</wgt>
  <wgt id="210">7.77729e-12</wgt>
  <wgt id="211">7.79158e-12</wgt>
  <wgt id="212">7.79608e-12</wgt>
  <wgt id="213">7.79341e-12</wgt>
  <wgt id="214">7.79505e-12</wgt>
  <wgt id="215">7.79972e-12</wgt>
  <wgt id="216">7.79013e-12</wgt>
  <wgt id="217">7.81523e-12</wgt>
  <wgt id="218">7.77779e-12</wgt>
  <wgt id="219">7.78532e-12</wgt>
  <wgt id="220">7.79957e-12</wgt>
  <wgt id="221">7.79197e-12</wgt>
  <wgt id="222">7.79882e-12</wgt>
  <wgt id="223">7.38179e-12</wgt>
  <wgt id="224">8.17004e-12</wgt>
  <wgt id="225">7.7015e-12</wgt>
  <wgt id="226">7.91092e-12</wgt>
  <wgt id="227">7.72121e-12</wgt>
  <wgt id="228">7.82618e-12</wgt>
  <wgt id="229">7.68675e-12</wgt>
  <wgt id="230">7.84752e-12</wgt>
  <wgt id="231">8.02103e-12</wgt>
  <wgt id="232">7.60754e-12</wgt>
  <wgt id="233">7.75292e-12</wgt>
  <wgt id="234">7.86005e-12</wgt>
  <wgt id="235">7.61299e-12</wgt>
  <wgt id="236">7.95718e-12</wgt>
  <wgt id="237">7.67581e-12</wgt>
  <wgt id="238">7.83425e-12</wgt>
  <wgt id="239">7.74376e-12</wgt>
  <wgt id="240">7.88537e-12</wgt>
  <wgt id="241">7.7135e-12</wgt>
  <wgt id="242">7.89088e-12</wgt>
  <wgt id="243">7.89204e-12</wgt>
  <wgt id="244">7.8293e-12</wgt>
  <wgt id="245">7.78888e-12</wgt>
  <wgt id="246">7.84934e-12</wgt>
  <wgt id="247">7.79398e-12</wgt>
  <wgt id="248">7.86372e-12</wgt>
  <wgt id="249">7.83786e-12</wgt>
  <wgt id="250">7.81295e-12</wgt>
  <wgt id="251">7.7765e-12</wgt>
  <wgt id="252">7.75909e-12</wgt>
  <wgt id="253">7.7466e-12</wgt>
  <wgt id="254">7.61021e-12</wgt>
  <wgt id="255">7.61737e-12</wgt>
  <wgt id="256">7.60246e-12</wgt>
  <wgt id="257">7.61598e-12</wgt>
  <wgt id="258">7.60597e-12</wgt>
  <wgt id="259">7.66088e-12</wgt>
  <wgt id="260">7.56118e-12</wgt>
  <wgt id="261">7.62059e-12</wgt>
  <wgt id="262">7.5978e-12</wgt>
  <wgt id="263">7.60639e-12</wgt>
  <wgt id="264">7.61443e-12</wgt>
  <wgt id="265">7.60152e-12</wgt>
  <wgt id="266">7.6277e-12</wgt>
  <wgt id="267">7.61258e-12</wgt>
  <wgt id="268">7.60679e-12</wgt>
  <wgt id="269">7.63386e-12</wgt>
  <wgt id="270">7.59411e-12</wgt>
  <wgt id="271">7.59599e-12</wgt>
  <wgt id="272">7.62617e-12</wgt>
  <wgt id="273">7.58763e-12</wgt>
  <wgt id="274">7.62738e-12</wgt>
  <wgt id="275">7.57688e-12</wgt>
  <wgt id="276">7.64472e-12</wgt>
  <wgt id="277">7.56694e-12</wgt>
  <wgt id="278">7.65e-12</wgt>
  <wgt id="279">7.46761e-12</wgt>
  <wgt id="280">7.78933e-12</wgt>
  <wgt id="281">7.57734e-12</wgt>
  <wgt id="282">7.61273e-12</wgt>
  <wgt id="283">7.39153e-12</wgt>
  <wgt id="284">7.87955e-12</wgt>
  <wgt id="285">7.24712e-12</wgt>
  <wgt id="286">7.91098e-12</wgt>
  <wgt id="287">7.63425e-12</wgt>
  <wgt id="288">7.57947e-12</wgt>
  <wgt id="289">7.66387e-12</wgt>
  <wgt id="290">7.48624e-12</wgt>
  <wgt id="291">7.58833e-12</wgt>
  <wgt id="292">7.61449e-12</wgt>
  <wgt id="293">7.55152e-12</wgt>
  <wgt id="294">7.66862e-12</wgt>
  <wgt id="295">7.46618e-12</wgt>
  <wgt id="296">7.78602e-12</wgt>
  <wgt id="297">7.60766e-12</wgt>
  <wgt id="298">7.63902e-12</wgt>
  <wgt id="299">7.5861e-12</wgt>
  <wgt id="300">7.67403e-12</wgt>
  <wgt id="301">7.50301e-12</wgt>
  <wgt id="302">7.87944e-12</wgt>
  <wgt id="303">7.55083e-12</wgt>
  <wgt id="304">7.64415e-12</wgt>
  <wgt id="305">7.62172e-12</wgt>
  <wgt id="306">7.62927e-12</wgt>
  <wgt id="307">7.61331e-12</wgt>
  <wgt id="308">7.62824e-12</wgt>
  <wgt id="309">7.61741e-12</wgt>
  <wgt id="310">7.6743e-12</wgt>
  <wgt id="311">7.57286e-12</wgt>
  <wgt id="312">7.62993e-12</wgt>
  <wgt id="313">7.61306e-12</wgt>
  <wgt id="314">7.61782e-12</wgt>
  <wgt id="315">7.62508e-12</wgt>
  <wgt id="316">7.61319e-12</wgt>
  <wgt id="317">7.63989e-12</wgt>
  <wgt id="318">7.62702e-12</wgt>
  <wgt id="319">7.61213e-12</wgt>
  <wgt id="320">7.6466e-12</wgt>
  <wgt id="321">7.60767e-12</wgt>
  <wgt id="322">7.60365e-12</wgt>
  <wgt id="323">7.64231e-12</wgt>
  <wgt id="324">7.60301e-12</wgt>
  <wgt id="325">7.63771e-12</wgt>
  <wgt id="326">7.59469e-12</wgt>
  <wgt id="327">7.65618e-12</wgt>
  <wgt id="328">7.58227e-12</wgt>
  <wgt id="329">7.6438e-12</wgt>
  <wgt id="330">7.84159e-12</wgt>
  <wgt id="331">7.41181e-12</wgt>
  <wgt id="332">7.59418e-12</wgt>
  <wgt id="333">7.62257e-12</wgt>
  <wgt id="334">7.45067e-12</wgt>
  <wgt id="335">7.83408e-12</wgt>
  <wgt id="336">7.35865e-12</wgt>
  <wgt id="337">7.94199e-12</wgt>
  <wgt id="338">7.70625e-12</wgt>
  <wgt id="339">7.54321e-12</wgt>
  <wgt id="340">7.67181e-12</wgt>
  <wgt id="341">7.49262e-12</wgt>
  <wgt id="342">7.60633e-12</wgt>
  <wgt id="343">7.61353e-12</wgt>
  <wgt id="344">7.56859e-12</wgt>
  <wgt id="345">7.6831e-12</wgt>
  <wgt id="346">7.47214e-12</wgt>
  <wgt id="347">7.79348e-12</wgt>
  <wgt id="348">7.62222e-12</wgt>
  <wgt id="349">7.64575e-12</wgt>
  <wgt id="350">7.59129e-12</wgt>
  <wgt id="351">7.69851e-12</wgt>
  <wgt id="352">7.50513e-12</wgt>
  <wgt id="353">7.89983e-12</wgt>
  <wgt id="354">7.53224e-12</wgt>
  <wgt id="355">7.6763e-12</wgt>
  <wgt id="356">7.61021e-12</wgt>
  <wgt id="357">7.64954e-12</wgt>
  <wgt id="358">7.62172e-12</wgt>
  <wgt id="359">7.63326e-12</wgt>
  <wgt id="360">7.67117e-12</wgt>
  <wgt id="361">7.63602e-12</wgt>
  <wgt id="362">7.7689e-12</wgt>
  <wgt id="363">7.75064e-12</wgt>
  <wgt id="364">7.72275e-12</wgt>
  <wgt id="365">7.69689e-12</wgt>
  <wgt id="366">7.66811e-12</wgt>
  <wgt id="367">7.60981e-12</wgt>
  <wgt id="368">7.57673e-12</wgt>
  <wgt id="369">7.54109e-12</wgt>
  <wgt id="370">7.63602e-12</wgt>
  <wgt id="371">7.66971e-12</wgt>
  <wgt id="372">7.65122e-12</wgt>
  <wgt id="373">7.62366e-12</wgt>
  <wgt id="374">7.62308e-12</wgt>
  <wgt id="375">8.22285e-12</wgt>
  <wgt id="376">8.22376e-12</wgt>
  <wgt id="377">8.22152e-12</wgt>
  <wgt id="378">8.25292e-12</wgt>
  <wgt id="379">8.19338e-12</wgt>
  <wgt id="380">8.24534e-12</wgt>
  <wgt id="381">8.21422e-12</wgt>
  <wgt id="382">8.26418e-12</wgt>
  <wgt id="383">8.1821e-12</wgt>
  <wgt id="384">8.22816e-12</wgt>
  <wgt id="385">8.21751e-12</wgt>
  <wgt id="386">8.25415e-12</wgt>
  <wgt id="387">8.20966e-12</wgt>
  <wgt id="388">8.21521e-12</wgt>
  <wgt id="389">8.23221e-12</wgt>
  <wgt id="390">8.24447e-12</wgt>
  <wgt id="391">8.2004e-12</wgt>
  <wgt id="392">8.15996e-12</wgt>
  <wgt id="393">8.25908e-12</wgt>
  <wgt id="394">8.23352e-12</wgt>
  <wgt id="395">8.20871e-12</wgt>
  <wgt id="396">8.22941e-12</wgt>
  <wgt id="397">8.2185e-12</wgt>
  <wgt id="398">8.19271e-12</wgt>
  <wgt id="399">8.25246e-12</wgt>
  <wgt id="400">8.21007e-12</wgt>
  <wgt id="401">8.25241e-12</wgt>
  <wgt id="402">8.15624e-12</wgt>
  <wgt id="403">8.25417e-12</wgt>
  <wgt id="404">8.41595e-12</wgt>
  <wgt id="405">7.75766e-12</wgt>
  <wgt id="406">8.08397e-12</wgt>
  <wgt id="407">8.52575e-12</wgt>
  <wgt id="408">8.29435e-12</wgt>
  <wgt id="409">8.08651e-12</wgt>
  <wgt id="410">7.99516e-12</wgt>
  <wgt id="411">8.32906e-12</wgt>
  <wgt id="412">8.20791e-12</wgt>
  <wgt id="413">8.24514e-12</wgt>
  <wgt id="414">8.13191e-12</wgt>
  <wgt id="415">8.29368e-12</wgt>
  <wgt id="416">8.44409e-12</wgt>
  <wgt id="417">7.91726e-12</wgt>
  <wgt id="418">8.23442e-12</wgt>
  <wgt id="419">8.15962e-12</wgt>
  <wgt id="420">8.3505e-12</wgt>
  <wgt id="421">8.14808e-12</wgt>
  <wgt id="422">8.20677e-12</wgt>
  <wgt id="423">8.23208e-12</wgt>
  <wgt id="424">8.39433e-12</wgt>
  <wgt id="425">8.11361e-12</wgt>
  <wgt id="426">8.22285e-12</wgt>
  <wgt id="427">8.13901e-12</wgt>
  <wgt id="428">8.45372e-12</wgt>
  <wgt id="429">8.30003e-12</wgt>
  <wgt id="430">8.53339e-12</wgt>
  <wgt id="431">8.48705e-12</wgt>
  <wgt id="432">8.44307e-12</wgt>
  <wgt id="433">8.40053e-12</wgt>
  <wgt id="434">8.34853e-12</wgt>
  <wgt id="435">8.24018e-12</wgt>
  <wgt id="436">8.18497e-12</wgt>
  <wgt id="437">8.13195e-12</wgt>
  <wgt id="438">8.30003e-12</wgt>
  <wgt id="439">8.3271e-12</wgt>
  <wgt id="440">8.311e-12</wgt>
  <wgt id="441">8.29196e-12</wgt>
  <wgt id="442">8.2853e-12</wgt>
  <wgt id="443">7.96844e-12</wgt>
  <wgt id="444">8.01854e-12</wgt>
  <wgt id="445">7.96106e-12</wgt>
  <wgt id="446">7.9156e-12</wgt>
  <wgt id="447">7.95014e-12</wgt>
  <wgt id="448">7.76522e-12</wgt>
  <wgt id="449">8.09529e-12</wgt>
  <wgt id="450">7.96816e-12</wgt>
  <wgt id="451">7.95375e-12</wgt>
  <wgt id="452">8.1425e-12</wgt>
  <wgt id="453">8.04142e-12</wgt>
  <wgt id="454">7.6378e-12</wgt>
  <wgt id="455">7.98974e-12</wgt>
  <wgt id="456">7.93926e-12</wgt>
  <wgt id="457">7.99785e-12</wgt>
  <wgt id="458">8.06924e-12</wgt>
  <wgt id="459">8.02658e-12</wgt>
  <wgt id="460">8.03599e-12</wgt>
  <wgt id="461">7.81695e-12</wgt>
  <wgt id="462">7.9093e-12</wgt>
  <wgt id="463">7.87445e-12</wgt>
  <wgt id="464">7.92758e-12</wgt>
  <wgt id="465">8.05024e-12</wgt>
  <wgt id="466">7.86405e-12</wgt>
  <wgt id="467">7.89598e-12</wgt>
  <wgt id="468">7.94935e-12</wgt>
  <wgt id="469">7.94973e-12</wgt>
  <wgt id="470">7.88838e-12</wgt>
  <wgt id="471">7.89602e-12</wgt>
  <wgt id="472">8.00565e-12</wgt>
  <wgt id="473">7.72463e-12</wgt>
  <wgt id="474">5.79e-12</wgt>
  <wgt id="475">6.02383e-12</wgt>
  <wgt id="476">5.69146e-12</wgt>
  <wgt id="477">5.64171e-12</wgt>
  <wgt id="478">5.83346e-12</wgt>
  <wgt id="479">5.67057e-12</wgt>
  <wgt id="480">6.01532e-12</wgt>
  <wgt id="481">5.7283e-12</wgt>
  <wgt id="482">5.65055e-12</wgt>
  <wgt id="483">5.65323e-12</wgt>
  <wgt id="484">6.04395e-12</wgt>
  <wgt id="485">5.69215e-12</wgt>
  <wgt id="486">5.99939e-12</wgt>
  <wgt id="487">5.83262e-12</wgt>
  <wgt id="488">5.8911e-12</wgt>
  <wgt id="489">5.50923e-12</wgt>
  <wgt id="490">5.57873e-12</wgt>
  <wgt id="491">5.74954e-12</wgt>
  <wgt id="492">5.65794e-12</wgt>
  <wgt id="493">5.55365e-12</wgt>
  <wgt id="494">5.59802e-12</wgt>
  <wgt id="495">5.84451e-12</wgt>
  <wgt id="496">5.60073e-12</wgt>
  <wgt id="497">5.55064e-12</wgt>
  <wgt id="498">5.91929e-12</wgt>
  <wgt id="499">5.70023e-12</wgt>
  <wgt id="500">5.67532e-12</wgt>
  <wgt id="501">6.03579e-12</wgt>
  <wgt id="502">5.72346e-12</wgt>
  <wgt id="503">5.78752e-12</wgt>
  <wgt id="504">5.88053e-12</wgt>
  <wgt id="505">5.74494e-12</wgt>
  <wgt id="506">5.77658e-12</wgt>
  <wgt id="507">5.77472e-12</wgt>
  <wgt id="508">5.95106e-12</wgt>
  <wgt id="509">5.49739e-12</wgt>
  <wgt id="510">5.93231e-12</wgt>
  <wgt id="511">5.62915e-12</wgt>
  <wgt id="512">5.94181e-12</wgt>
  <wgt id="513">6.00962e-12</wgt>
  <wgt id="514">5.83002e-12</wgt>
  <wgt id="515">5.75842e-12</wgt>
  <wgt id="516">6.05881e-12</wgt>
  <wgt id="517">5.92427e-12</wgt>
  <wgt id="518">5.94624e-12</wgt>
  <wgt id="519">5.62621e-12</wgt>
  <wgt id="520">5.88555e-12</wgt>
  <wgt id="521">5.94055e-12</wgt>
  <wgt id="522">6.03537e-12</wgt>
  <wgt id="523">5.79249e-12</wgt>
  <wgt id="524">5.80337e-12</wgt>
  <wgt id="525">5.94256e-12</wgt>
  <wgt id="526">5.86047e-12</wgt>
  <wgt id="527">5.84703e-12</wgt>
  <wgt id="528">5.82118e-12</wgt>
  <wgt id="529">5.7039e-12</wgt>
  <wgt id="530">5.9112e-12</wgt>
  <wgt id="531">5.69494e-12</wgt>
  <wgt id="532">6.14997e-12</wgt>
  <wgt id="533">5.52159e-12</wgt>
  <wgt id="534">5.77228e-12</wgt>
  <wgt id="535">5.82585e-12</wgt>
  <wgt id="536">5.76483e-12</wgt>
  <wgt id="537">5.77028e-12</wgt>
  <wgt id="538">5.85077e-12</wgt>
  <wgt id="539">5.68245e-12</wgt>
  <wgt id="540">5.76195e-12</wgt>
  <wgt id="541">5.62479e-12</wgt>
  <wgt id="542">5.71417e-12</wgt>
  <wgt id="543">5.76247e-12</wgt>
  <wgt id="544">6.03878e-12</wgt>
  <wgt id="545">5.67674e-12</wgt>
  <wgt id="546">5.63523e-12</wgt>
  <wgt id="547">5.64086e-12</wgt>
  <wgt id="548">5.55782e-12</wgt>
  <wgt id="549">5.69593e-12</wgt>
  <wgt id="550">5.6851e-12</wgt>
  <wgt id="551">5.8669e-12</wgt>
  <wgt id="552">5.62682e-12</wgt>
  <wgt id="553">5.72738e-12</wgt>
  <wgt id="554">6.19706e-12</wgt>
  <wgt id="555">5.94938e-12</wgt>
  <wgt id="556">5.57873e-12</wgt>
  <wgt id="557">5.92416e-12</wgt>
  <wgt id="558">5.64488e-12</wgt>
  <wgt id="559">5.67688e-12</wgt>
  <wgt id="560">6.33162e-12</wgt>
  <wgt id="561">5.72152e-12</wgt>
  <wgt id="562">5.93492e-12</wgt>
  <wgt id="563">5.78101e-12</wgt>
  <wgt id="564">5.90132e-12</wgt>
  <wgt id="565">5.64953e-12</wgt>
  <wgt id="566">5.85766e-12</wgt>
  <wgt id="567">5.73558e-12</wgt>
  <wgt id="568">5.75902e-12</wgt>
  <wgt id="569">5.87365e-12</wgt>
  <wgt id="570">5.57053e-12</wgt>
  <wgt id="571">6.40933e-12</wgt>
  <wgt id="572">5.67892e-12</wgt>
  <wgt id="573">5.57664e-12</wgt>
  <wgt id="574">5.61066e-12</wgt>
  <wgt id="575">6.37753e-12</wgt>
  <wgt id="576">6.44645e-12</wgt>
  <wgt id="577">6.56851e-12</wgt>
  <wgt id="578">6.55784e-12</wgt>
  <wgt id="579">6.52887e-12</wgt>
  <wgt id="580">6.57797e-12</wgt>
  <wgt id="581">6.85281e-12</wgt>
  <wgt id="582">6.43001e-12</wgt>
  <wgt id="583">6.43802e-12</wgt>
  <wgt id="584">6.36175e-12</wgt>
  <wgt id="585">6.28262e-12</wgt>
  <wgt id="586">6.18146e-12</wgt>
  <wgt id="587">6.4721e-12</wgt>
  <wgt id="588">6.41907e-12</wgt>
  <wgt id="589">6.58073e-12</wgt>
  <wgt id="590">6.41834e-12</wgt>
  <wgt id="591">6.61051e-12</wgt>
  <wgt id="592">6.09758e-12</wgt>
  <wgt id="593">6.32021e-12</wgt>
  <wgt id="594">6.52653e-12</wgt>
  <wgt id="595">6.4104e-12</wgt>
  <wgt id="596">6.59071e-12</wgt>
  <wgt id="597">6.25384e-12</wgt>
  <wgt id="598">6.16438e-12</wgt>
  <wgt id="599">6.64433e-12</wgt>
  <wgt id="600">6.38891e-12</wgt>
  <wgt id="601">6.18717e-12</wgt>
  <wgt id="602">6.2009e-12</wgt>
  <wgt id="603">6.21257e-12</wgt>
  <wgt id="604">6.47853e-12</wgt>
  <wgt id="605">6.60669e-12</wgt>
  <wgt id="606">6.32917e-12</wgt>
  <wgt id="607">6.37117e-12</wgt>
  <wgt id="608">6.47435e-12</wgt>
  <wgt id="609">6.09978e-12</wgt>
  <wgt id="610">6.15091e-12</wgt>
  <wgt id="611">6.37351e-12</wgt>
  <wgt id="612">6.82406e-12</wgt>
  <wgt id="613">6.31375e-12</wgt>
  <wgt id="614">6.41433e-12</wgt>
  <wgt id="615">6.29801e-12</wgt>
  <wgt id="616">6.63384e-12</wgt>
  <wgt id="617">6.5688e-12</wgt>
  <wgt id="618">6.71104e-12</wgt>
  <wgt id="619">6.30208e-12</wgt>
  <wgt id="620">6.60945e-12</wgt>
  <wgt id="621">6.40253e-12</wgt>
  <wgt id="622">6.4721e-12</wgt>
  <wgt id="623">6.53166e-12</wgt>
  <wgt id="624">6.37571e-12</wgt>
  <wgt id="625">6.2553e-12</wgt>
  <wgt id="626">6.13429e-12</wgt>
  <wgt id="627">6.07665e-12</wgt>
  <wgt id="628">6.57319e-12</wgt>
  <wgt id="629">6.28558e-12</wgt>
  <wgt id="630">6.18252e-12</wgt>
  <wgt id="631">6.42287e-12</wgt>
  <wgt id="632">6.07931e-12</wgt>
  <wgt id="633">6.33008e-12</wgt>
  <wgt id="634">6.30347e-12</wgt>
  <wgt id="635">6.13794e-12</wgt>
  <wgt id="636">6.4454e-12</wgt>
  <wgt id="637">6.39226e-12</wgt>
  <wgt id="638">6.15324e-12</wgt>
  <wgt id="639">6.27246e-12</wgt>
  <wgt id="640">6.36692e-12</wgt>
  <wgt id="641">6.48558e-12</wgt>
  <wgt id="642">6.18644e-12</wgt>
  <wgt id="643">6.32769e-12</wgt>
  <wgt id="644">5.97657e-12</wgt>
  <wgt id="645">6.41471e-12</wgt>
  <wgt id="646">6.34508e-12</wgt>
  <wgt id="647">6.3127e-12</wgt>
  <wgt id="648">6.47062e-12</wgt>
  <wgt id="649">6.44384e-12</wgt>
  <wgt id="650">6.20978e-12</wgt>
  <wgt id="651">6.52993e-12</wgt>
  <wgt id="652">6.29613e-12</wgt>
  <wgt id="653">6.19002e-12</wgt>
  <wgt id="654">6.30142e-12</wgt>
  <wgt id="655">6.26743e-12</wgt>
  <wgt id="656">6.37783e-12</wgt>
  <wgt id="657">6.71588e-12</wgt>
  <wgt id="658">6.40865e-12</wgt>
  <wgt id="659">6.12323e-12</wgt>
  <wgt id="660">6.44326e-12</wgt>
  <wgt id="661">6.27925e-12</wgt>
  <wgt id="662">6.33961e-12</wgt>
  <wgt id="663">6.40245e-12</wgt>
  <wgt id="664">6.31971e-12</wgt>
  <wgt id="665">6.36661e-12</wgt>
  <wgt id="666">6.31427e-12</wgt>
  <wgt id="667">6.61287e-12</wgt>
  <wgt id="668">6.36648e-12</wgt>
  <wgt id="669">6.51034e-12</wgt>
  <wgt id="670">6.54493e-12</wgt>
  <wgt id="671">6.34096e-12</wgt>
  <wgt id="672">6.11742e-12</wgt>
  <wgt id="673">6.46473e-12</wgt>
  <wgt id="674">6.23591e-12</wgt>
  <wgt id="675">6.27804e-12</wgt>
  <wgt id="676">8.07277e-12</wgt>
  <wgt id="677">8.17031e-12</wgt>
  <wgt id="678">8.51978e-12</wgt>
  <wgt id="679">7.68179e-12</wgt>
  <wgt id="680">7.93866e-12</wgt>
  <wgt id="681">8.17578e-12</wgt>
  <wgt id="682">8.31563e-12</wgt>
  <wgt id="683">7.89603e-12</wgt>
  <wgt id="684">8.42072e-12</wgt>
  <wgt id="685">7.77128e-12</wgt>
  <wgt id="686">7.88719e-12</wgt>
  <wgt id="687">8.41908e-12</wgt>
  <wgt id="688">7.95399e-12</wgt>
  <wgt id="689">8.57597e-12</wgt>
  <wgt id="690">8.4214e-12</wgt>
  <wgt id="691">8.45453e-12</wgt>
  <wgt id="692">7.98559e-12</wgt>
  <wgt id="693">9.62295e-12</wgt>
  <wgt id="694">8.60795e-12</wgt>
  <wgt id="695">7.79761e-12</wgt>
  <wgt id="696">7.74032e-12</wgt>
  <wgt id="697">7.72521e-12</wgt>
  <wgt id="698">7.29652e-12</wgt>
  <wgt id="699">7.24754e-12</wgt>
  <wgt id="700">7.10279e-12</wgt>
  <wgt id="701">8.08314e-12</wgt>
  <wgt id="702">7.88339e-12</wgt>
  <wgt id="703">9.33076e-12</wgt>
  <wgt id="704">8.87657e-12</wgt>
  <wgt id="705">8.60164e-12</wgt>
  <wgt id="706">7.6022e-12</wgt>
  <wgt id="707">7.7268e-12</wgt>
  <wgt id="708">7.93188e-12</wgt>
  <wgt id="709">7.90991e-12</wgt>
  <wgt id="710">7.32362e-12</wgt>
  <wgt id="711">8.06411e-12</wgt>
  <wgt id="712">7.851e-12</wgt>
  <wgt id="713">8.67908e-12</wgt>
  <wgt id="714">7.81843e-12</wgt>
  <wgt id="715">7.94196e-12</wgt>
  <wgt id="716">7.78804e-12</wgt>
  <wgt id="717">7.57272e-12</wgt>
  <wgt id="718">8.11227e-12</wgt>
  <wgt id="719">7.34258e-12</wgt>
  <wgt id="720">7.74446e-12</wgt>
  <wgt id="721">7.32371e-12</wgt>
  <wgt id="722">7.06234e-12</wgt>
  <wgt id="723">8.6588e-12</wgt>
  <wgt id="724">8.49305e-12</wgt>
  <wgt id="725">8.48179e-12</wgt>
  <wgt id="726">8.11472e-12</wgt>
  <wgt id="727">7.9299e-12</wgt>
  <wgt id="728">7.87257e-12</wgt>
  <wgt id="729">7.66113e-12</wgt>
  <wgt id="730">8.68533e-12</wgt>
  <wgt id="731">7.94997e-12</wgt>
  <wgt id="732">8.94459e-12</wgt>
  <wgt id="733">7.92003e-12</wgt>
  <wgt id="734">8.26729e-12</wgt>
  <wgt id="735">8.11194e-12</wgt>
  <wgt id="736">7.83973e-12</wgt>
  <wgt id="737">8.13298e-12</wgt>
  <wgt id="738">7.71591e-12</wgt>
  <wgt id="739">8.3189e-12</wgt>
  <wgt id="740">9.03081e-12</wgt>
  <wgt id="741">7.37459e-12</wgt>
  <wgt id="742">7.97373e-12</wgt>
  <wgt id="743">7.64947e-12</wgt>
  <wgt id="744">7.90768e-12</wgt>
  <wgt id="745">8.46793e-12</wgt>
  <wgt id="746">8.62897e-12</wgt>
  <wgt id="747">7.20973e-12</wgt>
  <wgt id="748">7.95098e-12</wgt>
  <wgt id="749">8.44535e-12</wgt>
  <wgt id="750">8.39714e-12</wgt>
  <wgt id="751">8.25819e-12</wgt>
  <wgt id="752">7.40046e-12</wgt>
  <wgt id="753">7.5814e-12</wgt>
  <wgt id="754">8.37796e-12</wgt>
  <wgt id="755">8.06242e-12</wgt>
  <wgt id="756">8.04721e-12</wgt>
  <wgt id="757">7.37708e-12</wgt>
  <wgt id="758">8.06685e-12</wgt>
  <wgt id="759">8.46877e-12</wgt>
  <wgt id="760">8.08723e-12</wgt>
  <wgt id="761">8.55936e-12</wgt>
  <wgt id="762">8.59586e-12</wgt>
  <wgt id="763">8.05938e-12</wgt>
  <wgt id="764">8.41147e-12</wgt>
  <wgt id="765">8.15614e-12</wgt>
  <wgt id="766">8.07368e-12</wgt>
  <wgt id="767">8.24643e-12</wgt>
  <wgt id="768">7.57714e-12</wgt>
  <wgt id="769">8.55049e-12</wgt>
  <wgt id="770">7.89016e-12</wgt>
  <wgt id="771">9.55053e-12</wgt>
  <wgt id="772">7.68434e-12</wgt>
  <wgt id="773">8.01368e-12</wgt>
  <wgt id="774">7.00538e-12</wgt>
  <wgt id="775">8.453e-12</wgt>
  <wgt id="776">8.80275e-12</wgt>
  <wgt id="777">7.60516e-12</wgt>
  <wgt id="778">5.86493e-12</wgt>
  <wgt id="779">4.64741e-12</wgt>
  <wgt id="780">3.63799e-12</wgt>
  <wgt id="781">6.4226e-12</wgt>
  <wgt id="782">6.36164e-12</wgt>
  <wgt id="783">4.66003e-12</wgt>
  <wgt id="784">4.97295e-12</wgt>
  <wgt id="785">7.43003e-12</wgt>
  <wgt id="786">4.38434e-12</wgt>
  <wgt id="787">6.80243e-12</wgt>
  <wgt id="788">3.30379e-12</wgt>
  <wgt id="789">4.75819e-12</wgt>
  <wgt id="790">4.30664e-12</wgt>
  <wgt id="791">5.7674e-12</wgt>
  <wgt id="792">7.77042e-12</wgt>
  <wgt id="793">5.77023e-12</wgt>
  <wgt id="794">4.24975e-12</wgt>
  <wgt id="795">7.04901e-12</wgt>
  <wgt id="796">7.74575e-12</wgt>
  <wgt id="797">7.00506e-12</wgt>
  <wgt id="798">5.21954e-12</wgt>
  <wgt id="799">6.74968e-12</wgt>
  <wgt id="800">4.81587e-12</wgt>
  <wgt id="801">5.4303e-12</wgt>
  <wgt id="802">4.23903e-12</wgt>
  <wgt id="803">8.21249e-12</wgt>
  <wgt id="804">7.00404e-12</wgt>
  <wgt id="805">7.05619e-12</wgt>
  <wgt id="806">6.45222e-12</wgt>
  <wgt id="807">5.59565e-12</wgt>
  <wgt id="808">5.6515e-12</wgt>
  <wgt id="809">5.41476e-12</wgt>
  <wgt id="810">6.55837e-12</wgt>
  <wgt id="811">6.33815e-12</wgt>
  <wgt id="812">4.29181e-12</wgt>
  <wgt id="813">4.44598e-12</wgt>
  <wgt id="814">4.79448e-12</wgt>
  <wgt id="815">4.63518e-12</wgt>
  <wgt id="816">4.24002e-12</wgt>
  <wgt id="817">6.06973e-12</wgt>
  <wgt id="818">6.14753e-12</wgt>
  <wgt id="819">4.65262e-12</wgt>
  <wgt id="820">5.80559e-12</wgt>
  <wgt id="821">6.77542e-12</wgt>
  <wgt id="822">4.77933e-12</wgt>
  <wgt id="823">6.88421e-12</wgt>
  <wgt id="824">8.06599e-12</wgt>
  <wgt id="825">4.10606e-12</wgt>
  <wgt id="826">6.38151e-12</wgt>
  <wgt id="827">3.41432e-12</wgt>
  <wgt id="828">7.49474e-12</wgt>
  <wgt id="829">6.07219e-12</wgt>
  <wgt id="830">3.88836e-12</wgt>
  <wgt id="831">6.40419e-12</wgt>
  <wgt id="832">9.72084e-12</wgt>
  <wgt id="833">5.30251e-12</wgt>
  <wgt id="834">9.22448e-12</wgt>
  <wgt id="835">4.70256e-12</wgt>
  <wgt id="836">5.60407e-12</wgt>
  <wgt id="837">6.67847e-12</wgt>
  <wgt id="838">5.40472e-12</wgt>
  <wgt id="839">6.35916e-12</wgt>
  <wgt id="840">5.37422e-12</wgt>
  <wgt id="841">7.40847e-12</wgt>
  <wgt id="842">5.3898e-12</wgt>
  <wgt id="843">5.90885e-12</wgt>
  <wgt id="844">6.17499e-12</wgt>
  <wgt id="845">8.67548e-12</wgt>
  <wgt id="846">5.88098e-12</wgt>
  <wgt id="847">5.9879e-12</wgt>
  <wgt id="848">4.8052e-12</wgt>
  <wgt id="849">6.06221e-12</wgt>
  <wgt id="850">7.85483e-12</wgt>
  <wgt id="851">6.51024e-12</wgt>
  <wgt id="852">4.63518e-12</wgt>
  <wgt id="853">6.58075e-12</wgt>
  <wgt id="854">7.30719e-12</wgt>
  <wgt id="855">6.84813e-12</wgt>
  <wgt id="856">3.95664e-12</wgt>
  <wgt id="857">5.72611e-12</wgt>
  <wgt id="858">5.61406e-12</wgt>
  <wgt id="859">5.51179e-12</wgt>
  <wgt id="860">6.55825e-12</wgt>
  <wgt id="861">5.10741e-12</wgt>
  <wgt id="862">5.94924e-12</wgt>
  <wgt id="863">6.31085e-12</wgt>
  <wgt id="864">6.191e-12</wgt>
  <wgt id="865">8.55162e-12</wgt>
  <wgt id="866">9.40492e-12</wgt>
  <wgt id="867">5.97661e-12</wgt>
  <wgt id="868">5.82369e-12</wgt>
  <wgt id="869">4.35311e-12</wgt>
  <wgt id="870">4.63735e-12</wgt>
  <wgt id="871">4.4985e-12</wgt>
  <wgt id="872">7.23266e-12</wgt>
  <wgt id="873">4.87193e-12</wgt>
  <wgt id="874">6.23562e-12</wgt>
  <wgt id="875">5.01247e-12</wgt>
  <wgt id="876">7.16751e-12</wgt>
  <wgt id="877">6.69904e-12</wgt>
  <wgt id="878">4.90013e-12</wgt>
  <wgt id="879">8.07277e-12</wgt>
  <wgt id="880">8.17031e-12</wgt>
  <wgt id="881">8.51978e-12</wgt>
  <wgt id="882">7.68179e-12</wgt>
  <wgt id="883">7.93866e-12</wgt>
  <wgt id="884">8.17578e-12</wgt>
  <wgt id="885">8.31563e-12</wgt>
  <wgt id="886">7.89603e-12</wgt>
  <wgt id="887">8.42072e-12</wgt>
  <wgt id="888">7.77128e-12</wgt>
  <wgt id="889">7.88719e-12</wgt>
  <wgt id="890">8.41908e-12</wgt>
  <wgt id="891">7.95399e-12</wgt>
  <wgt id="892">8.57597e-12</wgt>
  <wgt id="893">8.4214e-12</wgt>
  <wgt id="894">8.45453e-12</wgt>
  <wgt id="895">7.98559e-12</wgt>
  <wgt id="896">9.62295e-12</wgt>
  <wgt id="897">8.60795e-12</wgt>
  <wgt id="898">7.79761e-12</wgt>
  <wgt id="899">7.74032e-12</wgt>
  <wgt id="900">7.72521e-12</wgt>
  <wgt id="901">7.29652e-12</wgt>
  <wgt id="902">7.24754e-12</wgt>
  <wgt id="903">7.10279e-12</wgt>
  <wgt id="904">8.08314e-12</wgt>
  <wgt id="905">7.88339e-12</wgt>
  <wgt id="906">9.33076e-12</wgt>
  <wgt id="907">8.87657e-12</wgt>
  <wgt id="908">8.60164e-12</wgt>
  <wgt id="909">7.6022e-12</wgt>
  <wgt id="910">7.7268e-12</wgt>
  <wgt id="911">7.93188e-12</wgt>
  <wgt id="912">7.90991e-12</wgt>
  <wgt id="913">7.32362e-12</wgt>
  <wgt id="914">8.06411e-12</wgt>
  <wgt id="915">7.851e-12</wgt>
  <wgt id="916">8.67908e-12</wgt>
  <wgt id="917">7.81843e-12</wgt>
  <wgt id="918">7.94196e-12</wgt>
  <wgt id="919">7.78804e-12</wgt>
  <wgt id="920">7.57272e-12</wgt>
  <wgt id="921">8.11227e-12</wgt>
  <wgt id="922">7.34258e-12</wgt>
  <wgt id="923">7.74446e-12</wgt>
  <wgt id="924">7.32371e-12</wgt>
  <wgt id="925">7.06234e-12</wgt>
  <wgt id="926">8.6588e-12</wgt>
  <wgt id="927">8.49305e-12</wgt>
  <wgt id="928">8.48179e-12</wgt>
  <wgt id="929">8.11472e-12</wgt>
  <wgt id="930">7.9299e-12</wgt>
  <wgt id="931">7.87257e-12</wgt>
  <wgt id="932">7.66113e-12</wgt>
  <wgt id="933">8.68533e-12</wgt>
  <wgt id="934">7.94997e-12</wgt>
  <wgt id="935">8.94459e-12</wgt>
  <wgt id="936">7.92003e-12</wgt>
  <wgt id="937">8.26729e-12</wgt>
  <wgt id="938">8.11194e-12</wgt>
  <wgt id="939">7.83973e-12</wgt>
  <wgt id="940">8.13298e-12</wgt>
  <wgt id="941">7.71591e-12</wgt>
  <wgt id="942">8.3189e-12</wgt>
  <wgt id="943">9.03081e-12</wgt>
  <wgt id="944">7.37459e-12</wgt>
  <wgt id="945">7.97373e-12</wgt>
  <wgt id="946">7.64947e-12</wgt>
  <wgt id="947">7.90768e-12</wgt>
  <wgt id="948">8.46793e-12</wgt>
  <wgt id="949">8.62897e-12</wgt>
  <wgt id="950">7.20973e-12</wgt>
  <wgt id="951">7.95098e-12</wgt>
  <wgt id="952">8.44535e-12</wgt>
  <wgt id="953">8.39714e-12</wgt>
  <wgt id="954">8.25819e-12</wgt>
  <wgt id="955">7.40046e-12</wgt>
  <wgt id="956">7.5814e-12</wgt>
  <wgt id="957">8.37796e-12</wgt>
  <wgt id="958">8.06242e-12</wgt>
  <wgt id="959">8.04721e-12</wgt>
  <wgt id="960">7.37708e-12</wgt>
  <wgt id="961">8.06685e-12</wgt>
  <wgt id="962">8.46877e-12</wgt>
  <wgt id="963">8.08723e-12</wgt>
  <wgt id="964">8.55936e-12</wgt>
  <wgt id="965">8.59586e-12</wgt>
  <wgt id="966">8.05938e-12</wgt>
  <wgt id="967">8.41147e-12</wgt>
  <wgt id="968">8.15614e-12</wgt>
  <wgt id="969">8.07368e-12</wgt>
  <wgt id="970">8.24643e-12</wgt>
  <wgt id="971">7.57714e-12</wgt>
  <wgt id="972">8.55049e-12</wgt>
  <wgt id="973">7.89016e-12</wgt>
  <wgt id="974">9.55053e-12</wgt>
  <wgt id="975">7.68434e-12</wgt>
  <wgt id="976">8.01368e-12</wgt>
  <wgt id="977">7.00538e-12</wgt>
  <wgt id="978">8.453e-12</wgt>
  <wgt id="979">8.80275e-12</wgt>
  <wgt id="980">8.0583e-12</wgt>
  <wgt id="981">8.1289e-12</wgt>
  <wgt id="982">7.82954e-12</wgt>
</rwgt>
</event>
<event>
 5   1  0.5790000E-11  0.2035283E+04  0.7818608E-02  0.7813904E-01
       21   -1    0    0  502  501  0.00000000000E+00  0.00000000000E+00  0.15702806513E+04  0.15702806513E+04  0.00000000000E+00 0.  1.
       21   -1    0    0  501  502 -0.00000000000E+00 -0.00000000000E+00 -0.65949605631E+03  0.65949605631E+03  0.00000000000E+00 0. -1.
       39    2    1    2    0    0  0.00000000000E+00  0.00000000000E+00  0.91078459502E+03  0.22297767076E+04  0.20352826800E+04 0.  0.
       25    1    3    3    0    0  0.26161842482E+03  0.59502717304E+03 -0.39143281776E+03  0.76899036904E+03  0.12500000000E+03 0.  0.
       25    1    3    3    0    0 -0.26161842482E+03 -0.59502717304E+03  0.13022174128E+04  0.14607863386E+04  0.12500000000E+03 0.  0.
<mgrwt>
<rscale>  0 0.20352827E+04</rscale>
<asrwt>0</asrwt>
<pdfrwt beam="1">  1       21 0.24158164E+00 0.20352827E+04</pdfrwt>
<pdfrwt beam="2">  1       21 0.10146093E+00 0.20352827E+04</pdfrwt>
<totfact> 0.24603883E+01</totfact>
</mgrwt>
<rwgt>
  <wgt id="1">5.79e-12</wgt>
  <wgt id="2">5.06189e-12</wgt>
  <wgt id="3">6.6894e-12</wgt>
  <wgt id="4">5.79e-12</wgt>
  <wgt id="5">5.06189e-12</wgt>
  <wgt id="6">6.6894e-12</wgt>
  <wgt id="7">5.79e-12</wgt>
  <wgt id="8">5.06189e-12</wgt>
  <wgt id="9">6.6894e-12</wgt>
  <wgt id="10">5.96704e-12</wgt>
  <wgt id="11">5.96351e-12</wgt>
  <wgt id="12">5.95847e-12</wgt>
  <wgt id="13">5.94967e-12</wgt>
  <wgt id="14">5.98873e-12</wgt>
  <wgt id="15">5.97707e-12</wgt>
  <wgt id="16">5.9587e-12</wgt>
  <wgt id="17">5.98485e-12</wgt>
  <wgt id="18">5.95782e-12</wgt>
  <wgt id="19">5.97965e-12</wgt>
  <wgt id="20">5.95454e-12</wgt>
  <wgt id="21">5.92559e-12</wgt>
  <wgt id="22">5.93635e-12</wgt>
  <wgt id="23">5.90462e-12</wgt>
  <wgt id="24">5.93372e-12</wgt>
  <wgt id="25">5.95015e-12</wgt>
  <wgt id="26">5.98541e-12</wgt>
  <wgt id="27">5.96321e-12</wgt>
  <wgt id="28">5.93607e-12</wgt>
  <wgt id="29">5.97085e-12</wgt>
  <wgt id="30">5.93763e-12</wgt>
  <wgt id="31">5.9896e-12</wgt>
  <wgt id="32">5.94642e-12</wgt>
  <wgt id="33">5.97786e-12</wgt>
  <wgt id="34">5.94105e-12</wgt>
  <wgt id="35">5.95196e-12</wgt>
  <wgt id="36">5.98637e-12</wgt>
  <wgt id="37">5.9513e-12</wgt>
  <wgt id="38">5.94963e-12</wgt>
  <wgt id="39">6.04043e-12</wgt>
  <wgt id="40">5.9723e-12</wgt>
  <wgt id="41">5.96505e-12</wgt>
  <wgt id="42">5.97484e-12</wgt>
  <wgt id="43">5.96579e-12</wgt>
  <wgt id="44">5.96842e-12</wgt>
  <wgt id="45">5.97698e-12</wgt>
  <wgt id="46">5.96611e-12</wgt>
  <wgt id="47">5.97056e-12</wgt>
  <wgt id="48">5.96744e-12</wgt>
  <wgt id="49">5.95168e-12</wgt>
  <wgt id="50">5.96729e-12</wgt>
  <wgt id="51">5.96927e-12</wgt>
  <wgt id="52">5.976e-12</wgt>
  <wgt id="53">5.94355e-12</wgt>
  <wgt id="54">5.96634e-12</wgt>
  <wgt id="55">5.96598e-12</wgt>
  <wgt id="56">5.99131e-12</wgt>
  <wgt id="57">5.97947e-12</wgt>
  <wgt id="58">5.94318e-12</wgt>
  <wgt id="59">5.95401e-12</wgt>
  <wgt id="60">5.97209e-12</wgt>
  <wgt id="61">5.93802e-12</wgt>
  <wgt id="62">5.94904e-12</wgt>
  <wgt id="63">5.96012e-12</wgt>
  <wgt id="64">5.96992e-12</wgt>
  <wgt id="65">5.97544e-12</wgt>
  <wgt id="66">5.96042e-12</wgt>
  <wgt id="67">5.94032e-12</wgt>
  <wgt id="68">5.96474e-12</wgt>
  <wgt id="69">5.9687e-12</wgt>
  <wgt id="70">5.96855e-12</wgt>
  <wgt id="71">5.96643e-12</wgt>
  <wgt id="72">5.95391e-12</wgt>
  <wgt id="73">5.97211e-12</wgt>
  <wgt id="74">5.96936e-12</wgt>
  <wgt id="75">5.95895e-12</wgt>
  <wgt id="76">5.98039e-12</wgt>
  <wgt id="77">5.96516e-12</wgt>
  <wgt id="78">5.9663e-12</wgt>
  <wgt id="79">5.98112e-12</wgt>
  <wgt id="80">5.94521e-12</wgt>
  <wgt id="81">5.96306e-12</wgt>
  <wgt id="82">5.96737e-12</wgt>
  <wgt id="83">5.94608e-12</wgt>
  <wgt id="84">5.95966e-12</wgt>
  <wgt id="85">5.95324e-12</wgt>
  <wgt id="86">5.98479e-12</wgt>
  <wgt id="87">5.93554e-12</wgt>
  <wgt id="88">5.97334e-12</wgt>
  <wgt id="89">5.97188e-12</wgt>
  <wgt id="90">5.97973e-12</wgt>
  <wgt id="91">5.97339e-12</wgt>
  <wgt id="92">5.97861e-12</wgt>
  <wgt id="93">5.97026e-12</wgt>
  <wgt id="94">5.96137e-12</wgt>
  <wgt id="95">5.97651e-12</wgt>
  <wgt id="96">5.97202e-12</wgt>
  <wgt id="97">5.95546e-12</wgt>
  <wgt id="98">5.96931e-12</wgt>
  <wgt id="99">5.95758e-12</wgt>
  <wgt id="100">5.97356e-12</wgt>
  <wgt id="101">5.96807e-12</wgt>
  <wgt id="102">5.96286e-12</wgt>
  <wgt id="103">5.97535e-12</wgt>
  <wgt id="104">5.96436e-12</wgt>
  <wgt id="105">5.97528e-12</wgt>
  <wgt id="106">5.95816e-12</wgt>
  <wgt id="107">5.98413e-12</wgt>
  <wgt id="108">5.96068e-12</wgt>
  <wgt id="109">5.96827e-12</wgt>
  <wgt id="110">5.96732e-12</wgt>
  <wgt id="111">6.01154e-12</wgt>
  <wgt id="112">5.98358e-12</wgt>
  <wgt id="113">7.94368e-12</wgt>
  <wgt id="114">8.048e-12</wgt>
  <wgt id="115">7.91822e-12</wgt>
  <wgt id="116">1.05425e-11</wgt>
  <wgt id="117">6.50667e-12</wgt>
  <wgt id="118">6.52657e-12</wgt>
  <wgt id="119">6.49523e-12</wgt>
  <wgt id="120">6.50741e-12</wgt>
  <wgt id="121">6.50626e-12</wgt>
  <wgt id="122">6.49506e-12</wgt>
  <wgt id="123">6.52243e-12</wgt>
  <wgt id="124">6.49718e-12</wgt>
  <wgt id="125">6.51258e-12</wgt>
  <wgt id="126">6.51582e-12</wgt>
  <wgt id="127">6.50042e-12</wgt>
  <wgt id="128">6.52682e-12</wgt>
  <wgt id="129">6.48667e-12</wgt>
  <wgt id="130">6.54138e-12</wgt>
  <wgt id="131">6.47087e-12</wgt>
  <wgt id="132">6.34347e-12</wgt>
  <wgt id="133">6.69848e-12</wgt>
  <wgt id="134">6.44156e-12</wgt>
  <wgt id="135">6.55745e-12</wgt>
  <wgt id="136">6.58663e-12</wgt>
  <wgt id="137">6.4098e-12</wgt>
  <wgt id="138">6.7483e-12</wgt>
  <wgt id="139">6.27267e-12</wgt>
  <wgt id="140">6.4652e-12</wgt>
  <wgt id="141">6.53876e-12</wgt>
  <wgt id="142">6.50686e-12</wgt>
  <wgt id="143">6.51729e-12</wgt>
  <wgt id="144">6.33475e-12</wgt>
  <wgt id="145">6.66526e-12</wgt>
  <wgt id="146">6.5599e-12</wgt>
  <wgt id="147">6.46436e-12</wgt>
  <wgt id="148">6.52575e-12</wgt>
  <wgt id="149">6.50521e-12</wgt>
  <wgt id="150">6.55987e-12</wgt>
  <wgt id="151">6.48175e-12</wgt>
  <wgt id="152">6.50869e-12</wgt>
  <wgt id="153">6.50588e-12</wgt>
  <wgt id="154">6.55492e-12</wgt>
  <wgt id="155">6.44678e-12</wgt>
  <wgt id="156">6.62773e-12</wgt>
  <wgt id="157">6.3768e-12</wgt>
  <wgt id="158">7.83107e-12</wgt>
  <wgt id="159">7.86399e-12</wgt>
  <wgt id="160">7.805e-12</wgt>
  <wgt id="161">7.8138e-12</wgt>
  <wgt id="162">7.85026e-12</wgt>
  <wgt id="163">7.82342e-12</wgt>
  <wgt id="164">7.84213e-12</wgt>
  <wgt id="165">7.83444e-12</wgt>
  <wgt id="166">7.8288e-12</wgt>
  <wgt id="167">7.82533e-12</wgt>
  <wgt id="168">7.83918e-12</wgt>
  <wgt id="169">7.79724e-12</wgt>
  <wgt id="170">7.85219e-12</wgt>
  <wgt id="171">7.82448e-12</wgt>
  <wgt id="172">7.84029e-12</wgt>
  <wgt id="173">7.82845e-12</wgt>
  <wgt id="174">7.83209e-12</wgt>
  <wgt id="175">7.62547e-12</wgt>
  <wgt id="176">8.09813e-12</wgt>
  <wgt id="177">7.8675e-12</wgt>
  <wgt id="178">7.79765e-12</wgt>
  <wgt id="179">8.14508e-12</wgt>
  <wgt id="180">7.3347e-12</wgt>
  <wgt id="181">7.61472e-12</wgt>
  <wgt id="182">7.974e-12</wgt>
  <wgt id="183">7.69878e-12</wgt>
  <wgt id="184">7.89649e-12</wgt>
  <wgt id="185">7.76582e-12</wgt>
  <wgt id="186">7.90747e-12</wgt>
  <wgt id="187">7.75924e-12</wgt>
  <wgt id="188">7.95885e-12</wgt>
  <wgt id="189">7.78276e-12</wgt>
  <wgt id="190">7.85067e-12</wgt>
  <wgt id="191">7.85234e-12</wgt>
  <wgt id="192">7.81824e-12</wgt>
  <wgt id="193">7.93556e-12</wgt>
  <wgt id="194">7.7791e-12</wgt>
  <wgt id="195">7.66298e-12</wgt>
  <wgt id="196">8.13986e-12</wgt>
  <wgt id="197">7.86775e-12</wgt>
  <wgt id="198">7.82232e-12</wgt>
  <wgt id="199">7.83107e-12</wgt>
  <wgt id="200">7.89596e-12</wgt>
  <wgt id="201">7.87252e-12</wgt>
  <wgt id="202">7.85004e-12</wgt>
  <wgt id="203">7.81609e-12</wgt>
  <wgt id="204">7.80005e-12</wgt>
  <wgt id="205">7.78637e-12</wgt>
  <wgt id="206">7.66073e-12</wgt>
  <wgt id="207">7.70501e-12</wgt>
  <wgt id="208">7.61729e-12</wgt>
  <wgt id="209">7.67954e-12</wgt>
  <wgt id="210">7.64728e-12</wgt>
  <wgt id="211">7.65889e-12</wgt>
  <wgt id="212">7.662e-12</wgt>
  <wgt id="213">7.65992e-12</wgt>
  <wgt id="214">7.66179e-12</wgt>
  <wgt id="215">7.6652e-12</wgt>
  <wgt id="216">7.6576e-12</wgt>
  <wgt id="217">7.67949e-12</wgt>
  <wgt id="218">7.64649e-12</wgt>
  <wgt id="219">7.64875e-12</wgt>
  <wgt id="220">7.66792e-12</wgt>
  <wgt id="221">7.65929e-12</wgt>
  <wgt id="222">7.6638e-12</wgt>
  <wgt id="223">7.27819e-12</wgt>
  <wgt id="224">8.00861e-12</wgt>
  <wgt id="225">7.5766e-12</wgt>
  <wgt id="226">7.76684e-12</wgt>
  <wgt id="227">7.59349e-12</wgt>
  <wgt id="228">7.69048e-12</wgt>
  <wgt id="229">7.56101e-12</wgt>
  <wgt id="230">7.71035e-12</wgt>
  <wgt id="231">7.87317e-12</wgt>
  <wgt id="232">7.48561e-12</wgt>
  <wgt id="233">7.62247e-12</wgt>
  <wgt id="234">7.72123e-12</wgt>
  <wgt id="235">7.50281e-12</wgt>
  <wgt id="236">7.80685e-12</wgt>
  <wgt id="237">7.55577e-12</wgt>
  <wgt id="238">7.69654e-12</wgt>
  <wgt id="239">7.61516e-12</wgt>
  <wgt id="240">7.74325e-12</wgt>
  <wgt id="241">7.58671e-12</wgt>
  <wgt id="242">7.74913e-12</wgt>
  <wgt id="243">7.73622e-12</wgt>
  <wgt id="244">7.69928e-12</wgt>
  <wgt id="245">7.65502e-12</wgt>
  <wgt id="246">7.71472e-12</wgt>
  <wgt id="247">7.66073e-12</wgt>
  <wgt id="248">7.72683e-12</wgt>
  <wgt id="249">7.70243e-12</wgt>
  <wgt id="250">7.67894e-12</wgt>
  <wgt id="251">7.64436e-12</wgt>
  <wgt id="252">7.62793e-12</wgt>
  <wgt id="253">7.61585e-12</wgt>
  <wgt id="254">7.46659e-12</wgt>
  <wgt id="255">7.47308e-12</wgt>
  <wgt id="256">7.45902e-12</wgt>
  <wgt id="257">7.47245e-12</wgt>
  <wgt id="258">7.46211e-12</wgt>
  <wgt id="259">7.51571e-12</wgt>
  <wgt id="260">7.41878e-12</wgt>
  <wgt id="261">7.47327e-12</wgt>
  <wgt id="262">7.45832e-12</wgt>
  <wgt id="263">7.46326e-12</wgt>
  <wgt id="264">7.46986e-12</wgt>
  <wgt id="265">7.45918e-12</wgt>
  <wgt id="266">7.48109e-12</wgt>
  <wgt id="267">7.46852e-12</wgt>
  <wgt id="268">7.4633e-12</wgt>
  <wgt id="269">7.48665e-12</wgt>
  <wgt id="270">7.45282e-12</wgt>
  <wgt id="271">7.45189e-12</wgt>
  <wgt id="272">7.48258e-12</wgt>
  <wgt id="273">7.44621e-12</wgt>
  <wgt id="274">7.48156e-12</wgt>
  <wgt id="275">7.43547e-12</wgt>
  <wgt id="276">7.49843e-12</wgt>
  <wgt id="277">7.42586e-12</wgt>
  <wgt id="278">7.50402e-12</wgt>
  <wgt id="279">7.33856e-12</wgt>
  <wgt id="280">7.62668e-12</wgt>
  <wgt id="281">7.43737e-12</wgt>
  <wgt id="282">7.46814e-12</wgt>
  <wgt id="283">7.26571e-12</wgt>
  <wgt id="284">7.7131e-12</wgt>
  <wgt id="285">7.12973e-12</wgt>
  <wgt id="286">7.74426e-12</wgt>
  <wgt id="287">7.48907e-12</wgt>
  <wgt id="288">7.43753e-12</wgt>
  <wgt id="289">7.51614e-12</wgt>
  <wgt id="290">7.35155e-12</wgt>
  <wgt id="291">7.44691e-12</wgt>
  <wgt id="292">7.47038e-12</wgt>
  <wgt id="293">7.41206e-12</wgt>
  <wgt id="294">7.52029e-12</wgt>
  <wgt id="295">7.33205e-12</wgt>
  <wgt id="296">7.63025e-12</wgt>
  <wgt id="297">7.46705e-12</wgt>
  <wgt id="298">7.49016e-12</wgt>
  <wgt id="299">7.44449e-12</wgt>
  <wgt id="300">7.52406e-12</wgt>
  <wgt id="301">7.38172e-12</wgt>
  <wgt id="302">7.69177e-12</wgt>
  <wgt id="303">7.41674e-12</wgt>
  <wgt id="304">7.49495e-12</wgt>
  <wgt id="305">7.48358e-12</wgt>
  <wgt id="306">7.49054e-12</wgt>
  <wgt id="307">7.47555e-12</wgt>
  <wgt id="308">7.4901e-12</wgt>
  <wgt id="309">7.47871e-12</wgt>
  <wgt id="310">7.5344e-12</wgt>
  <wgt id="311">7.43586e-12</wgt>
  <wgt id="312">7.48802e-12</wgt>
  <wgt id="313">7.47854e-12</wgt>
  <wgt id="314">7.48017e-12</wgt>
  <wgt id="315">7.48615e-12</wgt>
  <wgt id="316">7.47644e-12</wgt>
  <wgt id="317">7.4986e-12</wgt>
  <wgt id="318">7.48776e-12</wgt>
  <wgt id="319">7.47507e-12</wgt>
  <wgt id="320">7.50443e-12</wgt>
  <wgt id="321">7.47144e-12</wgt>
  <wgt id="322">7.46516e-12</wgt>
  <wgt id="323">7.50442e-12</wgt>
  <wgt id="324">7.46711e-12</wgt>
  <wgt id="325">7.49721e-12</wgt>
  <wgt id="326">7.45798e-12</wgt>
  <wgt id="327">7.51554e-12</wgt>
  <wgt id="328">7.44502e-12</wgt>
  <wgt id="329">7.50543e-12</wgt>
  <wgt id="330">7.68422e-12</wgt>
  <wgt id="331">7.29151e-12</wgt>
  <wgt id="332">7.4592e-12</wgt>
  <wgt id="333">7.48374e-12</wgt>
  <wgt id="334">7.32645e-12</wgt>
  <wgt id="335">7.67819e-12</wgt>
  <wgt id="336">7.23934e-12</wgt>
  <wgt id="337">7.77953e-12</wgt>
  <wgt id="338">7.56256e-12</wgt>
  <wgt id="339">7.40983e-12</wgt>
  <wgt id="340">7.52992e-12</wgt>
  <wgt id="341">7.36347e-12</wgt>
  <wgt id="342">7.46986e-12</wgt>
  <wgt id="343">7.47601e-12</wgt>
  <wgt id="344">7.4341e-12</wgt>
  <wgt id="345">7.54021e-12</wgt>
  <wgt id="346">7.34378e-12</wgt>
  <wgt id="347">7.64329e-12</wgt>
  <wgt id="348">7.48778e-12</wgt>
  <wgt id="349">7.50203e-12</wgt>
  <wgt id="350">7.45561e-12</wgt>
  <wgt id="351">7.55343e-12</wgt>
  <wgt id="352">7.39249e-12</wgt>
  <wgt id="353">7.71635e-12</wgt>
  <wgt id="354">7.40898e-12</wgt>
  <wgt id="355">7.5292e-12</wgt>
  <wgt id="356">7.46659e-12</wgt>
  <wgt id="357">7.51204e-12</wgt>
  <wgt id="358">7.48358e-12</wgt>
  <wgt id="359">7.49062e-12</wgt>
  <wgt id="360">7.51822e-12</wgt>
  <wgt id="361">7.48958e-12</wgt>
  <wgt id="362">7.61051e-12</wgt>
  <wgt id="363">7.59412e-12</wgt>
  <wgt id="364">7.56922e-12</wgt>
  <wgt id="365">7.54559e-12</wgt>
  <wgt id="366">7.51935e-12</wgt>
  <wgt id="367">7.46544e-12</wgt>
  <wgt id="368">7.43497e-12</wgt>
  <wgt id="369">7.40206e-12</wgt>
  <wgt id="370">7.48958e-12</wgt>
  <wgt id="371">7.52148e-12</wgt>
  <wgt id="372">7.50393e-12</wgt>
  <wgt id="373">7.47781e-12</wgt>
  <wgt id="374">7.47704e-12</wgt>
  <wgt id="375">8.03193e-12</wgt>
  <wgt id="376">8.03234e-12</wgt>
  <wgt id="377">8.03103e-12</wgt>
  <wgt id="378">8.06073e-12</wgt>
  <wgt id="379">8.00344e-12</wgt>
  <wgt id="380">8.05441e-12</wgt>
  <wgt id="381">8.02314e-12</wgt>
  <wgt id="382">8.06784e-12</wgt>
  <wgt id="383">7.99632e-12</wgt>
  <wgt id="384">8.03692e-12</wgt>
  <wgt id="385">8.02689e-12</wgt>
  <wgt id="386">8.05855e-12</wgt>
  <wgt id="387">8.02057e-12</wgt>
  <wgt id="388">8.02501e-12</wgt>
  <wgt id="389">8.04013e-12</wgt>
  <wgt id="390">8.0509e-12</wgt>
  <wgt id="391">8.01182e-12</wgt>
  <wgt id="392">7.9775e-12</wgt>
  <wgt id="393">8.06291e-12</wgt>
  <wgt id="394">8.04127e-12</wgt>
  <wgt id="395">8.01914e-12</wgt>
  <wgt id="396">8.03619e-12</wgt>
  <wgt id="397">8.02886e-12</wgt>
  <wgt id="398">8.01015e-12</wgt>
  <wgt id="399">8.05305e-12</wgt>
  <wgt id="400">8.02182e-12</wgt>
  <wgt id="401">8.05461e-12</wgt>
  <wgt id="402">7.97275e-12</wgt>
  <wgt id="403">8.05892e-12</wgt>
  <wgt id="404">8.2072e-12</wgt>
  <wgt id="405">7.60828e-12</wgt>
  <wgt id="406">7.90397e-12</wgt>
  <wgt id="407">8.30961e-12</wgt>
  <wgt id="408">8.09726e-12</wgt>
  <wgt id="409">7.9071e-12</wgt>
  <wgt id="410">7.82236e-12</wgt>
  <wgt id="411">8.1291e-12</wgt>
  <wgt id="412">8.01807e-12</wgt>
  <wgt id="413">8.05154e-12</wgt>
  <wgt id="414">7.9481e-12</wgt>
  <wgt id="415">8.09693e-12</wgt>
  <wgt id="416">8.22937e-12</wgt>
  <wgt id="417">7.75838e-12</wgt>
  <wgt id="418">8.04293e-12</wgt>
  <wgt id="419">7.97119e-12</wgt>
  <wgt id="420">8.1328e-12</wgt>
  <wgt id="421">7.9746e-12</wgt>
  <wgt id="422">8.02301e-12</wgt>
  <wgt id="423">8.0377e-12</wgt>
  <wgt id="424">8.177e-12</wgt>
  <wgt id="425">7.93969e-12</wgt>
  <wgt id="426">8.03193e-12</wgt>
  <wgt id="427">7.95884e-12</wgt>
  <wgt id="428">8.23253e-12</wgt>
  <wgt id="429">8.09883e-12</wgt>
  <wgt id="430">8.31179e-12</wgt>
  <wgt id="431">8.26971e-12</wgt>
  <wgt id="432">8.22961e-12</wgt>
  <wgt id="433">8.19087e-12</wgt>
  <wgt id="434">8.1433e-12</wgt>
  <wgt id="435">8.04369e-12</wgt>
  <wgt id="436">7.99243e-12</wgt>
  <wgt id="437">7.94386e-12</wgt>
  <wgt id="438">8.09883e-12</wgt>
  <wgt id="439">8.12464e-12</wgt>
  <wgt id="440">8.10939e-12</wgt>
  <wgt id="441">8.0908e-12</wgt>
  <wgt id="442">8.08466e-12</wgt>
  <wgt id="443">7.79755e-12</wgt>
  <wgt id="444">7.84508e-12</wgt>
  <wgt id="445">7.80723e-12</wgt>
  <wgt id="446">7.74522e-12</wgt>
  <wgt id="447">7.78823e-12</wgt>
  <wgt id="448">7.61476e-12</wgt>
  <wgt id="449">7.91462e-12</wgt>
  <wgt id="450">7.81223e-12</wgt>
  <wgt id="451">7.78377e-12</wgt>
  <wgt id="452">7.95133e-12</wgt>
  <wgt id="453">7.85907e-12</wgt>
  <wgt id="454">7.48677e-12</wgt>
  <wgt id="455">7.82295e-12</wgt>
  <wgt id="456">7.77941e-12</wgt>
  <wgt id="457">7.81974e-12</wgt>
  <wgt id="458">7.89916e-12</wgt>
  <wgt id="459">7.85469e-12</wgt>
  <wgt id="460">7.87363e-12</wgt>
  <wgt id="461">7.66113e-12</wgt>
  <wgt id="462">7.7528e-12</wgt>
  <wgt id="463">7.70833e-12</wgt>
  <wgt id="464">7.76459e-12</wgt>
  <wgt id="465">7.86818e-12</wgt>
  <wgt id="466">7.70128e-12</wgt>
  <wgt id="467">7.7358e-12</wgt>
  <wgt id="468">7.78193e-12</wgt>
  <wgt id="469">7.78638e-12</wgt>
  <wgt id="470">7.72087e-12</wgt>
  <wgt id="471">7.73396e-12</wgt>
  <wgt id="472">7.82924e-12</wgt>
  <wgt id="473">7.5979e-12</wgt>
  <wgt id="474">5.79e-12</wgt>
  <wgt id="475">5.96779e-12</wgt>
  <wgt id="476">5.69127e-12</wgt>
  <wgt id="477">5.61437e-12</wgt>
  <wgt id="478">5.84165e-12</wgt>
  <wgt id="479">5.68665e-12</wgt>
  <wgt id="480">6.01873e-12</wgt>
  <wgt id="481">5.7467e-12</wgt>
  <wgt id="482">5.68784e-12</wgt>
  <wgt id="483">5.65624e-12</wgt>
  <wgt id="484">5.99309e-12</wgt>
  <wgt id="485">5.66979e-12</wgt>
  <wgt id="486">6.02386e-12</wgt>
  <wgt id="487">5.79725e-12</wgt>
  <wgt id="488">5.90186e-12</wgt>
  <wgt id="489">5.51236e-12</wgt>
  <wgt id="490">5.59452e-12</wgt>
  <wgt id="491">5.77415e-12</wgt>
  <wgt id="492">5.69054e-12</wgt>
  <wgt id="493">5.5599e-12</wgt>
  <wgt id="494">5.60549e-12</wgt>
  <wgt id="495">5.80627e-12</wgt>
  <wgt id="496">5.60454e-12</wgt>
  <wgt id="497">5.56285e-12</wgt>
  <wgt id="498">5.93238e-12</wgt>
  <wgt id="499">5.72107e-12</wgt>
  <wgt id="500">5.66845e-12</wgt>
  <wgt id="501">5.98563e-12</wgt>
  <wgt id="502">5.75033e-12</wgt>
  <wgt id="503">5.80239e-12</wgt>
  <wgt id="504">5.88643e-12</wgt>
  <wgt id="505">5.68833e-12</wgt>
  <wgt id="506">5.7712e-12</wgt>
  <wgt id="507">5.79038e-12</wgt>
  <wgt id="508">5.9809e-12</wgt>
  <wgt id="509">5.41795e-12</wgt>
  <wgt id="510">5.88567e-12</wgt>
  <wgt id="511">5.60599e-12</wgt>
  <wgt id="512">5.94258e-12</wgt>
  <wgt id="513">5.95066e-12</wgt>
  <wgt id="514">5.85208e-12</wgt>
  <wgt id="515">5.77321e-12</wgt>
  <wgt id="516">6.08099e-12</wgt>
  <wgt id="517">5.92472e-12</wgt>
  <wgt id="518">5.95355e-12</wgt>
  <wgt id="519">5.64721e-12</wgt>
  <wgt id="520">5.8984e-12</wgt>
  <wgt id="521">5.92626e-12</wgt>
  <wgt id="522">6.03301e-12</wgt>
  <wgt id="523">5.73599e-12</wgt>
  <wgt id="524">5.74831e-12</wgt>
  <wgt id="525">5.92565e-12</wgt>
  <wgt id="526">5.85258e-12</wgt>
  <wgt id="527">5.83123e-12</wgt>
  <wgt id="528">5.81312e-12</wgt>
  <wgt id="529">5.73112e-12</wgt>
  <wgt id="530">5.92268e-12</wgt>
  <wgt id="531">5.69159e-12</wgt>
  <wgt id="532">6.12845e-12</wgt>
  <wgt id="533">5.55821e-12</wgt>
  <wgt id="534">5.76282e-12</wgt>
  <wgt id="535">5.81022e-12</wgt>
  <wgt id="536">5.75224e-12</wgt>
  <wgt id="537">5.77007e-12</wgt>
  <wgt id="538">5.85696e-12</wgt>
  <wgt id="539">5.69566e-12</wgt>
  <wgt id="540">5.78282e-12</wgt>
  <wgt id="541">5.62575e-12</wgt>
  <wgt id="542">5.72638e-12</wgt>
  <wgt id="543">5.7814e-12</wgt>
  <wgt id="544">6.02307e-12</wgt>
  <wgt id="545">5.66729e-12</wgt>
  <wgt id="546">5.59324e-12</wgt>
  <wgt id="547">5.66856e-12</wgt>
  <wgt id="548">5.56166e-12</wgt>
  <wgt id="549">5.71283e-12</wgt>
  <wgt id="550">5.67321e-12</wgt>
  <wgt id="551">5.87525e-12</wgt>
  <wgt id="552">5.59254e-12</wgt>
  <wgt id="553">5.72266e-12</wgt>
  <wgt id="554">6.17561e-12</wgt>
  <wgt id="555">5.95043e-12</wgt>
  <wgt id="556">5.59452e-12</wgt>
  <wgt id="557">5.93455e-12</wgt>
  <wgt id="558">5.6673e-12</wgt>
  <wgt id="559">5.64623e-12</wgt>
  <wgt id="560">6.31734e-12</wgt>
  <wgt id="561">5.73165e-12</wgt>
  <wgt id="562">5.9615e-12</wgt>
  <wgt id="563">5.82536e-12</wgt>
  <wgt id="564">5.94953e-12</wgt>
  <wgt id="565">5.68389e-12</wgt>
  <wgt id="566">5.8596e-12</wgt>
  <wgt id="567">5.74806e-12</wgt>
  <wgt id="568">5.77264e-12</wgt>
  <wgt id="569">5.90361e-12</wgt>
  <wgt id="570">5.57147e-12</wgt>
  <wgt id="571">6.36804e-12</wgt>
  <wgt id="572">5.71197e-12</wgt>
  <wgt id="573">5.60342e-12</wgt>
  <wgt id="574">5.63233e-12</wgt>
  <wgt id="575">6.33587e-12</wgt>
  <wgt id="576">6.4309e-12</wgt>
  <wgt id="577">6.54985e-12</wgt>
  <wgt id="578">6.53275e-12</wgt>
  <wgt id="579">6.49988e-12</wgt>
  <wgt id="580">6.55717e-12</wgt>
  <wgt id="581">6.81909e-12</wgt>
  <wgt id="582">6.43322e-12</wgt>
  <wgt id="583">6.38555e-12</wgt>
  <wgt id="584">6.30525e-12</wgt>
  <wgt id="585">6.20538e-12</wgt>
  <wgt id="586">6.13469e-12</wgt>
  <wgt id="587">6.43731e-12</wgt>
  <wgt id="588">6.38209e-12</wgt>
  <wgt id="589">6.53717e-12</wgt>
  <wgt id="590">6.33617e-12</wgt>
  <wgt id="591">6.57018e-12</wgt>
  <wgt id="592">6.00374e-12</wgt>
  <wgt id="593">6.26964e-12</wgt>
  <wgt id="594">6.5016e-12</wgt>
  <wgt id="595">6.3821e-12</wgt>
  <wgt id="596">6.58446e-12</wgt>
  <wgt id="597">6.23774e-12</wgt>
  <wgt id="598">6.11389e-12</wgt>
  <wgt id="599">6.5935e-12</wgt>
  <wgt id="600">6.37265e-12</wgt>
  <wgt id="601">6.15547e-12</wgt>
  <wgt id="602">6.14943e-12</wgt>
  <wgt id="603">6.16839e-12</wgt>
  <wgt id="604">6.43627e-12</wgt>
  <wgt id="605">6.55645e-12</wgt>
  <wgt id="606">6.33799e-12</wgt>
  <wgt id="607">6.35038e-12</wgt>
  <wgt id="608">6.44172e-12</wgt>
  <wgt id="609">6.10146e-12</wgt>
  <wgt id="610">6.11405e-12</wgt>
  <wgt id="611">6.29812e-12</wgt>
  <wgt id="612">6.72874e-12</wgt>
  <wgt id="613">6.29277e-12</wgt>
  <wgt id="614">6.34354e-12</wgt>
  <wgt id="615">6.28313e-12</wgt>
  <wgt id="616">6.57785e-12</wgt>
  <wgt id="617">6.47916e-12</wgt>
  <wgt id="618">6.73972e-12</wgt>
  <wgt id="619">6.27906e-12</wgt>
  <wgt id="620">6.54374e-12</wgt>
  <wgt id="621">6.33605e-12</wgt>
  <wgt id="622">6.43731e-12</wgt>
  <wgt id="623">6.48803e-12</wgt>
  <wgt id="624">6.33773e-12</wgt>
  <wgt id="625">6.21531e-12</wgt>
  <wgt id="626">6.07396e-12</wgt>
  <wgt id="627">6.0502e-12</wgt>
  <wgt id="628">6.41593e-12</wgt>
  <wgt id="629">6.28018e-12</wgt>
  <wgt id="630">6.08912e-12</wgt>
  <wgt id="631">6.37695e-12</wgt>
  <wgt id="632">6.04611e-12</wgt>
  <wgt id="633">6.3075e-12</wgt>
  <wgt id="634">6.24024e-12</wgt>
  <wgt id="635">6.08569e-12</wgt>
  <wgt id="636">6.42422e-12</wgt>
  <wgt id="637">6.32511e-12</wgt>
  <wgt id="638">6.14415e-12</wgt>
  <wgt id="639">6.24568e-12</wgt>
  <wgt id="640">6.33632e-12</wgt>
  <wgt id="641">6.46536e-12</wgt>
  <wgt id="642">5.98718e-12</wgt>
  <wgt id="643">6.29203e-12</wgt>
  <wgt id="644">5.9032e-12</wgt>
  <wgt id="645">6.36101e-12</wgt>
  <wgt id="646">6.24672e-12</wgt>
  <wgt id="647">6.2816e-12</wgt>
  <wgt id="648">6.4475e-12</wgt>
  <wgt id="649">6.3829e-12</wgt>
  <wgt id="650">6.16916e-12</wgt>
  <wgt id="651">6.53389e-12</wgt>
  <wgt id="652">6.25174e-12</wgt>
  <wgt id="653">6.14133e-12</wgt>
  <wgt id="654">6.21808e-12</wgt>
  <wgt id="655">6.2591e-12</wgt>
  <wgt id="656">6.33308e-12</wgt>
  <wgt id="657">6.72998e-12</wgt>
  <wgt id="658">6.31296e-12</wgt>
  <wgt id="659">6.0805e-12</wgt>
  <wgt id="660">6.39676e-12</wgt>
  <wgt id="661">6.2594e-12</wgt>
  <wgt id="662">6.31178e-12</wgt>
  <wgt id="663">6.37428e-12</wgt>
  <wgt id="664">6.30273e-12</wgt>
  <wgt id="665">6.34054e-12</wgt>
  <wgt id="666">6.27804e-12</wgt>
  <wgt id="667">6.57763e-12</wgt>
  <wgt id="668">6.32449e-12</wgt>
  <wgt id="669">6.46746e-12</wgt>
  <wgt id="670">6.50636e-12</wgt>
  <wgt id="671">6.31603e-12</wgt>
  <wgt id="672">6.09519e-12</wgt>
  <wgt id="673">6.43582e-12</wgt>
  <wgt id="674">6.18786e-12</wgt>
  <wgt id="675">6.26738e-12</wgt>
  <wgt id="676">7.94868e-12</wgt>
  <wgt id="677">8.06146e-12</wgt>
  <wgt id="678">8.36803e-12</wgt>
  <wgt id="679">7.63328e-12</wgt>
  <wgt id="680">7.82963e-12</wgt>
  <wgt id="681">8.04548e-12</wgt>
  <wgt id="682">8.18955e-12</wgt>
  <wgt id="683">7.7728e-12</wgt>
  <wgt id="684">8.24797e-12</wgt>
  <wgt id="685">7.72933e-12</wgt>
  <wgt id="686">7.74971e-12</wgt>
  <wgt id="687">8.19055e-12</wgt>
  <wgt id="688">7.85031e-12</wgt>
  <wgt id="689">8.29603e-12</wgt>
  <wgt id="690">8.235e-12</wgt>
  <wgt id="691">8.31861e-12</wgt>
  <wgt id="692">7.88543e-12</wgt>
  <wgt id="693">9.36427e-12</wgt>
  <wgt id="694">8.45689e-12</wgt>
  <wgt id="695">7.7098e-12</wgt>
  <wgt id="696">7.73708e-12</wgt>
  <wgt id="697">7.64783e-12</wgt>
  <wgt id="698">7.2156e-12</wgt>
  <wgt id="699">7.16766e-12</wgt>
  <wgt id="700">7.08671e-12</wgt>
  <wgt id="701">7.93676e-12</wgt>
  <wgt id="702">7.83398e-12</wgt>
  <wgt id="703">9.07532e-12</wgt>
  <wgt id="704">8.68477e-12</wgt>
  <wgt id="705">8.50175e-12</wgt>
  <wgt id="706">7.59497e-12</wgt>
  <wgt id="707">7.62554e-12</wgt>
  <wgt id="708">7.78587e-12</wgt>
  <wgt id="709">7.77088e-12</wgt>
  <wgt id="710">7.32231e-12</wgt>
  <wgt id="711">7.92736e-12</wgt>
  <wgt id="712">7.71033e-12</wgt>
  <wgt id="713">8.51737e-12</wgt>
  <wgt id="714">7.68104e-12</wgt>
  <wgt id="715">7.83739e-12</wgt>
  <wgt id="716">7.67055e-12</wgt>
  <wgt id="717">7.48444e-12</wgt>
  <wgt id="718">8.02356e-12</wgt>
  <wgt id="719">7.27571e-12</wgt>
  <wgt id="720">7.69089e-12</wgt>
  <wgt id="721">7.23523e-12</wgt>
  <wgt id="722">7.03142e-12</wgt>
  <wgt id="723">8.47351e-12</wgt>
  <wgt id="724">8.3357e-12</wgt>
  <wgt id="725">8.29832e-12</wgt>
  <wgt id="726">7.95923e-12</wgt>
  <wgt id="727">7.81898e-12</wgt>
  <wgt id="728">7.74613e-12</wgt>
  <wgt id="729">7.67912e-12</wgt>
  <wgt id="730">8.43257e-12</wgt>
  <wgt id="731">7.80339e-12</wgt>
  <wgt id="732">8.74963e-12</wgt>
  <wgt id="733">7.76544e-12</wgt>
  <wgt id="734">8.10188e-12</wgt>
  <wgt id="735">8.06156e-12</wgt>
  <wgt id="736">7.71774e-12</wgt>
  <wgt id="737">7.98472e-12</wgt>
  <wgt id="738">7.66196e-12</wgt>
  <wgt id="739">8.16322e-12</wgt>
  <wgt id="740">8.81466e-12</wgt>
  <wgt id="741">7.30994e-12</wgt>
  <wgt id="742">7.8602e-12</wgt>
  <wgt id="743">7.58914e-12</wgt>
  <wgt id="744">7.77942e-12</wgt>
  <wgt id="745">8.26311e-12</wgt>
  <wgt id="746">8.41394e-12</wgt>
  <wgt id="747">7.12567e-12</wgt>
  <wgt id="748">7.86213e-12</wgt>
  <wgt id="749">8.25391e-12</wgt>
  <wgt id="750">8.34413e-12</wgt>
  <wgt id="751">8.08251e-12</wgt>
  <wgt id="752">7.33103e-12</wgt>
  <wgt id="753">7.48e-12</wgt>
  <wgt id="754">8.2354e-12</wgt>
  <wgt id="755">7.92445e-12</wgt>
  <wgt id="756">7.89313e-12</wgt>
  <wgt id="757">7.29954e-12</wgt>
  <wgt id="758">7.89573e-12</wgt>
  <wgt id="759">8.44475e-12</wgt>
  <wgt id="760">7.93297e-12</wgt>
  <wgt id="761">8.39546e-12</wgt>
  <wgt id="762">8.40891e-12</wgt>
  <wgt id="763">7.93454e-12</wgt>
  <wgt id="764">8.24295e-12</wgt>
  <wgt id="765">8.07198e-12</wgt>
  <wgt id="766">7.93856e-12</wgt>
  <wgt id="767">8.0834e-12</wgt>
  <wgt id="768">7.47641e-12</wgt>
  <wgt id="769">8.38406e-12</wgt>
  <wgt id="770">7.8449e-12</wgt>
  <wgt id="771">9.25421e-12</wgt>
  <wgt id="772">7.60224e-12</wgt>
  <wgt id="773">7.89315e-12</wgt>
  <wgt id="774">6.93414e-12</wgt>
  <wgt id="775">8.29054e-12</wgt>
  <wgt id="776">8.53848e-12</wgt>
  <wgt id="777">7.52108e-12</wgt>
  <wgt id="778">5.83375e-12</wgt>
  <wgt id="779">4.65827e-12</wgt>
  <wgt id="780">3.7111e-12</wgt>
  <wgt id="781">6.48088e-12</wgt>
  <wgt id="782">6.29916e-12</wgt>
  <wgt id="783">4.66907e-12</wgt>
  <wgt id="784">4.98287e-12</wgt>
  <wgt id="785">7.3055e-12</wgt>
  <wgt id="786">4.46496e-12</wgt>
  <wgt id="787">6.68789e-12</wgt>
  <wgt id="788">3.38e-12</wgt>
  <wgt id="789">4.94109e-12</wgt>
  <wgt id="790">4.36684e-12</wgt>
  <wgt id="791">5.81172e-12</wgt>
  <wgt id="792">7.76205e-12</wgt>
  <wgt id="793">5.77203e-12</wgt>
  <wgt id="794">4.28532e-12</wgt>
  <wgt id="795">6.88842e-12</wgt>
  <wgt id="796">7.61424e-12</wgt>
  <wgt id="797">6.92779e-12</wgt>
  <wgt id="798">5.16953e-12</wgt>
  <wgt id="799">6.61619e-12</wgt>
  <wgt id="800">4.91798e-12</wgt>
  <wgt id="801">5.40521e-12</wgt>
  <wgt id="802">4.29383e-12</wgt>
  <wgt id="803">8.10944e-12</wgt>
  <wgt id="804">6.90393e-12</wgt>
  <wgt id="805">6.86321e-12</wgt>
  <wgt id="806">6.4077e-12</wgt>
  <wgt id="807">5.59329e-12</wgt>
  <wgt id="808">5.59348e-12</wgt>
  <wgt id="809">5.46263e-12</wgt>
  <wgt id="810">6.4328e-12</wgt>
  <wgt id="811">6.23028e-12</wgt>
  <wgt id="812">4.35751e-12</wgt>
  <wgt id="813">4.45981e-12</wgt>
  <wgt id="814">4.76772e-12</wgt>
  <wgt id="815">4.64665e-12</wgt>
  <wgt id="816">4.34101e-12</wgt>
  <wgt id="817">5.98827e-12</wgt>
  <wgt id="818">6.1275e-12</wgt>
  <wgt id="819">4.67856e-12</wgt>
  <wgt id="820">5.76203e-12</wgt>
  <wgt id="821">6.60448e-12</wgt>
  <wgt id="822">4.81685e-12</wgt>
  <wgt id="823">6.75222e-12</wgt>
  <wgt id="824">7.84785e-12</wgt>
  <wgt id="825">4.1661e-12</wgt>
  <wgt id="826">6.30516e-12</wgt>
  <wgt id="827">3.53895e-12</wgt>
  <wgt id="828">7.41564e-12</wgt>
  <wgt id="829">5.98456e-12</wgt>
  <wgt id="830">3.97418e-12</wgt>
  <wgt id="831">6.32198e-12</wgt>
  <wgt id="832">9.4728e-12</wgt>
  <wgt id="833">5.29341e-12</wgt>
  <wgt id="834">9.04471e-12</wgt>
  <wgt id="835">4.78248e-12</wgt>
  <wgt id="836">5.5366e-12</wgt>
  <wgt id="837">6.53202e-12</wgt>
  <wgt id="838">5.33416e-12</wgt>
  <wgt id="839">6.2849e-12</wgt>
  <wgt id="840">5.37611e-12</wgt>
  <wgt id="841">7.23787e-12</wgt>
  <wgt id="842">5.42626e-12</wgt>
  <wgt id="843">5.89668e-12</wgt>
  <wgt id="844">6.09529e-12</wgt>
  <wgt id="845">8.65384e-12</wgt>
  <wgt id="846">5.979e-12</wgt>
  <wgt id="847">5.98323e-12</wgt>
  <wgt id="848">4.8225e-12</wgt>
  <wgt id="849">6.00746e-12</wgt>
  <wgt id="850">7.63101e-12</wgt>
  <wgt id="851">6.43173e-12</wgt>
  <wgt id="852">4.59899e-12</wgt>
  <wgt id="853">6.49823e-12</wgt>
  <wgt id="854">7.17795e-12</wgt>
  <wgt id="855">6.63014e-12</wgt>
  <wgt id="856">4.025e-12</wgt>
  <wgt id="857">5.67305e-12</wgt>
  <wgt id="858">5.53357e-12</wgt>
  <wgt id="859">5.53164e-12</wgt>
  <wgt id="860">6.47425e-12</wgt>
  <wgt id="861">5.14468e-12</wgt>
  <wgt id="862">5.86572e-12</wgt>
  <wgt id="863">6.23159e-12</wgt>
  <wgt id="864">6.13182e-12</wgt>
  <wgt id="865">8.21341e-12</wgt>
  <wgt id="866">9.11704e-12</wgt>
  <wgt id="867">5.8868e-12</wgt>
  <wgt id="868">5.70556e-12</wgt>
  <wgt id="869">4.40476e-12</wgt>
  <wgt id="870">4.67534e-12</wgt>
  <wgt id="871">4.55128e-12</wgt>
  <wgt id="872">7.07149e-12</wgt>
  <wgt id="873">4.94139e-12</wgt>
  <wgt id="874">6.15756e-12</wgt>
  <wgt id="875">5.02408e-12</wgt>
  <wgt id="876">6.97543e-12</wgt>
  <wgt id="877">6.52343e-12</wgt>
  <wgt id="878">4.9224e-12</wgt>
  <wgt id="879">7.94868e-12</wgt>
  <wgt id="880">8.06146e-12</wgt>
  <wgt id="881">8.36803e-12</wgt>
  <wgt id="882">7.63328e-12</wgt>
  <wgt id="883">7.82963e-12</wgt>
  <wgt id="884">8.04548e-12</wgt>
  <wgt id="885">8.18955e-12</wgt>
  <wgt id="886">7.7728e-12</wgt>
  <wgt id="887">8.24797e-12</wgt>
  <wgt id="888">7.72933e-12</wgt>
  <wgt id="889">7.74971e-12</wgt>
  <wgt id="890">8.19055e-12</wgt>
  <wgt id="891">7.85031e-12</wgt>
  <wgt id="892">8.29603e-12</wgt>
  <wgt id="893">8.235e-12</wgt>
  <wgt id="894">8.31861e-12</wgt>
  <wgt id="895">7.88543e-12</wgt>
  <wgt id="896">9.36427e-12</wgt>
  <wgt id="897">8.45689e-12</wgt>
  <wgt id="898">7.7098e-12</wgt>
  <wgt id="899">7.73708e-12</wgt>
  <wgt id="900">7.64783e-12</wgt>
  <wgt id="901">7.2156e-12</wgt>
  <wgt id="902">7.16766e-12</wgt>
  <wgt id="903">7.08671e-12</wgt>
  <wgt id="904">7.93676e-12</wgt>
  <wgt id="905">7.83398e-12</wgt>
  <wgt id="906">9.07532e-12</wgt>
  <wgt id="907">8.68477e-12</wgt>
  <wgt id="908">8.50175e-12</wgt>
  <wgt id="909">7.59497e-12</wgt>
  <wgt id="910">7.62554e-12</wgt>
  <wgt id="911">7.78587e-12</wgt>
  <wgt id="912">7.77088e-12</wgt>
  <wgt id="913">7.32231e-12</wgt>
  <wgt id="914">7.92736e-12</wgt>
  <wgt id="915">7.71033e-12</wgt>
  <wgt id="916">8.51737e-12</wgt>
  <wgt id="917">7.68104e-12</wgt>
  <wgt id="918">7.83739e-12</wgt>
  <wgt id="919">7.67055e-12</wgt>
  <wgt id="920">7.48444e-12</wgt>
  <wgt id="921">8.02356e-12</wgt>
  <wgt id="922">7.27571e-12</wgt>
  <wgt id="923">7.69089e-12</wgt>
  <wgt id="924">7.23523e-12</wgt>
  <wgt id="925">7.03142e-12</wgt>
  <wgt id="926">8.47351e-12</wgt>
  <wgt id="927">8.3357e-12</wgt>
  <wgt id="928">8.29832e-12</wgt>
  <wgt id="929">7.95923e-12</wgt>
  <wgt id="930">7.81898e-12</wgt>
  <wgt id="931">7.74613e-12</wgt>
  <wgt id="932">7.67912e-12</wgt>
  <wgt id="933">8.43257e-12</wgt>
  <wgt id="934">7.80339e-12</wgt>
  <wgt id="935">8.74963e-12</wgt>
  <wgt id="936">7.76544e-12</wgt>
  <wgt id="937">8.10188e-12</wgt>
  <wgt id="938">8.06156e-12</wgt>
  <wgt id="939">7.71774e-12</wgt>
  <wgt id="940">7.98472e-12</wgt>
  <wgt id="941">7.66196e-12</wgt>
  <wgt id="942">8.16322e-12</wgt>
  <wgt id="943">8.81466e-12</wgt>
  <wgt id="944">7.30994e-12</wgt>
  <wgt id="945">7.8602e-12</wgt>
  <wgt id="946">7.58914e-12</wgt>
  <wgt id="947">7.77942e-12</wgt>
  <wgt id="948">8.26311e-12</wgt>
  <wgt id="949">8.41394e-12</wgt>
  <wgt id="950">7.12567e-12</wgt>
  <wgt id="951">7.86213e-12</wgt>
  <wgt id="952">8.25391e-12</wgt>
  <wgt id="953">8.34413e-12</wgt>
  <wgt id="954">8.08251e-12</wgt>
  <wgt id="955">7.33103e-12</wgt>
  <wgt id="956">7.48e-12</wgt>
  <wgt id="957">8.2354e-12</wgt>
  <wgt id="958">7.92445e-12</wgt>
  <wgt id="959">7.89313e-12</wgt>
  <wgt id="960">7.29954e-12</wgt>
  <wgt id="961">7.89573e-12</wgt>
  <wgt id="962">8.44475e-12</wgt>
  <wgt id="963">7.93297e-12</wgt>
  <wgt id="964">8.39546e-12</wgt>
  <wgt id="965">8.40891e-12</wgt>
  <wgt id="966">7.93454e-12</wgt>
  <wgt id="967">8.24295e-12</wgt>
  <wgt id="968">8.07198e-12</wgt>
  <wgt id="969">7.93856e-12</wgt>
  <wgt id="970">8.0834e-12</wgt>
  <wgt id="971">7.47641e-12</wgt>
  <wgt id="972">8.38406e-12</wgt>
  <wgt id="973">7.8449e-12</wgt>
  <wgt id="974">9.25421e-12</wgt>
  <wgt id="975">7.60224e-12</wgt>
  <wgt id="976">7.89315e-12</wgt>
  <wgt id="977">6.93414e-12</wgt>
  <wgt id="978">8.29054e-12</wgt>
  <wgt id="979">8.53848e-12</wgt>
  <wgt id="980">7.93267e-12</wgt>
  <wgt id="981">7.99052e-12</wgt>
  <wgt id="982">7.70396e-12</wgt>
</rwgt>
</event>
<event>
 5   1  0.5790000E-11  0.1902062E+04  0.7818608E-02  0.7871354E-01
       21   -1    0    0  502  501  0.00000000000E+00  0.00000000000E+00  0.52559961421E+03  0.52559961421E+03  0.00000000000E+00 0. -1.
       21   -1    0    0  501  502 -0.00000000000E+00 -0.00000000000E+00 -0.17208159244E+04  0.17208159244E+04  0.00000000000E+00 0.  1.
       39    2    1    2    0    0  0.00000000000E+00  0.00000000000E+00 -0.11952163102E+04  0.22464155386E+04  0.19020622345E+04 0.  0.
       25    1    3    3    0    0 -0.64426531589E+03  0.24636979812E+03 -0.13566602446E+04  0.15270651243E+04  0.12500000000E+03 0.  0.
       25    1    3    3    0    0  0.64426531589E+03 -0.24636979812E+03  0.16144393434E+03  0.71935041434E+03  0.12500000000E+03 0.  0.
<mgrwt>
<rscale>  0 0.19020622E+04</rscale>
<asrwt>0</asrwt>
<pdfrwt beam="1">  1       21 0.80861480E-01 0.19020622E+04</pdfrwt>
<pdfrwt beam="2">  1       21 0.26474091E+00 0.19020622E+04</pdfrwt>
<totfact> 0.31285700E+01</totfact>
</mgrwt>
<rwgt>
  <wgt id="1">5.79e-12</wgt>
  <wgt id="2">5.06654e-12</wgt>
  <wgt id="3">6.6828e-12</wgt>
  <wgt id="4">5.79e-12</wgt>
  <wgt id="5">5.06654e-12</wgt>
  <wgt id="6">6.6828e-12</wgt>
  <wgt id="7">5.79e-12</wgt>
  <wgt id="8">5.06654e-12</wgt>
  <wgt id="9">6.6828e-12</wgt>
  <wgt id="10">5.96439e-12</wgt>
  <wgt id="11">5.96107e-12</wgt>
  <wgt id="12">5.95565e-12</wgt>
  <wgt id="13">5.94947e-12</wgt>
  <wgt id="14">5.98638e-12</wgt>
  <wgt id="15">5.97385e-12</wgt>
  <wgt id="16">5.9565e-12</wgt>
  <wgt id="17">5.98345e-12</wgt>
  <wgt id="18">5.95324e-12</wgt>
  <wgt id="19">5.9791e-12</wgt>
  <wgt id="20">5.95529e-12</wgt>
  <wgt id="21">5.91996e-12</wgt>
  <wgt id="22">5.92869e-12</wgt>
  <wgt id="23">5.89391e-12</wgt>
  <wgt id="24">5.92942e-12</wgt>
  <wgt id="25">5.94622e-12</wgt>
  <wgt id="26">5.98263e-12</wgt>
  <wgt id="27">5.95867e-12</wgt>
  <wgt id="28">5.93235e-12</wgt>
  <wgt id="29">5.96776e-12</wgt>
  <wgt id="30">5.93135e-12</wgt>
  <wgt id="31">5.9881e-12</wgt>
  <wgt id="32">5.94196e-12</wgt>
  <wgt id="33">5.97513e-12</wgt>
  <wgt id="34">5.93357e-12</wgt>
  <wgt id="35">5.94903e-12</wgt>
  <wgt id="36">5.99079e-12</wgt>
  <wgt id="37">5.94837e-12</wgt>
  <wgt id="38">5.94256e-12</wgt>
  <wgt id="39">6.04296e-12</wgt>
  <wgt id="40">5.96541e-12</wgt>
  <wgt id="41">5.96342e-12</wgt>
  <wgt id="42">5.9651e-12</wgt>
  <wgt id="43">5.96055e-12</wgt>
  <wgt id="44">5.98286e-12</wgt>
  <wgt id="45">5.97566e-12</wgt>
  <wgt id="46">5.96047e-12</wgt>
  <wgt id="47">5.98562e-12</wgt>
  <wgt id="48">5.96859e-12</wgt>
  <wgt id="49">5.93034e-12</wgt>
  <wgt id="50">5.94691e-12</wgt>
  <wgt id="51">5.95665e-12</wgt>
  <wgt id="52">5.98763e-12</wgt>
  <wgt id="53">5.95068e-12</wgt>
  <wgt id="54">5.97154e-12</wgt>
  <wgt id="55">5.96347e-12</wgt>
  <wgt id="56">5.9819e-12</wgt>
  <wgt id="57">5.9671e-12</wgt>
  <wgt id="58">5.94757e-12</wgt>
  <wgt id="59">5.95541e-12</wgt>
  <wgt id="60">5.96066e-12</wgt>
  <wgt id="61">5.92921e-12</wgt>
  <wgt id="62">5.94401e-12</wgt>
  <wgt id="63">5.95636e-12</wgt>
  <wgt id="64">5.96509e-12</wgt>
  <wgt id="65">5.96712e-12</wgt>
  <wgt id="66">5.95887e-12</wgt>
  <wgt id="67">5.93756e-12</wgt>
  <wgt id="68">5.96332e-12</wgt>
  <wgt id="69">5.96351e-12</wgt>
  <wgt id="70">5.96378e-12</wgt>
  <wgt id="71">5.96136e-12</wgt>
  <wgt id="72">5.94555e-12</wgt>
  <wgt id="73">5.97557e-12</wgt>
  <wgt id="74">5.97025e-12</wgt>
  <wgt id="75">5.96105e-12</wgt>
  <wgt id="76">5.98354e-12</wgt>
  <wgt id="77">5.96064e-12</wgt>
  <wgt id="78">5.96097e-12</wgt>
  <wgt id="79">5.97929e-12</wgt>
  <wgt id="80">5.93651e-12</wgt>
  <wgt id="81">5.96282e-12</wgt>
  <wgt id="82">5.96576e-12</wgt>
  <wgt id="83">5.94132e-12</wgt>
  <wgt id="84">5.95543e-12</wgt>
  <wgt id="85">5.94989e-12</wgt>
  <wgt id="86">5.98134e-12</wgt>
  <wgt id="87">5.92954e-12</wgt>
  <wgt id="88">5.97199e-12</wgt>
  <wgt id="89">5.96915e-12</wgt>
  <wgt id="90">5.97952e-12</wgt>
  <wgt id="91">5.97061e-12</wgt>
  <wgt id="92">5.97597e-12</wgt>
  <wgt id="93">5.97059e-12</wgt>
  <wgt id="94">5.95749e-12</wgt>
  <wgt id="95">5.9786e-12</wgt>
  <wgt id="96">5.97163e-12</wgt>
  <wgt id="97">5.95029e-12</wgt>
  <wgt id="98">5.96631e-12</wgt>
  <wgt id="99">5.95216e-12</wgt>
  <wgt id="100">5.9754e-12</wgt>
  <wgt id="101">5.9658e-12</wgt>
  <wgt id="102">5.96134e-12</wgt>
  <wgt id="103">5.97547e-12</wgt>
  <wgt id="104">5.95919e-12</wgt>
  <wgt id="105">5.9729e-12</wgt>
  <wgt id="106">5.95425e-12</wgt>
  <wgt id="107">5.98576e-12</wgt>
  <wgt id="108">5.95581e-12</wgt>
  <wgt id="109">5.96954e-12</wgt>
  <wgt id="110">5.96294e-12</wgt>
  <wgt id="111">5.99014e-12</wgt>
  <wgt id="112">5.99731e-12</wgt>
  <wgt id="113">7.97479e-12</wgt>
  <wgt id="114">7.92739e-12</wgt>
  <wgt id="115">7.78609e-12</wgt>
  <wgt id="116">1.01467e-11</wgt>
  <wgt id="117">6.42943e-12</wgt>
  <wgt id="118">6.44804e-12</wgt>
  <wgt id="119">6.41881e-12</wgt>
  <wgt id="120">6.43011e-12</wgt>
  <wgt id="121">6.42899e-12</wgt>
  <wgt id="122">6.41805e-12</wgt>
  <wgt id="123">6.44494e-12</wgt>
  <wgt id="124">6.4201e-12</wgt>
  <wgt id="125">6.43537e-12</wgt>
  <wgt id="126">6.43706e-12</wgt>
  <wgt id="127">6.42438e-12</wgt>
  <wgt id="128">6.44921e-12</wgt>
  <wgt id="129">6.40978e-12</wgt>
  <wgt id="130">6.46124e-12</wgt>
  <wgt id="131">6.39642e-12</wgt>
  <wgt id="132">6.26917e-12</wgt>
  <wgt id="133">6.61781e-12</wgt>
  <wgt id="134">6.36669e-12</wgt>
  <wgt id="135">6.47832e-12</wgt>
  <wgt id="136">6.50984e-12</wgt>
  <wgt id="137">6.33215e-12</wgt>
  <wgt id="138">6.67128e-12</wgt>
  <wgt id="139">6.19585e-12</wgt>
  <wgt id="140">6.39098e-12</wgt>
  <wgt id="141">6.45894e-12</wgt>
  <wgt id="142">6.42889e-12</wgt>
  <wgt id="143">6.44215e-12</wgt>
  <wgt id="144">6.24801e-12</wgt>
  <wgt id="145">6.59801e-12</wgt>
  <wgt id="146">6.48518e-12</wgt>
  <wgt id="147">6.38469e-12</wgt>
  <wgt id="148">6.44872e-12</wgt>
  <wgt id="149">6.42801e-12</wgt>
  <wgt id="150">6.48079e-12</wgt>
  <wgt id="151">6.40528e-12</wgt>
  <wgt id="152">6.43106e-12</wgt>
  <wgt id="153">6.42882e-12</wgt>
  <wgt id="154">6.46903e-12</wgt>
  <wgt id="155">6.37653e-12</wgt>
  <wgt id="156">6.5616e-12</wgt>
  <wgt id="157">6.29184e-12</wgt>
  <wgt id="158">7.73661e-12</wgt>
  <wgt id="159">7.76974e-12</wgt>
  <wgt id="160">7.711e-12</wgt>
  <wgt id="161">7.72057e-12</wgt>
  <wgt id="162">7.75496e-12</wgt>
  <wgt id="163">7.73021e-12</wgt>
  <wgt id="164">7.74728e-12</wgt>
  <wgt id="165">7.74055e-12</wgt>
  <wgt id="166">7.73493e-12</wgt>
  <wgt id="167">7.73138e-12</wgt>
  <wgt id="168">7.74466e-12</wgt>
  <wgt id="169">7.70293e-12</wgt>
  <wgt id="170">7.75774e-12</wgt>
  <wgt id="171">7.7318e-12</wgt>
  <wgt id="172">7.74405e-12</wgt>
  <wgt id="173">7.73062e-12</wgt>
  <wgt id="174">7.73916e-12</wgt>
  <wgt id="175">7.53924e-12</wgt>
  <wgt id="176">7.99348e-12</wgt>
  <wgt id="177">7.77024e-12</wgt>
  <wgt id="178">7.7066e-12</wgt>
  <wgt id="179">8.0535e-12</wgt>
  <wgt id="180">7.2383e-12</wgt>
  <wgt id="181">7.52201e-12</wgt>
  <wgt id="182">7.8792e-12</wgt>
  <wgt id="183">7.60594e-12</wgt>
  <wgt id="184">7.80175e-12</wgt>
  <wgt id="185">7.66885e-12</wgt>
  <wgt id="186">7.81681e-12</wgt>
  <wgt id="187">7.66255e-12</wgt>
  <wgt id="188">7.86889e-12</wgt>
  <wgt id="189">7.68839e-12</wgt>
  <wgt id="190">7.75683e-12</wgt>
  <wgt id="191">7.75971e-12</wgt>
  <wgt id="192">7.72343e-12</wgt>
  <wgt id="193">7.84113e-12</wgt>
  <wgt id="194">7.68457e-12</wgt>
  <wgt id="195">7.56091e-12</wgt>
  <wgt id="196">8.04907e-12</wgt>
  <wgt id="197">7.77228e-12</wgt>
  <wgt id="198">7.72813e-12</wgt>
  <wgt id="199">7.73661e-12</wgt>
  <wgt id="200">7.80164e-12</wgt>
  <wgt id="201">7.77881e-12</wgt>
  <wgt id="202">7.75667e-12</wgt>
  <wgt id="203">7.72437e-12</wgt>
  <wgt id="204">7.70857e-12</wgt>
  <wgt id="205">7.69483e-12</wgt>
  <wgt id="206">7.59034e-12</wgt>
  <wgt id="207">7.63379e-12</wgt>
  <wgt id="208">7.54728e-12</wgt>
  <wgt id="209">7.60691e-12</wgt>
  <wgt id="210">7.57835e-12</wgt>
  <wgt id="211">7.58876e-12</wgt>
  <wgt id="212">7.59133e-12</wgt>
  <wgt id="213">7.58969e-12</wgt>
  <wgt id="214">7.59155e-12</wgt>
  <wgt id="215">7.59437e-12</wgt>
  <wgt id="216">7.58732e-12</wgt>
  <wgt id="217">7.60725e-12</wgt>
  <wgt id="218">7.57752e-12</wgt>
  <wgt id="219">7.57604e-12</wgt>
  <wgt id="220">7.59866e-12</wgt>
  <wgt id="221">7.59081e-12</wgt>
  <wgt id="222">7.58808e-12</wgt>
  <wgt id="223">7.21583e-12</wgt>
  <wgt id="224">7.93119e-12</wgt>
  <wgt id="225">7.50842e-12</wgt>
  <wgt id="226">7.69387e-12</wgt>
  <wgt id="227">7.525e-12</wgt>
  <wgt id="228">7.61886e-12</wgt>
  <wgt id="229">7.4937e-12</wgt>
  <wgt id="230">7.63828e-12</wgt>
  <wgt id="231">7.80469e-12</wgt>
  <wgt id="232">7.41351e-12</wgt>
  <wgt id="233">7.55107e-12</wgt>
  <wgt id="234">7.6535e-12</wgt>
  <wgt id="235">7.40357e-12</wgt>
  <wgt id="236">7.7545e-12</wgt>
  <wgt id="237">7.47248e-12</wgt>
  <wgt id="238">7.62982e-12</wgt>
  <wgt id="239">7.54016e-12</wgt>
  <wgt id="240">7.68052e-12</wgt>
  <wgt id="241">7.51557e-12</wgt>
  <wgt id="242">7.67893e-12</wgt>
  <wgt id="243">7.66916e-12</wgt>
  <wgt id="244">7.61614e-12</wgt>
  <wgt id="245">7.58564e-12</wgt>
  <wgt id="246">7.63703e-12</wgt>
  <wgt id="247">7.59034e-12</wgt>
  <wgt id="248">7.65794e-12</wgt>
  <wgt id="249">7.63369e-12</wgt>
  <wgt id="250">7.60972e-12</wgt>
  <wgt id="251">7.57555e-12</wgt>
  <wgt id="252">7.55886e-12</wgt>
  <wgt id="253">7.54683e-12</wgt>
  <wgt id="254">7.37271e-12</wgt>
  <wgt id="255">7.3792e-12</wgt>
  <wgt id="256">7.36559e-12</wgt>
  <wgt id="257">7.37917e-12</wgt>
  <wgt id="258">7.36827e-12</wgt>
  <wgt id="259">7.42131e-12</wgt>
  <wgt id="260">7.3258e-12</wgt>
  <wgt id="261">7.37847e-12</wgt>
  <wgt id="262">7.36611e-12</wgt>
  <wgt id="263">7.36944e-12</wgt>
  <wgt id="264">7.37623e-12</wgt>
  <wgt id="265">7.36571e-12</wgt>
  <wgt id="266">7.38595e-12</wgt>
  <wgt id="267">7.37506e-12</wgt>
  <wgt id="268">7.36973e-12</wgt>
  <wgt id="269">7.3917e-12</wgt>
  <wgt id="270">7.36037e-12</wgt>
  <wgt id="271">7.35627e-12</wgt>
  <wgt id="272">7.39099e-12</wgt>
  <wgt id="273">7.35451e-12</wgt>
  <wgt id="274">7.38612e-12</wgt>
  <wgt id="275">7.33939e-12</wgt>
  <wgt id="276">7.40707e-12</wgt>
  <wgt id="277">7.33288e-12</wgt>
  <wgt id="278">7.41018e-12</wgt>
  <wgt id="279">7.25398e-12</wgt>
  <wgt id="280">7.52159e-12</wgt>
  <wgt id="281">7.34537e-12</wgt>
  <wgt id="282">7.37602e-12</wgt>
  <wgt id="283">7.17381e-12</wgt>
  <wgt id="284">7.61785e-12</wgt>
  <wgt id="285">7.03691e-12</wgt>
  <wgt id="286">7.65149e-12</wgt>
  <wgt id="287">7.39582e-12</wgt>
  <wgt id="288">7.34353e-12</wgt>
  <wgt id="289">7.42253e-12</wgt>
  <wgt id="290">7.25934e-12</wgt>
  <wgt id="291">7.352e-12</wgt>
  <wgt id="292">7.37598e-12</wgt>
  <wgt id="293">7.31805e-12</wgt>
  <wgt id="294">7.42696e-12</wgt>
  <wgt id="295">7.23775e-12</wgt>
  <wgt id="296">7.53734e-12</wgt>
  <wgt id="297">7.37087e-12</wgt>
  <wgt id="298">7.39666e-12</wgt>
  <wgt id="299">7.35109e-12</wgt>
  <wgt id="300">7.42931e-12</wgt>
  <wgt id="301">7.28328e-12</wgt>
  <wgt id="302">7.60158e-12</wgt>
  <wgt id="303">7.32024e-12</wgt>
  <wgt id="304">7.40294e-12</wgt>
  <wgt id="305">7.37107e-12</wgt>
  <wgt id="306">7.37774e-12</wgt>
  <wgt id="307">7.36402e-12</wgt>
  <wgt id="308">7.37769e-12</wgt>
  <wgt id="309">7.36645e-12</wgt>
  <wgt id="310">7.42076e-12</wgt>
  <wgt id="311">7.32465e-12</wgt>
  <wgt id="312">7.37434e-12</wgt>
  <wgt id="313">7.36682e-12</wgt>
  <wgt id="314">7.36783e-12</wgt>
  <wgt id="315">7.37407e-12</wgt>
  <wgt id="316">7.36422e-12</wgt>
  <wgt id="317">7.38487e-12</wgt>
  <wgt id="318">7.37546e-12</wgt>
  <wgt id="319">7.3629e-12</wgt>
  <wgt id="320">7.39068e-12</wgt>
  <wgt id="321">7.35989e-12</wgt>
  <wgt id="322">7.35151e-12</wgt>
  <wgt id="323">7.39401e-12</wgt>
  <wgt id="324">7.35695e-12</wgt>
  <wgt id="325">7.38288e-12</wgt>
  <wgt id="326">7.34345e-12</wgt>
  <wgt id="327">7.40595e-12</wgt>
  <wgt id="328">7.33215e-12</wgt>
  <wgt id="329">7.39341e-12</wgt>
  <wgt id="330">7.55931e-12</wgt>
  <wgt id="331">7.19092e-12</wgt>
  <wgt id="332">7.3479e-12</wgt>
  <wgt id="333">7.37236e-12</wgt>
  <wgt id="334">7.21634e-12</wgt>
  <wgt id="335">7.56319e-12</wgt>
  <wgt id="336">7.12902e-12</wgt>
  <wgt id="337">7.6659e-12</wgt>
  <wgt id="338">7.45002e-12</wgt>
  <wgt id="339">7.29748e-12</wgt>
  <wgt id="340">7.41726e-12</wgt>
  <wgt id="341">7.25395e-12</wgt>
  <wgt id="342">7.35614e-12</wgt>
  <wgt id="343">7.36295e-12</wgt>
  <wgt id="344">7.32198e-12</wgt>
  <wgt id="345">7.4279e-12</wgt>
  <wgt id="346">7.23201e-12</wgt>
  <wgt id="347">7.53017e-12</wgt>
  <wgt id="348">7.37302e-12</wgt>
  <wgt id="349">7.38996e-12</wgt>
  <wgt id="350">7.34367e-12</wgt>
  <wgt id="351">7.43902e-12</wgt>
  <wgt id="352">7.27811e-12</wgt>
  <wgt id="353">7.60271e-12</wgt>
  <wgt id="354">7.29431e-12</wgt>
  <wgt id="355">7.41756e-12</wgt>
  <wgt id="356">7.37271e-12</wgt>
  <wgt id="357">7.39417e-12</wgt>
  <wgt id="358">7.37107e-12</wgt>
  <wgt id="359">7.39112e-12</wgt>
  <wgt id="360">7.43881e-12</wgt>
  <wgt id="361">7.39862e-12</wgt>
  <wgt id="362">7.51776e-12</wgt>
  <wgt id="363">7.50185e-12</wgt>
  <wgt id="364">7.47615e-12</wgt>
  <wgt id="365">7.4526e-12</wgt>
  <wgt id="366">7.42779e-12</wgt>
  <wgt id="367">7.37643e-12</wgt>
  <wgt id="368">7.34639e-12</wgt>
  <wgt id="369">7.31415e-12</wgt>
  <wgt id="370">7.39862e-12</wgt>
  <wgt id="371">7.42841e-12</wgt>
  <wgt id="372">7.41159e-12</wgt>
  <wgt id="373">7.3871e-12</wgt>
  <wgt id="374">7.38923e-12</wgt>
  <wgt id="375">8.03675e-12</wgt>
  <wgt id="376">8.03635e-12</wgt>
  <wgt id="377">8.03629e-12</wgt>
  <wgt id="378">8.06533e-12</wgt>
  <wgt id="379">8.0079e-12</wgt>
  <wgt id="380">8.05969e-12</wgt>
  <wgt id="381">8.02704e-12</wgt>
  <wgt id="382">8.06939e-12</wgt>
  <wgt id="383">8.00391e-12</wgt>
  <wgt id="384">8.04142e-12</wgt>
  <wgt id="385">8.03176e-12</wgt>
  <wgt id="386">8.05994e-12</wgt>
  <wgt id="387">8.02627e-12</wgt>
  <wgt id="388">8.0302e-12</wgt>
  <wgt id="389">8.04387e-12</wgt>
  <wgt id="390">8.0537e-12</wgt>
  <wgt id="391">8.01806e-12</wgt>
  <wgt id="392">7.98217e-12</wgt>
  <wgt id="393">8.06718e-12</wgt>
  <wgt id="394">8.04416e-12</wgt>
  <wgt id="395">8.02606e-12</wgt>
  <wgt id="396">8.04238e-12</wgt>
  <wgt id="397">8.03207e-12</wgt>
  <wgt id="398">8.0233e-12</wgt>
  <wgt id="399">8.0491e-12</wgt>
  <wgt id="400">8.02812e-12</wgt>
  <wgt id="401">8.05443e-12</wgt>
  <wgt id="402">7.97793e-12</wgt>
  <wgt id="403">8.06531e-12</wgt>
  <wgt id="404">8.21692e-12</wgt>
  <wgt id="405">7.60194e-12</wgt>
  <wgt id="406">7.90385e-12</wgt>
  <wgt id="407">8.32595e-12</wgt>
  <wgt id="408">8.10381e-12</wgt>
  <wgt id="409">7.90847e-12</wgt>
  <wgt id="410">7.82038e-12</wgt>
  <wgt id="411">8.13778e-12</wgt>
  <wgt id="412">8.02161e-12</wgt>
  <wgt id="413">8.05698e-12</wgt>
  <wgt id="414">7.94958e-12</wgt>
  <wgt id="415">8.10338e-12</wgt>
  <wgt id="416">8.24169e-12</wgt>
  <wgt id="417">7.75108e-12</wgt>
  <wgt id="418">8.04911e-12</wgt>
  <wgt id="419">7.96828e-12</wgt>
  <wgt id="420">8.14718e-12</wgt>
  <wgt id="421">7.96836e-12</wgt>
  <wgt id="422">8.02071e-12</wgt>
  <wgt id="423">8.04452e-12</wgt>
  <wgt id="424">8.19245e-12</wgt>
  <wgt id="425">7.93354e-12</wgt>
  <wgt id="426">8.03675e-12</wgt>
  <wgt id="427">7.94816e-12</wgt>
  <wgt id="428">8.262e-12</wgt>
  <wgt id="429">8.10967e-12</wgt>
  <wgt id="430">8.32428e-12</wgt>
  <wgt id="431">8.28208e-12</wgt>
  <wgt id="432">8.24181e-12</wgt>
  <wgt id="433">8.20272e-12</wgt>
  <wgt id="434">8.15362e-12</wgt>
  <wgt id="435">8.05339e-12</wgt>
  <wgt id="436">8.00213e-12</wgt>
  <wgt id="437">7.95284e-12</wgt>
  <wgt id="438">8.10967e-12</wgt>
  <wgt id="439">8.13414e-12</wgt>
  <wgt id="440">8.11937e-12</wgt>
  <wgt id="441">8.10157e-12</wgt>
  <wgt id="442">8.09608e-12</wgt>
  <wgt id="443">7.71782e-12</wgt>
  <wgt id="444">7.77448e-12</wgt>
  <wgt id="445">7.75564e-12</wgt>
  <wgt id="446">7.66108e-12</wgt>
  <wgt id="447">7.71886e-12</wgt>
  <wgt id="448">7.54267e-12</wgt>
  <wgt id="449">7.83887e-12</wgt>
  <wgt id="450">7.76701e-12</wgt>
  <wgt id="451">7.7014e-12</wgt>
  <wgt id="452">7.86722e-12</wgt>
  <wgt id="453">7.7825e-12</wgt>
  <wgt id="454">7.40059e-12</wgt>
  <wgt id="455">7.75471e-12</wgt>
  <wgt id="456">7.7616e-12</wgt>
  <wgt id="457">7.73699e-12</wgt>
  <wgt id="458">7.83475e-12</wgt>
  <wgt id="459">7.78008e-12</wgt>
  <wgt id="460">7.81898e-12</wgt>
  <wgt id="461">7.57316e-12</wgt>
  <wgt id="462">7.67895e-12</wgt>
  <wgt id="463">7.61972e-12</wgt>
  <wgt id="464">7.68673e-12</wgt>
  <wgt id="465">7.78873e-12</wgt>
  <wgt id="466">7.60548e-12</wgt>
  <wgt id="467">7.65901e-12</wgt>
  <wgt id="468">7.70497e-12</wgt>
  <wgt id="469">7.70998e-12</wgt>
  <wgt id="470">7.63227e-12</wgt>
  <wgt id="471">7.64993e-12</wgt>
  <wgt id="472">7.75152e-12</wgt>
  <wgt id="473">7.52279e-12</wgt>
  <wgt id="474">5.79e-12</wgt>
  <wgt id="475">5.88742e-12</wgt>
  <wgt id="476">5.68662e-12</wgt>
  <wgt id="477">5.61096e-12</wgt>
  <wgt id="478">5.84191e-12</wgt>
  <wgt id="479">5.63741e-12</wgt>
  <wgt id="480">6.06567e-12</wgt>
  <wgt id="481">5.80596e-12</wgt>
  <wgt id="482">5.74552e-12</wgt>
  <wgt id="483">5.67239e-12</wgt>
  <wgt id="484">5.94356e-12</wgt>
  <wgt id="485">5.57777e-12</wgt>
  <wgt id="486">6.0868e-12</wgt>
  <wgt id="487">5.78058e-12</wgt>
  <wgt id="488">5.90602e-12</wgt>
  <wgt id="489">5.46928e-12</wgt>
  <wgt id="490">5.58308e-12</wgt>
  <wgt id="491">5.77978e-12</wgt>
  <wgt id="492">5.7204e-12</wgt>
  <wgt id="493">5.51295e-12</wgt>
  <wgt id="494">5.57053e-12</wgt>
  <wgt id="495">5.80542e-12</wgt>
  <wgt id="496">5.58955e-12</wgt>
  <wgt id="497">5.52525e-12</wgt>
  <wgt id="498">5.94903e-12</wgt>
  <wgt id="499">5.75474e-12</wgt>
  <wgt id="500">5.66872e-12</wgt>
  <wgt id="501">5.94324e-12</wgt>
  <wgt id="502">5.82709e-12</wgt>
  <wgt id="503">5.79879e-12</wgt>
  <wgt id="504">5.9396e-12</wgt>
  <wgt id="505">5.76277e-12</wgt>
  <wgt id="506">5.74428e-12</wgt>
  <wgt id="507">5.80086e-12</wgt>
  <wgt id="508">6.0167e-12</wgt>
  <wgt id="509">5.38633e-12</wgt>
  <wgt id="510">5.89839e-12</wgt>
  <wgt id="511">5.5877e-12</wgt>
  <wgt id="512">5.99054e-12</wgt>
  <wgt id="513">5.98409e-12</wgt>
  <wgt id="514">5.91119e-12</wgt>
  <wgt id="515">5.8008e-12</wgt>
  <wgt id="516">6.15618e-12</wgt>
  <wgt id="517">5.90975e-12</wgt>
  <wgt id="518">5.94306e-12</wgt>
  <wgt id="519">5.62028e-12</wgt>
  <wgt id="520">5.92859e-12</wgt>
  <wgt id="521">5.85142e-12</wgt>
  <wgt id="522">6.02025e-12</wgt>
  <wgt id="523">5.66266e-12</wgt>
  <wgt id="524">5.7327e-12</wgt>
  <wgt id="525">5.90258e-12</wgt>
  <wgt id="526">5.90478e-12</wgt>
  <wgt id="527">5.772e-12</wgt>
  <wgt id="528">5.82857e-12</wgt>
  <wgt id="529">5.69667e-12</wgt>
  <wgt id="530">5.96954e-12</wgt>
  <wgt id="531">5.67435e-12</wgt>
  <wgt id="532">6.13466e-12</wgt>
  <wgt id="533">5.62601e-12</wgt>
  <wgt id="534">5.74194e-12</wgt>
  <wgt id="535">5.78964e-12</wgt>
  <wgt id="536">5.78735e-12</wgt>
  <wgt id="537">5.70988e-12</wgt>
  <wgt id="538">5.81091e-12</wgt>
  <wgt id="539">5.70871e-12</wgt>
  <wgt id="540">5.85449e-12</wgt>
  <wgt id="541">5.64146e-12</wgt>
  <wgt id="542">5.75098e-12</wgt>
  <wgt id="543">5.76114e-12</wgt>
  <wgt id="544">5.96219e-12</wgt>
  <wgt id="545">5.63042e-12</wgt>
  <wgt id="546">5.49679e-12</wgt>
  <wgt id="547">5.67743e-12</wgt>
  <wgt id="548">5.56775e-12</wgt>
  <wgt id="549">5.71665e-12</wgt>
  <wgt id="550">5.65755e-12</wgt>
  <wgt id="551">5.85547e-12</wgt>
  <wgt id="552">5.5166e-12</wgt>
  <wgt id="553">5.66503e-12</wgt>
  <wgt id="554">6.1298e-12</wgt>
  <wgt id="555">5.9248e-12</wgt>
  <wgt id="556">5.58308e-12</wgt>
  <wgt id="557">5.9455e-12</wgt>
  <wgt id="558">5.69633e-12</wgt>
  <wgt id="559">5.62759e-12</wgt>
  <wgt id="560">6.32198e-12</wgt>
  <wgt id="561">5.78694e-12</wgt>
  <wgt id="562">6.00297e-12</wgt>
  <wgt id="563">5.98591e-12</wgt>
  <wgt id="564">6.01939e-12</wgt>
  <wgt id="565">5.73284e-12</wgt>
  <wgt id="566">5.84007e-12</wgt>
  <wgt id="567">5.76437e-12</wgt>
  <wgt id="568">5.73134e-12</wgt>
  <wgt id="569">5.93698e-12</wgt>
  <wgt id="570">5.53872e-12</wgt>
  <wgt id="571">6.32247e-12</wgt>
  <wgt id="572">5.71462e-12</wgt>
  <wgt id="573">5.62856e-12</wgt>
  <wgt id="574">5.64598e-12</wgt>
  <wgt id="575">6.32458e-12</wgt>
  <wgt id="576">6.55291e-12</wgt>
  <wgt id="577">6.54052e-12</wgt>
  <wgt id="578">6.54721e-12</wgt>
  <wgt id="579">6.54549e-12</wgt>
  <wgt id="580">6.61841e-12</wgt>
  <wgt id="581">6.85921e-12</wgt>
  <wgt id="582">6.55473e-12</wgt>
  <wgt id="583">6.40235e-12</wgt>
  <wgt id="584">6.28074e-12</wgt>
  <wgt id="585">6.11052e-12</wgt>
  <wgt id="586">6.09398e-12</wgt>
  <wgt id="587">6.45157e-12</wgt>
  <wgt id="588">6.46974e-12</wgt>
  <wgt id="589">6.61324e-12</wgt>
  <wgt id="590">6.30221e-12</wgt>
  <wgt id="591">6.52995e-12</wgt>
  <wgt id="592">5.86358e-12</wgt>
  <wgt id="593">6.22221e-12</wgt>
  <wgt id="594">6.39703e-12</wgt>
  <wgt id="595">6.43277e-12</wgt>
  <wgt id="596">6.76187e-12</wgt>
  <wgt id="597">6.30655e-12</wgt>
  <wgt id="598">6.07223e-12</wgt>
  <wgt id="599">6.63698e-12</wgt>
  <wgt id="600">6.42891e-12</wgt>
  <wgt id="601">6.13639e-12</wgt>
  <wgt id="602">6.12987e-12</wgt>
  <wgt id="603">6.07892e-12</wgt>
  <wgt id="604">6.43363e-12</wgt>
  <wgt id="605">6.49694e-12</wgt>
  <wgt id="606">6.40763e-12</wgt>
  <wgt id="607">6.39777e-12</wgt>
  <wgt id="608">6.50012e-12</wgt>
  <wgt id="609">6.1825e-12</wgt>
  <wgt id="610">6.0932e-12</wgt>
  <wgt id="611">6.17348e-12</wgt>
  <wgt id="612">6.58512e-12</wgt>
  <wgt id="613">6.22603e-12</wgt>
  <wgt id="614">6.33029e-12</wgt>
  <wgt id="615">6.31465e-12</wgt>
  <wgt id="616">6.41263e-12</wgt>
  <wgt id="617">6.5164e-12</wgt>
  <wgt id="618">6.86606e-12</wgt>
  <wgt id="619">6.23109e-12</wgt>
  <wgt id="620">6.57237e-12</wgt>
  <wgt id="621">6.29883e-12</wgt>
  <wgt id="622">6.45157e-12</wgt>
  <wgt id="623">6.46796e-12</wgt>
  <wgt id="624">6.36992e-12</wgt>
  <wgt id="625">6.17093e-12</wgt>
  <wgt id="626">5.97006e-12</wgt>
  <wgt id="627">5.96837e-12</wgt>
  <wgt id="628">6.39119e-12</wgt>
  <wgt id="629">6.29915e-12</wgt>
  <wgt id="630">6.01651e-12</wgt>
  <wgt id="631">6.40056e-12</wgt>
  <wgt id="632">5.95248e-12</wgt>
  <wgt id="633">6.31201e-12</wgt>
  <wgt id="634">6.13685e-12</wgt>
  <wgt id="635">5.95493e-12</wgt>
  <wgt id="636">6.42589e-12</wgt>
  <wgt id="637">6.2458e-12</wgt>
  <wgt id="638">6.11641e-12</wgt>
  <wgt id="639">6.19606e-12</wgt>
  <wgt id="640">6.29311e-12</wgt>
  <wgt id="641">6.51743e-12</wgt>
  <wgt id="642">5.92957e-12</wgt>
  <wgt id="643">6.24062e-12</wgt>
  <wgt id="644">5.77872e-12</wgt>
  <wgt id="645">6.3407e-12</wgt>
  <wgt id="646">6.08658e-12</wgt>
  <wgt id="647">6.31603e-12</wgt>
  <wgt id="648">6.48357e-12</wgt>
  <wgt id="649">6.34653e-12</wgt>
  <wgt id="650">6.11954e-12</wgt>
  <wgt id="651">6.5981e-12</wgt>
  <wgt id="652">6.16124e-12</wgt>
  <wgt id="653">6.08704e-12</wgt>
  <wgt id="654">6.19585e-12</wgt>
  <wgt id="655">6.26946e-12</wgt>
  <wgt id="656">6.36501e-12</wgt>
  <wgt id="657">6.8425e-12</wgt>
  <wgt id="658">6.22353e-12</wgt>
  <wgt id="659">6.08371e-12</wgt>
  <wgt id="660">6.34127e-12</wgt>
  <wgt id="661">6.2364e-12</wgt>
  <wgt id="662">6.302e-12</wgt>
  <wgt id="663">6.4056e-12</wgt>
  <wgt id="664">6.33448e-12</wgt>
  <wgt id="665">6.32573e-12</wgt>
  <wgt id="666">6.22798e-12</wgt>
  <wgt id="667">6.57871e-12</wgt>
  <wgt id="668">6.31003e-12</wgt>
  <wgt id="669">6.4172e-12</wgt>
  <wgt id="670">6.54894e-12</wgt>
  <wgt id="671">6.36195e-12</wgt>
  <wgt id="672">6.09982e-12</wgt>
  <wgt id="673">6.50938e-12</wgt>
  <wgt id="674">6.17354e-12</wgt>
  <wgt id="675">6.27678e-12</wgt>
  <wgt id="676">7.95562e-12</wgt>
  <wgt id="677">8.08049e-12</wgt>
  <wgt id="678">8.42129e-12</wgt>
  <wgt id="679">7.71281e-12</wgt>
  <wgt id="680">7.93829e-12</wgt>
  <wgt id="681">7.9726e-12</wgt>
  <wgt id="682">8.31295e-12</wgt>
  <wgt id="683">7.68074e-12</wgt>
  <wgt id="684">8.24627e-12</wgt>
  <wgt id="685">7.83877e-12</wgt>
  <wgt id="686">7.67302e-12</wgt>
  <wgt id="687">8.12135e-12</wgt>
  <wgt id="688">7.84944e-12</wgt>
  <wgt id="689">8.28982e-12</wgt>
  <wgt id="690">8.12913e-12</wgt>
  <wgt id="691">8.31059e-12</wgt>
  <wgt id="692">7.85702e-12</wgt>
  <wgt id="693">9.56427e-12</wgt>
  <wgt id="694">8.51199e-12</wgt>
  <wgt id="695">7.72024e-12</wgt>
  <wgt id="696">7.80039e-12</wgt>
  <wgt id="697">7.62061e-12</wgt>
  <wgt id="698">7.03301e-12</wgt>
  <wgt id="699">7.11015e-12</wgt>
  <wgt id="700">7.09373e-12</wgt>
  <wgt id="701">7.93495e-12</wgt>
  <wgt id="702">7.90751e-12</wgt>
  <wgt id="703">9.17406e-12</wgt>
  <wgt id="704">8.73334e-12</wgt>
  <wgt id="705">8.65184e-12</wgt>
  <wgt id="706">7.6623e-12</wgt>
  <wgt id="707">7.6053e-12</wgt>
  <wgt id="708">7.73165e-12</wgt>
  <wgt id="709">7.74254e-12</wgt>
  <wgt id="710">7.30786e-12</wgt>
  <wgt id="711">7.9715e-12</wgt>
  <wgt id="712">7.63294e-12</wgt>
  <wgt id="713">8.56061e-12</wgt>
  <wgt id="714">7.52758e-12</wgt>
  <wgt id="715">7.81572e-12</wgt>
  <wgt id="716">7.67692e-12</wgt>
  <wgt id="717">7.39045e-12</wgt>
  <wgt id="718">8.11571e-12</wgt>
  <wgt id="719">7.28299e-12</wgt>
  <wgt id="720">7.80218e-12</wgt>
  <wgt id="721">7.04316e-12</wgt>
  <wgt id="722">6.90216e-12</wgt>
  <wgt id="723">8.55977e-12</wgt>
  <wgt id="724">8.40875e-12</wgt>
  <wgt id="725">8.24208e-12</wgt>
  <wgt id="726">7.92153e-12</wgt>
  <wgt id="727">7.86191e-12</wgt>
  <wgt id="728">7.67907e-12</wgt>
  <wgt id="729">7.7581e-12</wgt>
  <wgt id="730">8.54028e-12</wgt>
  <wgt id="731">7.77228e-12</wgt>
  <wgt id="732">8.83271e-12</wgt>
  <wgt id="733">7.69554e-12</wgt>
  <wgt id="734">8.09586e-12</wgt>
  <wgt id="735">8.11191e-12</wgt>
  <wgt id="736">7.63127e-12</wgt>
  <wgt id="737">7.89296e-12</wgt>
  <wgt id="738">7.64733e-12</wgt>
  <wgt id="739">8.31946e-12</wgt>
  <wgt id="740">8.86641e-12</wgt>
  <wgt id="741">7.53582e-12</wgt>
  <wgt id="742">7.85216e-12</wgt>
  <wgt id="743">7.55463e-12</wgt>
  <wgt id="744">7.78904e-12</wgt>
  <wgt id="745">8.30998e-12</wgt>
  <wgt id="746">8.49881e-12</wgt>
  <wgt id="747">6.97666e-12</wgt>
  <wgt id="748">7.87997e-12</wgt>
  <wgt id="749">8.17262e-12</wgt>
  <wgt id="750">8.49232e-12</wgt>
  <wgt id="751">8.01584e-12</wgt>
  <wgt id="752">7.30276e-12</wgt>
  <wgt id="753">7.4245e-12</wgt>
  <wgt id="754">8.32396e-12</wgt>
  <wgt id="755">7.8814e-12</wgt>
  <wgt id="756">7.85637e-12</wgt>
  <wgt id="757">7.21681e-12</wgt>
  <wgt id="758">7.80408e-12</wgt>
  <wgt id="759">8.69494e-12</wgt>
  <wgt id="760">7.82422e-12</wgt>
  <wgt id="761">8.43852e-12</wgt>
  <wgt id="762">8.46897e-12</wgt>
  <wgt id="763">7.92875e-12</wgt>
  <wgt id="764">8.27963e-12</wgt>
  <wgt id="765">8.16529e-12</wgt>
  <wgt id="766">7.96289e-12</wgt>
  <wgt id="767">8.08769e-12</wgt>
  <wgt id="768">7.4199e-12</wgt>
  <wgt id="769">8.38292e-12</wgt>
  <wgt id="770">7.80682e-12</wgt>
  <wgt id="771">9.26427e-12</wgt>
  <wgt id="772">7.69309e-12</wgt>
  <wgt id="773">7.89744e-12</wgt>
  <wgt id="774">6.76705e-12</wgt>
  <wgt id="775">8.31451e-12</wgt>
  <wgt id="776">8.62228e-12</wgt>
  <wgt id="777">7.39402e-12</wgt>
  <wgt id="778">5.72374e-12</wgt>
  <wgt id="779">4.33266e-12</wgt>
  <wgt id="780">3.25258e-12</wgt>
  <wgt id="781">6.59688e-12</wgt>
  <wgt id="782">6.35266e-12</wgt>
  <wgt id="783">4.24747e-12</wgt>
  <wgt id="784">4.70247e-12</wgt>
  <wgt id="785">7.46812e-12</wgt>
  <wgt id="786">4.21627e-12</wgt>
  <wgt id="787">6.71911e-12</wgt>
  <wgt id="788">2.85152e-12</wgt>
  <wgt id="789">4.80635e-12</wgt>
  <wgt id="790">4.10063e-12</wgt>
  <wgt id="791">5.97741e-12</wgt>
  <wgt id="792">7.63897e-12</wgt>
  <wgt id="793">5.64988e-12</wgt>
  <wgt id="794">3.89817e-12</wgt>
  <wgt id="795">6.97453e-12</wgt>
  <wgt id="796">7.66886e-12</wgt>
  <wgt id="797">7.02404e-12</wgt>
  <wgt id="798">4.8487e-12</wgt>
  <wgt id="799">6.57864e-12</wgt>
  <wgt id="800">4.81425e-12</wgt>
  <wgt id="801">5.25615e-12</wgt>
  <wgt id="802">3.88636e-12</wgt>
  <wgt id="803">8.30016e-12</wgt>
  <wgt id="804">7.12695e-12</wgt>
  <wgt id="805">6.87147e-12</wgt>
  <wgt id="806">6.23708e-12</wgt>
  <wgt id="807">5.49106e-12</wgt>
  <wgt id="808">5.41498e-12</wgt>
  <wgt id="809">5.38314e-12</wgt>
  <wgt id="810">6.19869e-12</wgt>
  <wgt id="811">6.0365e-12</wgt>
  <wgt id="812">4.06716e-12</wgt>
  <wgt id="813">4.25828e-12</wgt>
  <wgt id="814">4.60291e-12</wgt>
  <wgt id="815">4.27093e-12</wgt>
  <wgt id="816">4.15709e-12</wgt>
  <wgt id="817">5.77213e-12</wgt>
  <wgt id="818">6.39906e-12</wgt>
  <wgt id="819">4.32788e-12</wgt>
  <wgt id="820">5.57971e-12</wgt>
  <wgt id="821">6.51727e-12</wgt>
  <wgt id="822">4.62942e-12</wgt>
  <wgt id="823">6.76546e-12</wgt>
  <wgt id="824">7.94359e-12</wgt>
  <wgt id="825">3.79637e-12</wgt>
  <wgt id="826">6.41152e-12</wgt>
  <wgt id="827">3.28337e-12</wgt>
  <wgt id="828">7.22815e-12</wgt>
  <wgt id="829">5.85841e-12</wgt>
  <wgt id="830">3.63669e-12</wgt>
  <wgt id="831">6.31188e-12</wgt>
  <wgt id="832">9.47468e-12</wgt>
  <wgt id="833">5.00607e-12</wgt>
  <wgt id="834">9.12466e-12</wgt>
  <wgt id="835">4.60404e-12</wgt>
  <wgt id="836">5.30339e-12</wgt>
  <wgt id="837">6.44883e-12</wgt>
  <wgt id="838">5.08896e-12</wgt>
  <wgt id="839">6.26459e-12</wgt>
  <wgt id="840">5.14619e-12</wgt>
  <wgt id="841">7.3362e-12</wgt>
  <wgt id="842">5.38972e-12</wgt>
  <wgt id="843">5.95294e-12</wgt>
  <wgt id="844">6.0528e-12</wgt>
  <wgt id="845">9.07784e-12</wgt>
  <wgt id="846">6.05095e-12</wgt>
  <wgt id="847">6.0019e-12</wgt>
  <wgt id="848">4.42281e-12</wgt>
  <wgt id="849">5.94868e-12</wgt>
  <wgt id="850">7.72029e-12</wgt>
  <wgt id="851">6.3951e-12</wgt>
  <wgt id="852">4.17042e-12</wgt>
  <wgt id="853">6.53154e-12</wgt>
  <wgt id="854">7.2345e-12</wgt>
  <wgt id="855">6.53433e-12</wgt>
  <wgt id="856">3.65085e-12</wgt>
  <wgt id="857">5.39028e-12</wgt>
  <wgt id="858">5.3489e-12</wgt>
  <wgt id="859">5.46862e-12</wgt>
  <wgt id="860">6.62566e-12</wgt>
  <wgt id="861">4.98241e-12</wgt>
  <wgt id="862">5.73415e-12</wgt>
  <wgt id="863">6.23485e-12</wgt>
  <wgt id="864">6.02636e-12</wgt>
  <wgt id="865">8.19094e-12</wgt>
  <wgt id="866">9.22571e-12</wgt>
  <wgt id="867">5.79262e-12</wgt>
  <wgt id="868">5.5939e-12</wgt>
  <wgt id="869">4.09238e-12</wgt>
  <wgt id="870">4.40192e-12</wgt>
  <wgt id="871">4.30222e-12</wgt>
  <wgt id="872">7.20224e-12</wgt>
  <wgt id="873">4.81443e-12</wgt>
  <wgt id="874">6.10035e-12</wgt>
  <wgt id="875">4.84159e-12</wgt>
  <wgt id="876">7.03482e-12</wgt>
  <wgt id="877">6.37467e-12</wgt>
  <wgt id="878">4.70221e-12</wgt>
  <wgt id="879">7.95562e-12</wgt>
  <wgt id="880">8.08049e-12</wgt>
  <wgt id="881">8.42129e-12</wgt>
  <wgt id="882">7.71281e-12</wgt>
  <wgt id="883">7.93829e-12</wgt>
  <wgt id="884">7.9726e-12</wgt>
  <wgt id="885">8.31295e-12</wgt>
  <wgt id="886">7.68074e-12</wgt>
  <wgt id="887">8.24627e-12</wgt>
  <wgt id="888">7.83877e-12</wgt>
  <wgt id="889">7.67302e-12</wgt>
  <wgt id="890">8.12135e-12</wgt>
  <wgt id="891">7.84944e-12</wgt>
  <wgt id="892">8.28982e-12</wgt>
  <wgt id="893">8.12913e-12</wgt>
  <wgt id="894">8.31059e-12</wgt>
  <wgt id="895">7.85702e-12</wgt>
  <wgt id="896">9.56427e-12</wgt>
  <wgt id="897">8.51199e-12</wgt>
  <wgt id="898">7.72024e-12</wgt>
  <wgt id="899">7.80039e-12</wgt>
  <wgt id="900">7.62061e-12</wgt>
  <wgt id="901">7.03301e-12</wgt>
  <wgt id="902">7.11015e-12</wgt>
  <wgt id="903">7.09373e-12</wgt>
  <wgt id="904">7.93495e-12</wgt>
  <wgt id="905">7.90751e-12</wgt>
  <wgt id="906">9.17406e-12</wgt>
  <wgt id="907">8.73334e-12</wgt>
  <wgt id="908">8.65184e-12</wgt>
  <wgt id="909">7.6623e-12</wgt>
  <wgt id="910">7.6053e-12</wgt>
  <wgt id="911">7.73165e-12</wgt>
  <wgt id="912">7.74254e-12</wgt>
  <wgt id="913">7.30786e-12</wgt>
  <wgt id="914">7.9715e-12</wgt>
  <wgt id="915">7.63294e-12</wgt>
  <wgt id="916">8.56061e-12</wgt>
  <wgt id="917">7.52758e-12</wgt>
  <wgt id="918">7.81572e-12</wgt>
  <wgt id="919">7.67692e-12</wgt>
  <wgt id="920">7.39045e-12</wgt>
  <wgt id="921">8.11571e-12</wgt>
  <wgt id="922">7.28299e-12</wgt>
  <wgt id="923">7.80218e-12</wgt>
  <wgt id="924">7.04316e-12</wgt>
  <wgt id="925">6.90216e-12</wgt>
  <wgt id="926">8.55977e-12</wgt>
  <wgt id="927">8.40875e-12</wgt>
  <wgt id="928">8.24208e-12</wgt>
  <wgt id="929">7.92153e-12</wgt>
  <wgt id="930">7.86191e-12</wgt>
  <wgt id="931">7.67907e-12</wgt>
  <wgt id="932">7.7581e-12</wgt>
  <wgt id="933">8.54028e-12</wgt>
  <wgt id="934">7.77228e-12</wgt>
  <wgt id="935">8.83271e-12</wgt>
  <wgt id="936">7.69554e-12</wgt>
  <wgt id="937">8.09586e-12</wgt>
  <wgt id="938">8.11191e-12</wgt>
  <wgt id="939">7.63127e-12</wgt>
  <wgt id="940">7.89296e-12</wgt>
  <wgt id="941">7.64733e-12</wgt>
  <wgt id="942">8.31946e-12</wgt>
  <wgt id="943">8.86641e-12</wgt>
  <wgt id="944">7.53582e-12</wgt>
  <wgt id="945">7.85216e-12</wgt>
  <wgt id="946">7.55463e-12</wgt>
  <wgt id="947">7.78904e-12</wgt>
  <wgt id="948">8.30998e-12</wgt>
  <wgt id="949">8.49881e-12</wgt>
  <wgt id="950">6.97666e-12</wgt>
  <wgt id="951">7.87997e-12</wgt>
  <wgt id="952">8.17262e-12</wgt>
  <wgt id="953">8.49232e-12</wgt>
  <wgt id="954">8.01584e-12</wgt>
  <wgt id="955">7.30276e-12</wgt>
  <wgt id="956">7.4245e-12</wgt>
  <wgt id="957">8.32396e-12</wgt>
  <wgt id="958">7.8814e-12</wgt>
  <wgt id="959">7.85637e-12</wgt>
  <wgt id="960">7.21681e-12</wgt>
  <wgt id="961">7.80408e-12</wgt>
  <wgt id="962">8.69494e-12</wgt>
  <wgt id="963">7.82422e-12</wgt>
  <wgt id="964">8.43852e-12</wgt>
  <wgt id="965">8.46897e-12</wgt>
  <wgt id="966">7.92875e-12</wgt>
  <wgt id="967">8.27963e-12</wgt>
  <wgt id="968">8.16529e-12</wgt>
  <wgt id="969">7.96289e-12</wgt>
  <wgt id="970">8.08769e-12</wgt>
  <wgt id="971">7.4199e-12</wgt>
  <wgt id="972">8.38292e-12</wgt>
  <wgt id="973">7.80682e-12</wgt>
  <wgt id="974">9.26427e-12</wgt>
  <wgt id="975">7.69309e-12</wgt>
  <wgt id="976">7.89744e-12</wgt>
  <wgt id="977">6.76705e-12</wgt>
  <wgt id="978">8.31451e-12</wgt>
  <wgt id="979">8.62228e-12</wgt>
  <wgt id="980">7.92387e-12</wgt>
  <wgt id="981">8.02299e-12</wgt>
  <wgt id="982">7.70401e-12</wgt>
</rwgt>
</event>
<event>
 5   1  0.5790000E-11  0.2275898E+04  0.7818608E-02  0.7720872E-01
       21   -1    0    0  502  501  0.00000000000E+00  0.00000000000E+00  0.21729163185E+04  0.21729163185E+04  0.00000000000E+00 0. -1.
       21   -1    0    0  501  502 -0.00000000000E+00 -0.00000000000E+00 -0.59593986641E+03  0.59593986641E+03  0.00000000000E+00 0.  1.
       39    2    1    2    0    0  0.00000000000E+00  0.00000000000E+00  0.15769764521E+04  0.27688561849E+04  0.22758975905E+04 0.  0.
       25    1    3    3    0    0  0.93671163347E+03 -0.56978586674E+03  0.45041831913E+03  0.11918835012E+04  0.12500000000E+03 0.  0.
       25    1    3    3    0    0 -0.93671163347E+03  0.56978586674E+03  0.11265581329E+04  0.15769726837E+04  0.12500000000E+03 0.  0.
<mgrwt>
<rscale>  0 0.22758976E+04</rscale>
<asrwt>0</asrwt>
<pdfrwt beam="1">  1       21 0.33429481E+00 0.22758976E+04</pdfrwt>
<pdfrwt beam="2">  1       21 0.91683057E-01 0.22758976E+04</pdfrwt>
<totfact> 0.75295737E+00</totfact>
</mgrwt>
<rwgt>
  <wgt id="1">5.79e-12</wgt>
  <wgt id="2">4.99472e-12</wgt>
  <wgt id="3">6.78762e-12</wgt>
  <wgt id="4">5.79e-12</wgt>
  <wgt id="5">4.99472e-12</wgt>
  <wgt id="6">6.78762e-12</wgt>
  <wgt id="7">5.79e-12</wgt>
  <wgt id="8">4.99472e-12</wgt>
  <wgt id="9">6.78762e-12</wgt>
  <wgt id="10">6.10266e-12</wgt>
  <wgt id="11">6.10158e-12</wgt>
  <wgt id="12">6.08688e-12</wgt>
  <wgt id="13">6.09155e-12</wgt>
  <wgt id="14">6.1215e-12</wgt>
  <wgt id="15">6.11233e-12</wgt>
  <wgt id="16">6.08607e-12</wgt>
  <wgt id="17">6.13876e-12</wgt>
  <wgt id="18">6.0981e-12</wgt>
  <wgt id="19">6.12936e-12</wgt>
  <wgt id="20">6.10267e-12</wgt>
  <wgt id="21">6.05174e-12</wgt>
  <wgt id="22">6.05535e-12</wgt>
  <wgt id="23">6.00215e-12</wgt>
  <wgt id="24">6.05209e-12</wgt>
  <wgt id="25">6.07854e-12</wgt>
  <wgt id="26">6.11854e-12</wgt>
  <wgt id="27">6.08902e-12</wgt>
  <wgt id="28">6.06101e-12</wgt>
  <wgt id="29">6.10415e-12</wgt>
  <wgt id="30">6.04703e-12</wgt>
  <wgt id="31">6.13054e-12</wgt>
  <wgt id="32">6.04938e-12</wgt>
  <wgt id="33">6.10958e-12</wgt>
  <wgt id="34">6.05866e-12</wgt>
  <wgt id="35">6.05347e-12</wgt>
  <wgt id="36">6.13388e-12</wgt>
  <wgt id="37">6.08099e-12</wgt>
  <wgt id="38">6.07439e-12</wgt>
  <wgt id="39">6.22018e-12</wgt>
  <wgt id="40">6.11052e-12</wgt>
  <wgt id="41">6.09868e-12</wgt>
  <wgt id="42">6.11624e-12</wgt>
  <wgt id="43">6.10932e-12</wgt>
  <wgt id="44">6.1417e-12</wgt>
  <wgt id="45">6.10963e-12</wgt>
  <wgt id="46">6.07311e-12</wgt>
  <wgt id="47">6.17422e-12</wgt>
  <wgt id="48">6.14495e-12</wgt>
  <wgt id="49">6.0649e-12</wgt>
  <wgt id="50">6.04045e-12</wgt>
  <wgt id="51">6.05658e-12</wgt>
  <wgt id="52">6.11848e-12</wgt>
  <wgt id="53">6.17614e-12</wgt>
  <wgt id="54">6.13988e-12</wgt>
  <wgt id="55">6.09686e-12</wgt>
  <wgt id="56">6.06132e-12</wgt>
  <wgt id="57">6.05633e-12</wgt>
  <wgt id="58">6.10096e-12</wgt>
  <wgt id="59">6.11765e-12</wgt>
  <wgt id="60">6.04294e-12</wgt>
  <wgt id="61">6.0719e-12</wgt>
  <wgt id="62">6.09481e-12</wgt>
  <wgt id="63">6.09779e-12</wgt>
  <wgt id="64">6.09634e-12</wgt>
  <wgt id="65">6.0709e-12</wgt>
  <wgt id="66">6.11319e-12</wgt>
  <wgt id="67">6.10356e-12</wgt>
  <wgt id="68">6.10033e-12</wgt>
  <wgt id="69">6.08915e-12</wgt>
  <wgt id="70">6.07825e-12</wgt>
  <wgt id="71">6.10408e-12</wgt>
  <wgt id="72">6.07201e-12</wgt>
  <wgt id="73">6.12429e-12</wgt>
  <wgt id="74">6.1309e-12</wgt>
  <wgt id="75">6.09537e-12</wgt>
  <wgt id="76">6.14668e-12</wgt>
  <wgt id="77">6.0901e-12</wgt>
  <wgt id="78">6.09719e-12</wgt>
  <wgt id="79">6.11798e-12</wgt>
  <wgt id="80">6.04795e-12</wgt>
  <wgt id="81">6.09938e-12</wgt>
  <wgt id="82">6.10921e-12</wgt>
  <wgt id="83">6.06001e-12</wgt>
  <wgt id="84">6.07755e-12</wgt>
  <wgt id="85">6.075e-12</wgt>
  <wgt id="86">6.1316e-12</wgt>
  <wgt id="87">6.03891e-12</wgt>
  <wgt id="88">6.12336e-12</wgt>
  <wgt id="89">6.11646e-12</wgt>
  <wgt id="90">6.12598e-12</wgt>
  <wgt id="91">6.11078e-12</wgt>
  <wgt id="92">6.12226e-12</wgt>
  <wgt id="93">6.10956e-12</wgt>
  <wgt id="94">6.08304e-12</wgt>
  <wgt id="95">6.12352e-12</wgt>
  <wgt id="96">6.12101e-12</wgt>
  <wgt id="97">6.07539e-12</wgt>
  <wgt id="98">6.10258e-12</wgt>
  <wgt id="99">6.09613e-12</wgt>
  <wgt id="100">6.11655e-12</wgt>
  <wgt id="101">6.09174e-12</wgt>
  <wgt id="102">6.08929e-12</wgt>
  <wgt id="103">6.12686e-12</wgt>
  <wgt id="104">6.09051e-12</wgt>
  <wgt id="105">6.11888e-12</wgt>
  <wgt id="106">6.08477e-12</wgt>
  <wgt id="107">6.14247e-12</wgt>
  <wgt id="108">6.08983e-12</wgt>
  <wgt id="109">6.10633e-12</wgt>
  <wgt id="110">6.10099e-12</wgt>
  <wgt id="111">6.09511e-12</wgt>
  <wgt id="112">6.18912e-12</wgt>
  <wgt id="113">8.82917e-12</wgt>
  <wgt id="114">8.10913e-12</wgt>
  <wgt id="115">7.9534e-12</wgt>
  <wgt id="116">1.092e-11</wgt>
  <wgt id="117">6.70246e-12</wgt>
  <wgt id="118">6.7272e-12</wgt>
  <wgt id="119">6.68829e-12</wgt>
  <wgt id="120">6.70256e-12</wgt>
  <wgt id="121">6.70232e-12</wgt>
  <wgt id="122">6.69201e-12</wgt>
  <wgt id="123">6.71695e-12</wgt>
  <wgt id="124">6.69363e-12</wgt>
  <wgt id="125">6.70817e-12</wgt>
  <wgt id="126">6.71164e-12</wgt>
  <wgt id="127">6.69633e-12</wgt>
  <wgt id="128">6.7228e-12</wgt>
  <wgt id="129">6.68225e-12</wgt>
  <wgt id="130">6.73462e-12</wgt>
  <wgt id="131">6.66902e-12</wgt>
  <wgt id="132">6.51589e-12</wgt>
  <wgt id="133">6.92475e-12</wgt>
  <wgt id="134">6.63086e-12</wgt>
  <wgt id="135">6.75869e-12</wgt>
  <wgt id="136">6.80685e-12</wgt>
  <wgt id="137">6.57705e-12</wgt>
  <wgt id="138">7.01184e-12</wgt>
  <wgt id="139">6.40943e-12</wgt>
  <wgt id="140">6.6718e-12</wgt>
  <wgt id="141">6.72538e-12</wgt>
  <wgt id="142">6.70049e-12</wgt>
  <wgt id="143">6.72429e-12</wgt>
  <wgt id="144">6.41601e-12</wgt>
  <wgt id="145">6.98202e-12</wgt>
  <wgt id="146">6.79466e-12</wgt>
  <wgt id="147">6.62669e-12</wgt>
  <wgt id="148">6.72725e-12</wgt>
  <wgt id="149">6.70064e-12</wgt>
  <wgt id="150">6.7585e-12</wgt>
  <wgt id="151">6.67617e-12</wgt>
  <wgt id="152">6.70404e-12</wgt>
  <wgt id="153">6.70184e-12</wgt>
  <wgt id="154">6.71367e-12</wgt>
  <wgt id="155">6.67483e-12</wgt>
  <wgt id="156">6.93905e-12</wgt>
  <wgt id="157">6.48871e-12</wgt>
  <wgt id="158">8.02636e-12</wgt>
  <wgt id="159">8.06077e-12</wgt>
  <wgt id="160">7.99872e-12</wgt>
  <wgt id="161">8.00622e-12</wgt>
  <wgt id="162">8.04902e-12</wgt>
  <wgt id="163">8.01737e-12</wgt>
  <wgt id="164">8.03972e-12</wgt>
  <wgt id="165">8.02925e-12</wgt>
  <wgt id="166">8.02425e-12</wgt>
  <wgt id="167">8.02086e-12</wgt>
  <wgt id="168">8.03421e-12</wgt>
  <wgt id="169">7.99359e-12</wgt>
  <wgt id="170">8.0468e-12</wgt>
  <wgt id="171">8.021e-12</wgt>
  <wgt id="172">8.03403e-12</wgt>
  <wgt id="173">8.0104e-12</wgt>
  <wgt id="174">8.03207e-12</wgt>
  <wgt id="175">7.79244e-12</wgt>
  <wgt id="176">8.33313e-12</wgt>
  <wgt id="177">8.06255e-12</wgt>
  <wgt id="178">7.99363e-12</wgt>
  <wgt id="179">8.44238e-12</wgt>
  <wgt id="180">7.38683e-12</wgt>
  <wgt id="181">7.75506e-12</wgt>
  <wgt id="182">8.20769e-12</wgt>
  <wgt id="183">7.86182e-12</wgt>
  <wgt id="184">8.10822e-12</wgt>
  <wgt id="185">7.93454e-12</wgt>
  <wgt id="186">8.1371e-12</wgt>
  <wgt id="187">7.9336e-12</wgt>
  <wgt id="188">8.18992e-12</wgt>
  <wgt id="189">7.96241e-12</wgt>
  <wgt id="190">8.05254e-12</wgt>
  <wgt id="191">8.05593e-12</wgt>
  <wgt id="192">8.00891e-12</wgt>
  <wgt id="193">8.16325e-12</wgt>
  <wgt id="194">7.95739e-12</wgt>
  <wgt id="195">7.72789e-12</wgt>
  <wgt id="196">8.51213e-12</wgt>
  <wgt id="197">8.06965e-12</wgt>
  <wgt id="198">8.0159e-12</wgt>
  <wgt id="199">8.02636e-12</wgt>
  <wgt id="200">8.10543e-12</wgt>
  <wgt id="201">8.07885e-12</wgt>
  <wgt id="202">8.05291e-12</wgt>
  <wgt id="203">8.01623e-12</wgt>
  <wgt id="204">7.99749e-12</wgt>
  <wgt id="205">7.98194e-12</wgt>
  <wgt id="206">7.86212e-12</wgt>
  <wgt id="207">7.90902e-12</wgt>
  <wgt id="208">7.81518e-12</wgt>
  <wgt id="209">7.88514e-12</wgt>
  <wgt id="210">7.8452e-12</wgt>
  <wgt id="211">7.85946e-12</wgt>
  <wgt id="212">7.86409e-12</wgt>
  <wgt id="213">7.86119e-12</wgt>
  <wgt id="214">7.86294e-12</wgt>
  <wgt id="215">7.86788e-12</wgt>
  <wgt id="216">7.858e-12</wgt>
  <wgt id="217">7.87925e-12</wgt>
  <wgt id="218">7.84838e-12</wgt>
  <wgt id="219">7.85166e-12</wgt>
  <wgt id="220">7.86835e-12</wgt>
  <wgt id="221">7.8656e-12</wgt>
  <wgt id="222">7.85146e-12</wgt>
  <wgt id="223">7.41006e-12</wgt>
  <wgt id="224">8.27662e-12</wgt>
  <wgt id="225">7.76432e-12</wgt>
  <wgt id="226">7.98645e-12</wgt>
  <wgt id="227">7.78638e-12</wgt>
  <wgt id="228">7.89536e-12</wgt>
  <wgt id="229">7.74848e-12</wgt>
  <wgt id="230">7.9183e-12</wgt>
  <wgt id="231">8.13446e-12</wgt>
  <wgt id="232">7.63938e-12</wgt>
  <wgt id="233">7.81099e-12</wgt>
  <wgt id="234">7.94779e-12</wgt>
  <wgt id="235">7.52065e-12</wgt>
  <wgt id="236">8.13984e-12</wgt>
  <wgt id="237">7.66454e-12</wgt>
  <wgt id="238">7.92765e-12</wgt>
  <wgt id="239">7.78271e-12</wgt>
  <wgt id="240">8.00443e-12</wgt>
  <wgt id="241">7.76401e-12</wgt>
  <wgt id="242">7.9774e-12</wgt>
  <wgt id="243">8.00331e-12</wgt>
  <wgt id="244">7.85876e-12</wgt>
  <wgt id="245">7.85931e-12</wgt>
  <wgt id="246">7.9041e-12</wgt>
  <wgt id="247">7.86212e-12</wgt>
  <wgt id="248">7.94819e-12</wgt>
  <wgt id="249">7.91904e-12</wgt>
  <wgt id="250">7.88776e-12</wgt>
  <wgt id="251">7.84626e-12</wgt>
  <wgt id="252">7.82464e-12</wgt>
  <wgt id="253">7.81015e-12</wgt>
  <wgt id="254">7.5671e-12</wgt>
  <wgt id="255">7.57352e-12</wgt>
  <wgt id="256">7.5598e-12</wgt>
  <wgt id="257">7.57302e-12</wgt>
  <wgt id="258">7.56273e-12</wgt>
  <wgt id="259">7.6179e-12</wgt>
  <wgt id="260">7.51819e-12</wgt>
  <wgt id="261">7.57906e-12</wgt>
  <wgt id="262">7.55313e-12</wgt>
  <wgt id="263">7.56127e-12</wgt>
  <wgt id="264">7.57359e-12</wgt>
  <wgt id="265">7.558e-12</wgt>
  <wgt id="266">7.58537e-12</wgt>
  <wgt id="267">7.56982e-12</wgt>
  <wgt id="268">7.56356e-12</wgt>
  <wgt id="269">7.59025e-12</wgt>
  <wgt id="270">7.55127e-12</wgt>
  <wgt id="271">7.54566e-12</wgt>
  <wgt id="272">7.5912e-12</wgt>
  <wgt id="273">7.54736e-12</wgt>
  <wgt id="274">7.58205e-12</wgt>
  <wgt id="275">7.51962e-12</wgt>
  <wgt id="276">7.61662e-12</wgt>
  <wgt id="277">7.52313e-12</wgt>
  <wgt id="278">7.60728e-12</wgt>
  <wgt id="279">7.42674e-12</wgt>
  <wgt id="280">7.74388e-12</wgt>
  <wgt id="281">7.53067e-12</wgt>
  <wgt id="282">7.5791e-12</wgt>
  <wgt id="283">7.31549e-12</wgt>
  <wgt id="284">7.88178e-12</wgt>
  <wgt id="285">7.152e-12</wgt>
  <wgt id="286">7.91937e-12</wgt>
  <wgt id="287">7.59444e-12</wgt>
  <wgt id="288">7.53213e-12</wgt>
  <wgt id="289">7.62972e-12</wgt>
  <wgt id="290">7.43004e-12</wgt>
  <wgt id="291">7.5372e-12</wgt>
  <wgt id="292">7.56667e-12</wgt>
  <wgt id="293">7.49941e-12</wgt>
  <wgt id="294">7.63458e-12</wgt>
  <wgt id="295">7.40297e-12</wgt>
  <wgt id="296">7.76831e-12</wgt>
  <wgt id="297">7.54621e-12</wgt>
  <wgt id="298">7.60669e-12</wgt>
  <wgt id="299">7.54105e-12</wgt>
  <wgt id="300">7.63631e-12</wgt>
  <wgt id="301">7.4069e-12</wgt>
  <wgt id="302">7.93389e-12</wgt>
  <wgt id="303">7.47974e-12</wgt>
  <wgt id="304">7.61588e-12</wgt>
  <wgt id="305">7.4881e-12</wgt>
  <wgt id="306">7.4951e-12</wgt>
  <wgt id="307">7.48079e-12</wgt>
  <wgt id="308">7.49472e-12</wgt>
  <wgt id="309">7.48404e-12</wgt>
  <wgt id="310">7.53998e-12</wgt>
  <wgt id="311">7.44083e-12</wgt>
  <wgt id="312">7.49906e-12</wgt>
  <wgt id="313">7.47678e-12</wgt>
  <wgt id="314">7.48236e-12</wgt>
  <wgt id="315">7.49396e-12</wgt>
  <wgt id="316">7.47918e-12</wgt>
  <wgt id="317">7.50829e-12</wgt>
  <wgt id="318">7.49407e-12</wgt>
  <wgt id="319">7.47826e-12</wgt>
  <wgt id="320">7.51317e-12</wgt>
  <wgt id="321">7.47453e-12</wgt>
  <wgt id="322">7.46507e-12</wgt>
  <wgt id="323">7.51547e-12</wgt>
  <wgt id="324">7.47412e-12</wgt>
  <wgt id="325">7.50048e-12</wgt>
  <wgt id="326">7.44896e-12</wgt>
  <wgt id="327">7.53874e-12</wgt>
  <wgt id="328">7.44947e-12</wgt>
  <wgt id="329">7.50962e-12</wgt>
  <wgt id="330">7.70168e-12</wgt>
  <wgt id="331">7.2858e-12</wgt>
  <wgt id="332">7.45817e-12</wgt>
  <wgt id="333">7.49612e-12</wgt>
  <wgt id="334">7.29768e-12</wgt>
  <wgt id="335">7.72791e-12</wgt>
  <wgt id="336">7.19512e-12</wgt>
  <wgt id="337">7.85263e-12</wgt>
  <wgt id="338">7.58273e-12</wgt>
  <wgt id="339">7.40157e-12</wgt>
  <wgt id="340">7.54422e-12</wgt>
  <wgt id="341">7.3513e-12</wgt>
  <wgt id="342">7.46728e-12</wgt>
  <wgt id="343">7.4721e-12</wgt>
  <wgt id="344">7.42928e-12</wgt>
  <wgt id="345">7.557e-12</wgt>
  <wgt id="346">7.32147e-12</wgt>
  <wgt id="347">7.67957e-12</wgt>
  <wgt id="348">7.46877e-12</wgt>
  <wgt id="349">7.52411e-12</wgt>
  <wgt id="350">7.45613e-12</wgt>
  <wgt id="351">7.56992e-12</wgt>
  <wgt id="352">7.32702e-12</wgt>
  <wgt id="353">7.84303e-12</wgt>
  <wgt id="354">7.36536e-12</wgt>
  <wgt id="355">7.5608e-12</wgt>
  <wgt id="356">7.5671e-12</wgt>
  <wgt id="357">7.49093e-12</wgt>
  <wgt id="358">7.4881e-12</wgt>
  <wgt id="359">7.56232e-12</wgt>
  <wgt id="360">7.70908e-12</wgt>
  <wgt id="361">7.60875e-12</wgt>
  <wgt id="362">7.76397e-12</wgt>
  <wgt id="363">7.74394e-12</wgt>
  <wgt id="364">7.70406e-12</wgt>
  <wgt id="365">7.67408e-12</wgt>
  <wgt id="366">7.6441e-12</wgt>
  <wgt id="367">7.58703e-12</wgt>
  <wgt id="368">7.55012e-12</wgt>
  <wgt id="369">7.51029e-12</wgt>
  <wgt id="370">7.60875e-12</wgt>
  <wgt id="371">7.63971e-12</wgt>
  <wgt id="372">7.62204e-12</wgt>
  <wgt id="373">7.59755e-12</wgt>
  <wgt id="374">7.6087e-12</wgt>
  <wgt id="375">8.78049e-12</wgt>
  <wgt id="376">8.78089e-12</wgt>
  <wgt id="377">8.77984e-12</wgt>
  <wgt id="378">8.8143e-12</wgt>
  <wgt id="379">8.74695e-12</wgt>
  <wgt id="380">8.80583e-12</wgt>
  <wgt id="381">8.77038e-12</wgt>
  <wgt id="382">8.82037e-12</wgt>
  <wgt id="383">8.74107e-12</wgt>
  <wgt id="384">8.78615e-12</wgt>
  <wgt id="385">8.77508e-12</wgt>
  <wgt id="386">8.80752e-12</wgt>
  <wgt id="387">8.76892e-12</wgt>
  <wgt id="388">8.77308e-12</wgt>
  <wgt id="389">8.78954e-12</wgt>
  <wgt id="390">8.79987e-12</wgt>
  <wgt id="391">8.76016e-12</wgt>
  <wgt id="392">8.70083e-12</wgt>
  <wgt id="393">8.82543e-12</wgt>
  <wgt id="394">8.78588e-12</wgt>
  <wgt id="395">8.7727e-12</wgt>
  <wgt id="396">8.79704e-12</wgt>
  <wgt id="397">8.76886e-12</wgt>
  <wgt id="398">8.7675e-12</wgt>
  <wgt id="399">8.7928e-12</wgt>
  <wgt id="400">8.76696e-12</wgt>
  <wgt id="401">8.80999e-12</wgt>
  <wgt id="402">8.69704e-12</wgt>
  <wgt id="403">8.8356e-12</wgt>
  <wgt id="404">9.04375e-12</wgt>
  <wgt id="405">8.15582e-12</wgt>
  <wgt id="406">8.59015e-12</wgt>
  <wgt id="407">9.20427e-12</wgt>
  <wgt id="408">8.87961e-12</wgt>
  <wgt id="409">8.59778e-12</wgt>
  <wgt id="410">8.47322e-12</wgt>
  <wgt id="411">8.92892e-12</wgt>
  <wgt id="412">8.75907e-12</wgt>
  <wgt id="413">8.81127e-12</wgt>
  <wgt id="414">8.65821e-12</wgt>
  <wgt id="415">8.8755e-12</wgt>
  <wgt id="416">9.09352e-12</wgt>
  <wgt id="417">8.35159e-12</wgt>
  <wgt id="418">8.79952e-12</wgt>
  <wgt id="419">8.67836e-12</wgt>
  <wgt id="420">9.00885e-12</wgt>
  <wgt id="421">8.62668e-12</wgt>
  <wgt id="422">8.72022e-12</wgt>
  <wgt id="423">8.80833e-12</wgt>
  <wgt id="424">9.05806e-12</wgt>
  <wgt id="425">8.59059e-12</wgt>
  <wgt id="426">8.78049e-12</wgt>
  <wgt id="427">8.58928e-12</wgt>
  <wgt id="428">9.2103e-12</wgt>
  <wgt id="429">8.90735e-12</wgt>
  <wgt id="430">9.21076e-12</wgt>
  <wgt id="431">9.14886e-12</wgt>
  <wgt id="432">9.09314e-12</wgt>
  <wgt id="433">9.03825e-12</wgt>
  <wgt id="434">8.96771e-12</wgt>
  <wgt id="435">8.83191e-12</wgt>
  <wgt id="436">8.7637e-12</wgt>
  <wgt id="437">8.69667e-12</wgt>
  <wgt id="438">8.90735e-12</wgt>
  <wgt id="439">8.93424e-12</wgt>
  <wgt id="440">8.9171e-12</wgt>
  <wgt id="441">8.90065e-12</wgt>
  <wgt id="442">8.89549e-12</wgt>
  <wgt id="443">7.92575e-12</wgt>
  <wgt id="444">8.0162e-12</wgt>
  <wgt id="445">8.02504e-12</wgt>
  <wgt id="446">7.86653e-12</wgt>
  <wgt id="447">7.92907e-12</wgt>
  <wgt id="448">7.73511e-12</wgt>
  <wgt id="449">8.10279e-12</wgt>
  <wgt id="450">8.04577e-12</wgt>
  <wgt id="451">7.90202e-12</wgt>
  <wgt id="452">8.10084e-12</wgt>
  <wgt id="453">8.03639e-12</wgt>
  <wgt id="454">7.49598e-12</wgt>
  <wgt id="455">8.00111e-12</wgt>
  <wgt id="456">8.09465e-12</wgt>
  <wgt id="457">7.95148e-12</wgt>
  <wgt id="458">8.07713e-12</wgt>
  <wgt id="459">8.00053e-12</wgt>
  <wgt id="460">8.10672e-12</wgt>
  <wgt id="461">7.72498e-12</wgt>
  <wgt id="462">7.86859e-12</wgt>
  <wgt id="463">7.79126e-12</wgt>
  <wgt id="464">7.88659e-12</wgt>
  <wgt id="465">8.01231e-12</wgt>
  <wgt id="466">7.71334e-12</wgt>
  <wgt id="467">7.86534e-12</wgt>
  <wgt id="468">7.92266e-12</wgt>
  <wgt id="469">7.90396e-12</wgt>
  <wgt id="470">7.79139e-12</wgt>
  <wgt id="471">7.81843e-12</wgt>
  <wgt id="472">7.98605e-12</wgt>
  <wgt id="473">7.65752e-12</wgt>
  <wgt id="474">5.79e-12</wgt>
  <wgt id="475">5.77871e-12</wgt>
  <wgt id="476">5.77242e-12</wgt>
  <wgt id="477">5.9116e-12</wgt>
  <wgt id="478">5.89061e-12</wgt>
  <wgt id="479">5.4604e-12</wgt>
  <wgt id="480">6.12987e-12</wgt>
  <wgt id="481">5.84555e-12</wgt>
  <wgt id="482">5.83494e-12</wgt>
  <wgt id="483">5.88516e-12</wgt>
  <wgt id="484">6.04459e-12</wgt>
  <wgt id="485">5.24266e-12</wgt>
  <wgt id="486">6.10099e-12</wgt>
  <wgt id="487">5.5939e-12</wgt>
  <wgt id="488">5.82808e-12</wgt>
  <wgt id="489">5.13634e-12</wgt>
  <wgt id="490">5.72416e-12</wgt>
  <wgt id="491">5.70536e-12</wgt>
  <wgt id="492">5.70119e-12</wgt>
  <wgt id="493">5.29413e-12</wgt>
  <wgt id="494">5.31052e-12</wgt>
  <wgt id="495">5.82699e-12</wgt>
  <wgt id="496">5.45168e-12</wgt>
  <wgt id="497">5.37912e-12</wgt>
  <wgt id="498">5.95855e-12</wgt>
  <wgt id="499">5.86908e-12</wgt>
  <wgt id="500">5.76624e-12</wgt>
  <wgt id="501">6.02231e-12</wgt>
  <wgt id="502">6.10312e-12</wgt>
  <wgt id="503">5.66753e-12</wgt>
  <wgt id="504">6.00306e-12</wgt>
  <wgt id="505">6.06157e-12</wgt>
  <wgt id="506">5.31837e-12</wgt>
  <wgt id="507">5.63479e-12</wgt>
  <wgt id="508">6.12989e-12</wgt>
  <wgt id="509">5.58537e-12</wgt>
  <wgt id="510">5.81392e-12</wgt>
  <wgt id="511">5.46036e-12</wgt>
  <wgt id="512">6.24412e-12</wgt>
  <wgt id="513">6.06906e-12</wgt>
  <wgt id="514">6.18545e-12</wgt>
  <wgt id="515">6.01074e-12</wgt>
  <wgt id="516">6.47592e-12</wgt>
  <wgt id="517">5.93441e-12</wgt>
  <wgt id="518">6.03772e-12</wgt>
  <wgt id="519">5.55024e-12</wgt>
  <wgt id="520">5.85626e-12</wgt>
  <wgt id="521">5.59838e-12</wgt>
  <wgt id="522">6.01199e-12</wgt>
  <wgt id="523">5.46982e-12</wgt>
  <wgt id="524">5.95741e-12</wgt>
  <wgt id="525">5.61273e-12</wgt>
  <wgt id="526">6.14505e-12</wgt>
  <wgt id="527">5.69777e-12</wgt>
  <wgt id="528">5.74884e-12</wgt>
  <wgt id="529">5.46593e-12</wgt>
  <wgt id="530">6.12595e-12</wgt>
  <wgt id="531">5.51878e-12</wgt>
  <wgt id="532">6.30282e-12</wgt>
  <wgt id="533">5.82315e-12</wgt>
  <wgt id="534">5.51178e-12</wgt>
  <wgt id="535">5.91249e-12</wgt>
  <wgt id="536">6.02735e-12</wgt>
  <wgt id="537">5.43825e-12</wgt>
  <wgt id="538">5.73044e-12</wgt>
  <wgt id="539">5.64956e-12</wgt>
  <wgt id="540">6.13497e-12</wgt>
  <wgt id="541">5.76349e-12</wgt>
  <wgt id="542">5.63753e-12</wgt>
  <wgt id="543">5.54769e-12</wgt>
  <wgt id="544">5.8181e-12</wgt>
  <wgt id="545">5.42908e-12</wgt>
  <wgt id="546">5.26788e-12</wgt>
  <wgt id="547">5.56398e-12</wgt>
  <wgt id="548">5.61514e-12</wgt>
  <wgt id="549">5.68013e-12</wgt>
  <wgt id="550">5.56466e-12</wgt>
  <wgt id="551">5.78848e-12</wgt>
  <wgt id="552">5.3072e-12</wgt>
  <wgt id="553">5.36047e-12</wgt>
  <wgt id="554">6.06054e-12</wgt>
  <wgt id="555">5.9229e-12</wgt>
  <wgt id="556">5.72416e-12</wgt>
  <wgt id="557">5.8958e-12</wgt>
  <wgt id="558">5.74938e-12</wgt>
  <wgt id="559">5.86267e-12</wgt>
  <wgt id="560">6.41142e-12</wgt>
  <wgt id="561">6.00239e-12</wgt>
  <wgt id="562">6.02846e-12</wgt>
  <wgt id="563">6.43552e-12</wgt>
  <wgt id="564">6.18605e-12</wgt>
  <wgt id="565">6.0927e-12</wgt>
  <wgt id="566">5.53562e-12</wgt>
  <wgt id="567">5.80905e-12</wgt>
  <wgt id="568">5.53069e-12</wgt>
  <wgt id="569">5.87385e-12</wgt>
  <wgt id="570">5.8788e-12</wgt>
  <wgt id="571">6.41766e-12</wgt>
  <wgt id="572">5.56496e-12</wgt>
  <wgt id="573">5.63123e-12</wgt>
  <wgt id="574">5.67486e-12</wgt>
  <wgt id="575">6.38919e-12</wgt>
  <wgt id="576">7.07262e-12</wgt>
  <wgt id="577">6.65082e-12</wgt>
  <wgt id="578">6.43121e-12</wgt>
  <wgt id="579">6.65675e-12</wgt>
  <wgt id="580">6.83434e-12</wgt>
  <wgt id="581">7.08489e-12</wgt>
  <wgt id="582">6.91751e-12</wgt>
  <wgt id="583">6.55902e-12</wgt>
  <wgt id="584">6.31324e-12</wgt>
  <wgt id="585">5.8488e-12</wgt>
  <wgt id="586">5.96986e-12</wgt>
  <wgt id="587">6.52719e-12</wgt>
  <wgt id="588">7.15361e-12</wgt>
  <wgt id="589">7.09142e-12</wgt>
  <wgt id="590">6.34588e-12</wgt>
  <wgt id="591">6.56831e-12</wgt>
  <wgt id="592">5.97427e-12</wgt>
  <wgt id="593">6.15764e-12</wgt>
  <wgt id="594">6.17278e-12</wgt>
  <wgt id="595">6.80891e-12</wgt>
  <wgt id="596">7.64486e-12</wgt>
  <wgt id="597">6.52321e-12</wgt>
  <wgt id="598">6.55802e-12</wgt>
  <wgt id="599">6.87675e-12</wgt>
  <wgt id="600">6.97749e-12</wgt>
  <wgt id="601">6.10542e-12</wgt>
  <wgt id="602">6.14463e-12</wgt>
  <wgt id="603">5.91102e-12</wgt>
  <wgt id="604">6.5893e-12</wgt>
  <wgt id="605">6.39888e-12</wgt>
  <wgt id="606">6.51417e-12</wgt>
  <wgt id="607">6.76625e-12</wgt>
  <wgt id="608">6.65395e-12</wgt>
  <wgt id="609">6.34024e-12</wgt>
  <wgt id="610">6.06331e-12</wgt>
  <wgt id="611">6.00982e-12</wgt>
  <wgt id="612">6.5197e-12</wgt>
  <wgt id="613">6.04332e-12</wgt>
  <wgt id="614">6.32981e-12</wgt>
  <wgt id="615">6.56734e-12</wgt>
  <wgt id="616">5.99357e-12</wgt>
  <wgt id="617">6.66875e-12</wgt>
  <wgt id="618">7.07553e-12</wgt>
  <wgt id="619">6.25698e-12</wgt>
  <wgt id="620">6.58479e-12</wgt>
  <wgt id="621">6.28789e-12</wgt>
  <wgt id="622">6.52719e-12</wgt>
  <wgt id="623">6.37553e-12</wgt>
  <wgt id="624">6.42014e-12</wgt>
  <wgt id="625">6.04834e-12</wgt>
  <wgt id="626">5.52484e-12</wgt>
  <wgt id="627">5.69418e-12</wgt>
  <wgt id="628">6.32636e-12</wgt>
  <wgt id="629">6.67999e-12</wgt>
  <wgt id="630">6.17178e-12</wgt>
  <wgt id="631">6.60429e-12</wgt>
  <wgt id="632">5.7827e-12</wgt>
  <wgt id="633">6.34941e-12</wgt>
  <wgt id="634">6.05507e-12</wgt>
  <wgt id="635">5.85762e-12</wgt>
  <wgt id="636">6.44393e-12</wgt>
  <wgt id="637">6.33713e-12</wgt>
  <wgt id="638">6.05964e-12</wgt>
  <wgt id="639">6.0542e-12</wgt>
  <wgt id="640">6.18134e-12</wgt>
  <wgt id="641">6.74957e-12</wgt>
  <wgt id="642">5.64948e-12</wgt>
  <wgt id="643">6.18316e-12</wgt>
  <wgt id="644">5.7141e-12</wgt>
  <wgt id="645">6.37299e-12</wgt>
  <wgt id="646">5.71349e-12</wgt>
  <wgt id="647">6.53288e-12</wgt>
  <wgt id="648">6.76282e-12</wgt>
  <wgt id="649">6.41822e-12</wgt>
  <wgt id="650">6.10489e-12</wgt>
  <wgt id="651">6.87838e-12</wgt>
  <wgt id="652">6.06278e-12</wgt>
  <wgt id="653">6.09932e-12</wgt>
  <wgt id="654">6.51625e-12</wgt>
  <wgt id="655">6.0671e-12</wgt>
  <wgt id="656">6.43163e-12</wgt>
  <wgt id="657">7.07476e-12</wgt>
  <wgt id="658">6.34115e-12</wgt>
  <wgt id="659">6.11504e-12</wgt>
  <wgt id="660">6.09818e-12</wgt>
  <wgt id="661">6.19509e-12</wgt>
  <wgt id="662">6.28485e-12</wgt>
  <wgt id="663">6.54082e-12</wgt>
  <wgt id="664">6.53131e-12</wgt>
  <wgt id="665">6.28476e-12</wgt>
  <wgt id="666">6.21172e-12</wgt>
  <wgt id="667">6.7704e-12</wgt>
  <wgt id="668">6.26825e-12</wgt>
  <wgt id="669">6.32539e-12</wgt>
  <wgt id="670">6.74667e-12</wgt>
  <wgt id="671">6.49985e-12</wgt>
  <wgt id="672">6.2936e-12</wgt>
  <wgt id="673">6.89271e-12</wgt>
  <wgt id="674">6.16526e-12</wgt>
  <wgt id="675">6.10464e-12</wgt>
  <wgt id="676">8.31284e-12</wgt>
  <wgt id="677">8.39432e-12</wgt>
  <wgt id="678">9.22344e-12</wgt>
  <wgt id="679">8.74464e-12</wgt>
  <wgt id="680">8.41568e-12</wgt>
  <wgt id="681">8.05113e-12</wgt>
  <wgt id="682">8.78812e-12</wgt>
  <wgt id="683">7.49147e-12</wgt>
  <wgt id="684">8.81786e-12</wgt>
  <wgt id="685">8.36592e-12</wgt>
  <wgt id="686">8.60215e-12</wgt>
  <wgt id="687">8.52192e-12</wgt>
  <wgt id="688">8.04524e-12</wgt>
  <wgt id="689">8.72062e-12</wgt>
  <wgt id="690">8.52282e-12</wgt>
  <wgt id="691">8.50599e-12</wgt>
  <wgt id="692">8.07029e-12</wgt>
  <wgt id="693">1.13546e-11</wgt>
  <wgt id="694">9.25218e-12</wgt>
  <wgt id="695">7.68994e-12</wgt>
  <wgt id="696">7.91584e-12</wgt>
  <wgt id="697">7.36803e-12</wgt>
  <wgt id="698">6.6756e-12</wgt>
  <wgt id="699">6.94715e-12</wgt>
  <wgt id="700">7.34157e-12</wgt>
  <wgt id="701">8.29887e-12</wgt>
  <wgt id="702">7.91567e-12</wgt>
  <wgt id="703">1.056e-11</wgt>
  <wgt id="704">9.42087e-12</wgt>
  <wgt id="705">9.43141e-12</wgt>
  <wgt id="706">7.69388e-12</wgt>
  <wgt id="707">7.71928e-12</wgt>
  <wgt id="708">7.82758e-12</wgt>
  <wgt id="709">7.99236e-12</wgt>
  <wgt id="710">6.72499e-12</wgt>
  <wgt id="711">9.03303e-12</wgt>
  <wgt id="712">7.72406e-12</wgt>
  <wgt id="713">8.97304e-12</wgt>
  <wgt id="714">7.31909e-12</wgt>
  <wgt id="715">7.85659e-12</wgt>
  <wgt id="716">7.95991e-12</wgt>
  <wgt id="717">7.06626e-12</wgt>
  <wgt id="718">8.53354e-12</wgt>
  <wgt id="719">7.59301e-12</wgt>
  <wgt id="720">8.64655e-12</wgt>
  <wgt id="721">7.01284e-12</wgt>
  <wgt id="722">6.32127e-12</wgt>
  <wgt id="723">9.50643e-12</wgt>
  <wgt id="724">9.10743e-12</wgt>
  <wgt id="725">8.7056e-12</wgt>
  <wgt id="726">8.24256e-12</wgt>
  <wgt id="727">8.39371e-12</wgt>
  <wgt id="728">8.21591e-12</wgt>
  <wgt id="729">7.42681e-12</wgt>
  <wgt id="730">9.31549e-12</wgt>
  <wgt id="731">8.18558e-12</wgt>
  <wgt id="732">9.8117e-12</wgt>
  <wgt id="733">7.62538e-12</wgt>
  <wgt id="734">8.62761e-12</wgt>
  <wgt id="735">8.27073e-12</wgt>
  <wgt id="736">7.60119e-12</wgt>
  <wgt id="737">7.47278e-12</wgt>
  <wgt id="738">7.8816e-12</wgt>
  <wgt id="739">8.80519e-12</wgt>
  <wgt id="740">1.00335e-11</wgt>
  <wgt id="741">8.93902e-12</wgt>
  <wgt id="742">7.81847e-12</wgt>
  <wgt id="743">7.52583e-12</wgt>
  <wgt id="744">8.12753e-12</wgt>
  <wgt id="745">9.21638e-12</wgt>
  <wgt id="746">9.48901e-12</wgt>
  <wgt id="747">6.7727e-12</wgt>
  <wgt id="748">7.95998e-12</wgt>
  <wgt id="749">8.66654e-12</wgt>
  <wgt id="750">9.06093e-12</wgt>
  <wgt id="751">8.37216e-12</wgt>
  <wgt id="752">7.41863e-12</wgt>
  <wgt id="753">7.34187e-12</wgt>
  <wgt id="754">8.7151e-12</wgt>
  <wgt id="755">8.06217e-12</wgt>
  <wgt id="756">8.00066e-12</wgt>
  <wgt id="757">7.04258e-12</wgt>
  <wgt id="758">8.03933e-12</wgt>
  <wgt id="759">9.16969e-12</wgt>
  <wgt id="760">7.8573e-12</wgt>
  <wgt id="761">9.36224e-12</wgt>
  <wgt id="762">9.40784e-12</wgt>
  <wgt id="763">8.63131e-12</wgt>
  <wgt id="764">8.98203e-12</wgt>
  <wgt id="765">8.46522e-12</wgt>
  <wgt id="766">8.47152e-12</wgt>
  <wgt id="767">8.50214e-12</wgt>
  <wgt id="768">7.47131e-12</wgt>
  <wgt id="769">8.73337e-12</wgt>
  <wgt id="770">7.65761e-12</wgt>
  <wgt id="771">1.03706e-11</wgt>
  <wgt id="772">8.0989e-12</wgt>
  <wgt id="773">8.39811e-12</wgt>
  <wgt id="774">6.45376e-12</wgt>
  <wgt id="775">8.73981e-12</wgt>
  <wgt id="776">9.8297e-12</wgt>
  <wgt id="777">7.17699e-12</wgt>
  <wgt id="778">5.23864e-12</wgt>
  <wgt id="779">2.91528e-12</wgt>
  <wgt id="780">1.45408e-12</wgt>
  <wgt id="781">5.92373e-12</wgt>
  <wgt id="782">6.52801e-12</wgt>
  <wgt id="783">2.40765e-12</wgt>
  <wgt id="784">3.35746e-12</wgt>
  <wgt id="785">8.14258e-12</wgt>
  <wgt id="786">2.36275e-12</wgt>
  <wgt id="787">7.10997e-12</wgt>
  <wgt id="788">1.96836e-13</wgt>
  <wgt id="789">3.32562e-12</wgt>
  <wgt id="790">2.50969e-12</wgt>
  <wgt id="791">6.32015e-12</wgt>
  <wgt id="792">7.22879e-12</wgt>
  <wgt id="793">4.76298e-12</wgt>
  <wgt id="794">2.18098e-12</wgt>
  <wgt id="795">7.65162e-12</wgt>
  <wgt id="796">7.77495e-12</wgt>
  <wgt id="797">6.96595e-12</wgt>
  <wgt id="798">3.73788e-12</wgt>
  <wgt id="799">6.99991e-12</wgt>
  <wgt id="800">3.82794e-12</wgt>
  <wgt id="801">5.33497e-12</wgt>
  <wgt id="802">2.08965e-12</wgt>
  <wgt id="803">8.72264e-12</wgt>
  <wgt id="804">7.7308e-12</wgt>
  <wgt id="805">7.41632e-12</wgt>
  <wgt id="806">5.92205e-12</wgt>
  <wgt id="807">5.22874e-12</wgt>
  <wgt id="808">5.09021e-12</wgt>
  <wgt id="809">4.63182e-12</wgt>
  <wgt id="810">6.91989e-12</wgt>
  <wgt id="811">5.53241e-12</wgt>
  <wgt id="812">2.58148e-12</wgt>
  <wgt id="813">2.82879e-12</wgt>
  <wgt id="814">3.36059e-12</wgt>
  <wgt id="815">2.52885e-12</wgt>
  <wgt id="816">3.08745e-12</wgt>
  <wgt id="817">5.37112e-12</wgt>
  <wgt id="818">7.568e-12</wgt>
  <wgt id="819">2.83428e-12</wgt>
  <wgt id="820">4.828e-12</wgt>
  <wgt id="821">6.59371e-12</wgt>
  <wgt id="822">4.14668e-12</wgt>
  <wgt id="823">7.07509e-12</wgt>
  <wgt id="824">8.12953e-12</wgt>
  <wgt id="825">1.83033e-12</wgt>
  <wgt id="826">7.07885e-12</wgt>
  <wgt id="827">1.79023e-12</wgt>
  <wgt id="828">6.92894e-12</wgt>
  <wgt id="829">5.44779e-12</wgt>
  <wgt id="830">1.77122e-12</wgt>
  <wgt id="831">6.50433e-12</wgt>
  <wgt id="832">1.00039e-11</wgt>
  <wgt id="833">3.96556e-12</wgt>
  <wgt id="834">9.87808e-12</wgt>
  <wgt id="835">3.31643e-12</wgt>
  <wgt id="836">3.99416e-12</wgt>
  <wgt id="837">6.40989e-12</wgt>
  <wgt id="838">3.8921e-12</wgt>
  <wgt id="839">6.5412e-12</wgt>
  <wgt id="840">4.35393e-12</wgt>
  <wgt id="841">7.81546e-12</wgt>
  <wgt id="842">5.45163e-12</wgt>
  <wgt id="843">5.7641e-12</wgt>
  <wgt id="844">6.09028e-12</wgt>
  <wgt id="845">1.02113e-11</wgt>
  <wgt id="846">5.04032e-12</wgt>
  <wgt id="847">5.80861e-12</wgt>
  <wgt id="848">2.63714e-12</wgt>
  <wgt id="849">5.98537e-12</wgt>
  <wgt id="850">8.74818e-12</wgt>
  <wgt id="851">6.51314e-12</wgt>
  <wgt id="852">1.98296e-12</wgt>
  <wgt id="853">6.87151e-12</wgt>
  <wgt id="854">7.91062e-12</wgt>
  <wgt id="855">6.74217e-12</wgt>
  <wgt id="856">1.72733e-12</wgt>
  <wgt id="857">4.31478e-12</wgt>
  <wgt id="858">5.04996e-12</wgt>
  <wgt id="859">5.0941e-12</wgt>
  <wgt id="860">7.12682e-12</wgt>
  <wgt id="861">4.12718e-12</wgt>
  <wgt id="862">5.48559e-12</wgt>
  <wgt id="863">6.35999e-12</wgt>
  <wgt id="864">5.405e-12</wgt>
  <wgt id="865">9.1161e-12</wgt>
  <wgt id="866">1.00859e-11</wgt>
  <wgt id="867">5.33258e-12</wgt>
  <wgt id="868">5.67305e-12</wgt>
  <wgt id="869">2.45458e-12</wgt>
  <wgt id="870">3.29414e-12</wgt>
  <wgt id="871">3.49155e-12</wgt>
  <wgt id="872">8.25879e-12</wgt>
  <wgt id="873">3.98603e-12</wgt>
  <wgt id="874">6.05031e-12</wgt>
  <wgt id="875">3.75702e-12</wgt>
  <wgt id="876">7.78155e-12</wgt>
  <wgt id="877">6.16396e-12</wgt>
  <wgt id="878">4.16116e-12</wgt>
  <wgt id="879">8.31284e-12</wgt>
  <wgt id="880">8.39432e-12</wgt>
  <wgt id="881">9.22344e-12</wgt>
  <wgt id="882">8.74464e-12</wgt>
  <wgt id="883">8.41568e-12</wgt>
  <wgt id="884">8.05113e-12</wgt>
  <wgt id="885">8.78812e-12</wgt>
  <wgt id="886">7.49147e-12</wgt>
  <wgt id="887">8.81786e-12</wgt>
  <wgt id="888">8.36592e-12</wgt>
  <wgt id="889">8.60215e-12</wgt>
  <wgt id="890">8.52192e-12</wgt>
  <wgt id="891">8.04524e-12</wgt>
  <wgt id="892">8.72062e-12</wgt>
  <wgt id="893">8.52282e-12</wgt>
  <wgt id="894">8.50599e-12</wgt>
  <wgt id="895">8.07029e-12</wgt>
  <wgt id="896">1.13546e-11</wgt>
  <wgt id="897">9.25218e-12</wgt>
  <wgt id="898">7.68994e-12</wgt>
  <wgt id="899">7.91584e-12</wgt>
  <wgt id="900">7.36803e-12</wgt>
  <wgt id="901">6.6756e-12</wgt>
  <wgt id="902">6.94715e-12</wgt>
  <wgt id="903">7.34157e-12</wgt>
  <wgt id="904">8.29887e-12</wgt>
  <wgt id="905">7.91567e-12</wgt>
  <wgt id="906">1.056e-11</wgt>
  <wgt id="907">9.42087e-12</wgt>
  <wgt id="908">9.43141e-12</wgt>
  <wgt id="909">7.69388e-12</wgt>
  <wgt id="910">7.71928e-12</wgt>
  <wgt id="911">7.82758e-12</wgt>
  <wgt id="912">7.99236e-12</wgt>
  <wgt id="913">6.72499e-12</wgt>
  <wgt id="914">9.03303e-12</wgt>
  <wgt id="915">7.72406e-12</wgt>
  <wgt id="916">8.97304e-12</wgt>
  <wgt id="917">7.31909e-12</wgt>
  <wgt id="918">7.85659e-12</wgt>
  <wgt id="919">7.95991e-12</wgt>
  <wgt id="920">7.06626e-12</wgt>
  <wgt id="921">8.53354e-12</wgt>
  <wgt id="922">7.59301e-12</wgt>
  <wgt id="923">8.64655e-12</wgt>
  <wgt id="924">7.01284e-12</wgt>
  <wgt id="925">6.32127e-12</wgt>
  <wgt id="926">9.50643e-12</wgt>
  <wgt id="927">9.10743e-12</wgt>
  <wgt id="928">8.7056e-12</wgt>
  <wgt id="929">8.24256e-12</wgt>
  <wgt id="930">8.39371e-12</wgt>
  <wgt id="931">8.21591e-12</wgt>
  <wgt id="932">7.42681e-12</wgt>
  <wgt id="933">9.31549e-12</wgt>
  <wgt id="934">8.18558e-12</wgt>
  <wgt id="935">9.8117e-12</wgt>
  <wgt id="936">7.62538e-12</wgt>
  <wgt id="937">8.62761e-12</wgt>
  <wgt id="938">8.27073e-12</wgt>
  <wgt id="939">7.60119e-12</wgt>
  <wgt id="940">7.47278e-12</wgt>
  <wgt id="941">7.8816e-12</wgt>
  <wgt id="942">8.80519e-12</wgt>
  <wgt id="943">1.00335e-11</wgt>
  <wgt id="944">8.93902e-12</wgt>
  <wgt id="945">7.81847e-12</wgt>
  <wgt id="946">7.52583e-12</wgt>
  <wgt id="947">8.12753e-12</wgt>
  <wgt id="948">9.21638e-12</wgt>
  <wgt id="949">9.48901e-12</wgt>
  <wgt id="950">6.7727e-12</wgt>
  <wgt id="951">7.95998e-12</wgt>
  <wgt id="952">8.66654e-12</wgt>
  <wgt id="953">9.06093e-12</wgt>
  <wgt id="954">8.37216e-12</wgt>
  <wgt id="955">7.41863e-12</wgt>
  <wgt id="956">7.34187e-12</wgt>
  <wgt id="957">8.7151e-12</wgt>
  <wgt id="958">8.06217e-12</wgt>
  <wgt id="959">8.00066e-12</wgt>
  <wgt id="960">7.04258e-12</wgt>
  <wgt id="961">8.03933e-12</wgt>
  <wgt id="962">9.16969e-12</wgt>
  <wgt id="963">7.8573e-12</wgt>
  <wgt id="964">9.36224e-12</wgt>
  <wgt id="965">9.40784e-12</wgt>
  <wgt id="966">8.63131e-12</wgt>
  <wgt id="967">8.98203e-12</wgt>
  <wgt id="968">8.46522e-12</wgt>
  <wgt id="969">8.47152e-12</wgt>
  <wgt id="970">8.50214e-12</wgt>
  <wgt id="971">7.47131e-12</wgt>
  <wgt id="972">8.73337e-12</wgt>
  <wgt id="973">7.65761e-12</wgt>
  <wgt id="974">1.03706e-11</wgt>
  <wgt id="975">8.0989e-12</wgt>
  <wgt id="976">8.39811e-12</wgt>
  <wgt id="977">6.45376e-12</wgt>
  <wgt id="978">8.73981e-12</wgt>
  <wgt id="979">9.8297e-12</wgt>
  <wgt id="980">8.24678e-12</wgt>
  <wgt id="981">8.54288e-12</wgt>
  <wgt id="982">8.06597e-12</wgt>
</rwgt>
</event>
<event>
 5   1  0.5790000E-11  0.2174054E+04  0.7818608E-02  0.7758713E-01
       21   -1    0    0  502  501  0.00000000000E+00  0.00000000000E+00  0.14444085079E+04  0.14444085079E+04  0.00000000000E+00 0.  1.
       21   -1    0    0  501  502 -0.00000000000E+00 -0.00000000000E+00 -0.81807020389E+03  0.81807020389E+03  0.00000000000E+00 0. -1.
       39    2    1    2    0    0  0.00000000000E+00  0.00000000000E+00  0.62633830402E+03  0.22624787118E+04  0.21740538747E+04 0.  0.
       25    1    3    3    0    0 -0.19431888896E+03 -0.10429395041E+04  0.10368628766E+03  0.10732467033E+04  0.12500000000E+03 0.  0.
       25    1    3    3    0    0  0.19431888896E+03  0.10429395041E+04  0.52265201636E+03  0.11892320085E+04  0.12500000000E+03 0.  0.
<mgrwt>
<rscale>  0 0.21740539E+04</rscale>
<asrwt>0</asrwt>
<pdfrwt beam="1">  1       21 0.22221669E+00 0.21740539E+04</pdfrwt>
<pdfrwt beam="2">  1       21 0.12585695E+00 0.21740539E+04</pdfrwt>
<totfact> 0.18296101E+01</totfact>
</mgrwt>
<rwgt>
  <wgt id="1">5.79e-12</wgt>
  <wgt id="2">5.05329e-12</wgt>
  <wgt id="3">6.70187e-12</wgt>
  <wgt id="4">5.79e-12</wgt>
  <wgt id="5">5.05329e-12</wgt>
  <wgt id="6">6.70187e-12</wgt>
  <wgt id="7">5.79e-12</wgt>
  <wgt id="8">5.05329e-12</wgt>
  <wgt id="9">6.70187e-12</wgt>
  <wgt id="10">5.97381e-12</wgt>
  <wgt id="11">5.96926e-12</wgt>
  <wgt id="12">5.96371e-12</wgt>
  <wgt id="13">5.95444e-12</wgt>
  <wgt id="14">5.99526e-12</wgt>
  <wgt id="15">5.98343e-12</wgt>
  <wgt id="16">5.96347e-12</wgt>
  <wgt id="17">5.98826e-12</wgt>
  <wgt id="18">5.96509e-12</wgt>
  <wgt id="19">5.98605e-12</wgt>
  <wgt id="20">5.95819e-12</wgt>
  <wgt id="21">5.93653e-12</wgt>
  <wgt id="22">5.94919e-12</wgt>
  <wgt id="23">5.91766e-12</wgt>
  <wgt id="24">5.94409e-12</wgt>
  <wgt id="25">5.9585e-12</wgt>
  <wgt id="26">5.99505e-12</wgt>
  <wgt id="27">5.97176e-12</wgt>
  <wgt id="28">5.94471e-12</wgt>
  <wgt id="29">5.97855e-12</wgt>
  <wgt id="30">5.95185e-12</wgt>
  <wgt id="31">5.99327e-12</wgt>
  <wgt id="32">5.95788e-12</wgt>
  <wgt id="33">5.986e-12</wgt>
  <wgt id="34">5.95251e-12</wgt>
  <wgt id="35">5.96288e-12</wgt>
  <wgt id="36">5.99049e-12</wgt>
  <wgt id="37">5.95817e-12</wgt>
  <wgt id="38">5.95804e-12</wgt>
  <wgt id="39">6.04074e-12</wgt>
  <wgt id="40">5.98413e-12</wgt>
  <wgt id="41">5.97172e-12</wgt>
  <wgt id="42">5.98731e-12</wgt>
  <wgt id="43">5.97528e-12</wgt>
  <wgt id="44">5.96059e-12</wgt>
  <wgt id="45">5.98361e-12</wgt>
  <wgt id="46">5.97713e-12</wgt>
  <wgt id="47">5.96092e-12</wgt>
  <wgt id="48">5.97385e-12</wgt>
  <wgt id="49">5.97761e-12</wgt>
  <wgt id="50">5.99361e-12</wgt>
  <wgt id="51">5.98804e-12</wgt>
  <wgt id="52">5.96848e-12</wgt>
  <wgt id="53">5.94303e-12</wgt>
  <wgt id="54">5.96635e-12</wgt>
  <wgt id="55">5.97267e-12</wgt>
  <wgt id="56">5.99654e-12</wgt>
  <wgt id="57">5.9911e-12</wgt>
  <wgt id="58">5.94151e-12</wgt>
  <wgt id="59">5.95698e-12</wgt>
  <wgt id="60">5.97876e-12</wgt>
  <wgt id="61">5.95397e-12</wgt>
  <wgt id="62">5.9634e-12</wgt>
  <wgt id="63">5.97274e-12</wgt>
  <wgt id="64">5.9787e-12</wgt>
  <wgt id="65">5.9823e-12</wgt>
  <wgt id="66">5.96665e-12</wgt>
  <wgt id="67">5.95429e-12</wgt>
  <wgt id="68">5.96965e-12</wgt>
  <wgt id="69">5.97475e-12</wgt>
  <wgt id="70">5.97352e-12</wgt>
  <wgt id="71">5.97249e-12</wgt>
  <wgt id="72">5.96361e-12</wgt>
  <wgt id="73">5.97774e-12</wgt>
  <wgt id="74">5.97571e-12</wgt>
  <wgt id="75">5.9673e-12</wgt>
  <wgt id="76">5.98651e-12</wgt>
  <wgt id="77">5.97248e-12</wgt>
  <wgt id="78">5.97448e-12</wgt>
  <wgt id="79">5.98631e-12</wgt>
  <wgt id="80">5.95252e-12</wgt>
  <wgt id="81">5.96835e-12</wgt>
  <wgt id="82">5.97389e-12</wgt>
  <wgt id="83">5.95313e-12</wgt>
  <wgt id="84">5.96576e-12</wgt>
  <wgt id="85">5.96139e-12</wgt>
  <wgt id="86">5.99012e-12</wgt>
  <wgt id="87">5.94455e-12</wgt>
  <wgt id="88">5.9796e-12</wgt>
  <wgt id="89">5.97889e-12</wgt>
  <wgt id="90">5.98475e-12</wgt>
  <wgt id="91">5.9794e-12</wgt>
  <wgt id="92">5.98475e-12</wgt>
  <wgt id="93">5.97551e-12</wgt>
  <wgt id="94">5.96874e-12</wgt>
  <wgt id="95">5.98056e-12</wgt>
  <wgt id="96">5.97736e-12</wgt>
  <wgt id="97">5.96425e-12</wgt>
  <wgt id="98">5.97618e-12</wgt>
  <wgt id="99">5.96662e-12</wgt>
  <wgt id="100">5.97869e-12</wgt>
  <wgt id="101">5.97405e-12</wgt>
  <wgt id="102">5.96906e-12</wgt>
  <wgt id="103">5.98112e-12</wgt>
  <wgt id="104">5.97188e-12</wgt>
  <wgt id="105">5.9813e-12</wgt>
  <wgt id="106">5.96553e-12</wgt>
  <wgt id="107">5.98938e-12</wgt>
  <wgt id="108">5.96825e-12</wgt>
  <wgt id="109">5.97353e-12</wgt>
  <wgt id="110">5.97447e-12</wgt>
  <wgt id="111">6.03235e-12</wgt>
  <wgt id="112">5.9777e-12</wgt>
  <wgt id="113">7.95792e-12</wgt>
  <wgt id="114">8.15785e-12</wgt>
  <wgt id="115">8.03818e-12</wgt>
  <wgt id="116">1.09672e-11</wgt>
  <wgt id="117">6.57917e-12</wgt>
  <wgt id="118">6.6006e-12</wgt>
  <wgt id="119">6.56674e-12</wgt>
  <wgt id="120">6.5799e-12</wgt>
  <wgt id="121">6.57889e-12</wgt>
  <wgt id="122">6.5673e-12</wgt>
  <wgt id="123">6.59516e-12</wgt>
  <wgt id="124">6.56953e-12</wgt>
  <wgt id="125">6.5851e-12</wgt>
  <wgt id="126">6.58978e-12</wgt>
  <wgt id="127">6.57198e-12</wgt>
  <wgt id="128">6.59969e-12</wgt>
  <wgt id="129">6.55884e-12</wgt>
  <wgt id="130">6.61622e-12</wgt>
  <wgt id="131">6.54124e-12</wgt>
  <wgt id="132">6.41192e-12</wgt>
  <wgt id="133">6.77626e-12</wgt>
  <wgt id="134">6.51123e-12</wgt>
  <wgt id="135">6.63223e-12</wgt>
  <wgt id="136">6.66043e-12</wgt>
  <wgt id="137">6.48049e-12</wgt>
  <wgt id="138">6.82543e-12</wgt>
  <wgt id="139">6.3406e-12</wgt>
  <wgt id="140">6.53572e-12</wgt>
  <wgt id="141">6.61291e-12</wgt>
  <wgt id="142">6.57981e-12</wgt>
  <wgt id="143">6.58855e-12</wgt>
  <wgt id="144">6.40667e-12</wgt>
  <wgt id="145">6.73817e-12</wgt>
  <wgt id="146">6.63331e-12</wgt>
  <wgt id="147">6.53622e-12</wgt>
  <wgt id="148">6.59859e-12</wgt>
  <wgt id="149">6.57768e-12</wgt>
  <wgt id="150">6.63444e-12</wgt>
  <wgt id="151">6.55342e-12</wgt>
  <wgt id="152">6.58181e-12</wgt>
  <wgt id="153">6.57813e-12</wgt>
  <wgt id="154">6.63211e-12</wgt>
  <wgt id="155">6.51543e-12</wgt>
  <wgt id="156">6.69911e-12</wgt>
  <wgt id="157">6.44971e-12</wgt>
  <wgt id="158">7.91662e-12</wgt>
  <wgt id="159">7.94978e-12</wgt>
  <wgt id="160">7.89008e-12</wgt>
  <wgt id="161">7.89822e-12</wgt>
  <wgt id="162">7.93758e-12</wgt>
  <wgt id="163">7.90852e-12</wgt>
  <wgt id="164">7.92868e-12</wgt>
  <wgt id="165">7.91996e-12</wgt>
  <wgt id="166">7.91415e-12</wgt>
  <wgt id="167">7.91076e-12</wgt>
  <wgt id="168">7.92499e-12</wgt>
  <wgt id="169">7.88251e-12</wgt>
  <wgt id="170">7.93773e-12</wgt>
  <wgt id="171">7.90873e-12</wgt>
  <wgt id="172">7.92766e-12</wgt>
  <wgt id="173">7.91605e-12</wgt>
  <wgt id="174">7.9168e-12</wgt>
  <wgt id="175">7.70254e-12</wgt>
  <wgt id="176">8.19532e-12</wgt>
  <wgt id="177">7.95602e-12</wgt>
  <wgt id="178">7.88041e-12</wgt>
  <wgt id="179">8.23598e-12</wgt>
  <wgt id="180">7.41167e-12</wgt>
  <wgt id="181">7.69471e-12</wgt>
  <wgt id="182">8.06287e-12</wgt>
  <wgt id="183">7.78096e-12</wgt>
  <wgt id="184">7.9838e-12</wgt>
  <wgt id="185">7.85301e-12</wgt>
  <wgt id="186">7.99204e-12</wgt>
  <wgt id="187">7.84592e-12</wgt>
  <wgt id="188">8.04307e-12</wgt>
  <wgt id="189">7.86756e-12</wgt>
  <wgt id="190">7.93658e-12</wgt>
  <wgt id="191">7.93746e-12</wgt>
  <wgt id="192">7.90416e-12</wgt>
  <wgt id="193">8.0241e-12</wgt>
  <wgt id="194">7.86338e-12</wgt>
  <wgt id="195">7.74212e-12</wgt>
  <wgt id="196">8.23739e-12</wgt>
  <wgt id="197">7.95445e-12</wgt>
  <wgt id="198">7.90766e-12</wgt>
  <wgt id="199">7.91662e-12</wgt>
  <wgt id="200">7.98236e-12</wgt>
  <wgt id="201">7.95848e-12</wgt>
  <wgt id="202">7.93499e-12</wgt>
  <wgt id="203">7.89991e-12</wgt>
  <wgt id="204">7.88328e-12</wgt>
  <wgt id="205">7.86949e-12</wgt>
  <wgt id="206">7.71428e-12</wgt>
  <wgt id="207">7.75895e-12</wgt>
  <wgt id="208">7.67043e-12</wgt>
  <wgt id="209">7.73576e-12</wgt>
  <wgt id="210">7.69927e-12</wgt>
  <wgt id="211">7.71236e-12</wgt>
  <wgt id="212">7.71609e-12</wgt>
  <wgt id="213">7.71383e-12</wgt>
  <wgt id="214">7.71532e-12</wgt>
  <wgt id="215">7.71955e-12</wgt>
  <wgt id="216">7.71098e-12</wgt>
  <wgt id="217">7.73485e-12</wgt>
  <wgt id="218">7.69855e-12</wgt>
  <wgt id="219">7.70462e-12</wgt>
  <wgt id="220">7.72063e-12</wgt>
  <wgt id="221">7.7117e-12</wgt>
  <wgt id="222">7.72091e-12</wgt>
  <wgt id="223">7.32091e-12</wgt>
  <wgt id="224">8.07209e-12</wgt>
  <wgt id="225">7.62681e-12</wgt>
  <wgt id="226">7.82461e-12</wgt>
  <wgt id="227">7.64464e-12</wgt>
  <wgt id="228">7.74514e-12</wgt>
  <wgt id="229">7.61142e-12</wgt>
  <wgt id="230">7.76578e-12</wgt>
  <wgt id="231">7.92824e-12</wgt>
  <wgt id="232">7.53825e-12</wgt>
  <wgt id="233">7.67598e-12</wgt>
  <wgt id="234">7.77458e-12</wgt>
  <wgt id="235">7.56781e-12</wgt>
  <wgt id="236">7.8537e-12</wgt>
  <wgt id="237">7.61384e-12</wgt>
  <wgt id="238">7.74899e-12</wgt>
  <wgt id="239">7.67074e-12</wgt>
  <wgt id="240">7.79435e-12</wgt>
  <wgt id="241">7.63923e-12</wgt>
  <wgt id="242">7.80462e-12</wgt>
  <wgt id="243">7.7948e-12</wgt>
  <wgt id="244">7.7584e-12</wgt>
  <wgt id="245">7.70851e-12</wgt>
  <wgt id="246">7.77175e-12</wgt>
  <wgt id="247">7.71428e-12</wgt>
  <wgt id="248">7.78014e-12</wgt>
  <wgt id="249">7.75506e-12</wgt>
  <wgt id="250">7.73166e-12</wgt>
  <wgt id="251">7.69689e-12</wgt>
  <wgt id="252">7.68039e-12</wgt>
  <wgt id="253">7.66851e-12</wgt>
  <wgt id="254">7.542e-12</wgt>
  <wgt id="255">7.54877e-12</wgt>
  <wgt id="256">7.53429e-12</wgt>
  <wgt id="257">7.54769e-12</wgt>
  <wgt id="258">7.5376e-12</wgt>
  <wgt id="259">7.59177e-12</wgt>
  <wgt id="260">7.49353e-12</wgt>
  <wgt id="261">7.55027e-12</wgt>
  <wgt id="262">7.53178e-12</wgt>
  <wgt id="263">7.53869e-12</wgt>
  <wgt id="264">7.54532e-12</wgt>
  <wgt id="265">7.53396e-12</wgt>
  <wgt id="266">7.55799e-12</wgt>
  <wgt id="267">7.544e-12</wgt>
  <wgt id="268">7.53867e-12</wgt>
  <wgt id="269">7.56392e-12</wgt>
  <wgt id="270">7.52683e-12</wgt>
  <wgt id="271">7.52875e-12</wgt>
  <wgt id="272">7.55682e-12</wgt>
  <wgt id="273">7.51979e-12</wgt>
  <wgt id="274">7.55859e-12</wgt>
  <wgt id="275">7.51196e-12</wgt>
  <wgt id="276">7.57288e-12</wgt>
  <wgt id="277">7.50037e-12</wgt>
  <wgt id="278">7.58024e-12</wgt>
  <wgt id="279">7.40531e-12</wgt>
  <wgt id="280">7.71305e-12</wgt>
  <wgt id="281">7.51116e-12</wgt>
  <wgt id="282">7.54309e-12</wgt>
  <wgt id="283">7.33625e-12</wgt>
  <wgt id="284">7.79456e-12</wgt>
  <wgt id="285">7.19896e-12</wgt>
  <wgt id="286">7.82448e-12</wgt>
  <wgt id="287">7.56464e-12</wgt>
  <wgt id="288">7.51277e-12</wgt>
  <wgt id="289">7.59226e-12</wgt>
  <wgt id="290">7.42411e-12</wgt>
  <wgt id="291">7.52257e-12</wgt>
  <wgt id="292">7.54624e-12</wgt>
  <wgt id="293">7.48674e-12</wgt>
  <wgt id="294">7.59676e-12</wgt>
  <wgt id="295">7.40537e-12</wgt>
  <wgt id="296">7.70813e-12</wgt>
  <wgt id="297">7.54328e-12</wgt>
  <wgt id="298">7.56653e-12</wgt>
  <wgt id="299">7.51915e-12</wgt>
  <wgt id="300">7.60197e-12</wgt>
  <wgt id="301">7.45317e-12</wgt>
  <wgt id="302">7.77671e-12</wgt>
  <wgt id="303">7.49104e-12</wgt>
  <wgt id="304">7.57116e-12</wgt>
  <wgt id="305">7.56926e-12</wgt>
  <wgt id="306">7.57684e-12</wgt>
  <wgt id="307">7.56075e-12</wgt>
  <wgt id="308">7.57597e-12</wgt>
  <wgt id="309">7.56493e-12</wgt>
  <wgt id="310">7.6214e-12</wgt>
  <wgt id="311">7.5208e-12</wgt>
  <wgt id="312">7.57543e-12</wgt>
  <wgt id="313">7.56299e-12</wgt>
  <wgt id="314">7.56598e-12</wgt>
  <wgt id="315">7.57196e-12</wgt>
  <wgt id="316">7.56139e-12</wgt>
  <wgt id="317">7.58566e-12</wgt>
  <wgt id="318">7.57417e-12</wgt>
  <wgt id="319">7.56034e-12</wgt>
  <wgt id="320">7.59231e-12</wgt>
  <wgt id="321">7.55612e-12</wgt>
  <wgt id="322">7.55191e-12</wgt>
  <wgt id="323">7.58886e-12</wgt>
  <wgt id="324">7.55102e-12</wgt>
  <wgt id="325">7.58483e-12</wgt>
  <wgt id="326">7.54486e-12</wgt>
  <wgt id="327">7.60029e-12</wgt>
  <wgt id="328">7.53067e-12</wgt>
  <wgt id="329">7.59094e-12</wgt>
  <wgt id="330">7.78144e-12</wgt>
  <wgt id="331">7.36631e-12</wgt>
  <wgt id="332">7.54345e-12</wgt>
  <wgt id="333">7.56929e-12</wgt>
  <wgt id="334">7.40761e-12</wgt>
  <wgt id="335">7.76942e-12</wgt>
  <wgt id="336">7.31972e-12</wgt>
  <wgt id="337">7.87149e-12</wgt>
  <wgt id="338">7.6495e-12</wgt>
  <wgt id="339">7.49455e-12</wgt>
  <wgt id="340">7.61657e-12</wgt>
  <wgt id="341">7.44579e-12</wgt>
  <wgt id="342">7.55616e-12</wgt>
  <wgt id="343">7.56188e-12</wgt>
  <wgt id="344">7.51901e-12</wgt>
  <wgt id="345">7.62726e-12</wgt>
  <wgt id="346">7.42723e-12</wgt>
  <wgt id="347">7.73218e-12</wgt>
  <wgt id="348">7.57425e-12</wgt>
  <wgt id="349">7.58906e-12</wgt>
  <wgt id="350">7.54034e-12</wgt>
  <wgt id="351">7.64203e-12</wgt>
  <wgt id="352">7.4716e-12</wgt>
  <wgt id="353">7.81517e-12</wgt>
  <wgt id="354">7.49203e-12</wgt>
  <wgt id="355">7.61703e-12</wgt>
  <wgt id="356">7.542e-12</wgt>
  <wgt id="357">7.60119e-12</wgt>
  <wgt id="358">7.56926e-12</wgt>
  <wgt id="359">7.56931e-12</wgt>
  <wgt id="360">7.58688e-12</wgt>
  <wgt id="361">7.564e-12</wgt>
  <wgt id="362">7.6885e-12</wgt>
  <wgt id="363">7.6712e-12</wgt>
  <wgt id="364">7.6464e-12</wgt>
  <wgt id="365">7.62218e-12</wgt>
  <wgt id="366">7.59447e-12</wgt>
  <wgt id="367">7.53826e-12</wgt>
  <wgt id="368">7.50676e-12</wgt>
  <wgt id="369">7.47272e-12</wgt>
  <wgt id="370">7.564e-12</wgt>
  <wgt id="371">7.59743e-12</wgt>
  <wgt id="372">7.57917e-12</wgt>
  <wgt id="373">7.55177e-12</wgt>
  <wgt id="374">7.54932e-12</wgt>
  <wgt id="375">8.05525e-12</wgt>
  <wgt id="376">8.0562e-12</wgt>
  <wgt id="377">8.054e-12</wgt>
  <wgt id="378">8.08438e-12</wgt>
  <wgt id="379">8.02638e-12</wgt>
  <wgt id="380">8.0772e-12</wgt>
  <wgt id="381">8.04666e-12</wgt>
  <wgt id="382">8.09398e-12</wgt>
  <wgt id="383">8.01682e-12</wgt>
  <wgt id="384">8.06044e-12</wgt>
  <wgt id="385">8.05031e-12</wgt>
  <wgt id="386">8.08473e-12</wgt>
  <wgt id="387">8.04248e-12</wgt>
  <wgt id="388">8.04792e-12</wgt>
  <wgt id="389">8.06382e-12</wgt>
  <wgt id="390">8.07555e-12</wgt>
  <wgt id="391">8.03388e-12</wgt>
  <wgt id="392">7.99879e-12</wgt>
  <wgt id="393">8.08746e-12</wgt>
  <wgt id="394">8.0661e-12</wgt>
  <wgt id="395">8.04052e-12</wgt>
  <wgt id="396">8.05913e-12</wgt>
  <wgt id="397">8.05251e-12</wgt>
  <wgt id="398">8.02594e-12</wgt>
  <wgt id="399">8.08374e-12</wgt>
  <wgt id="400">8.04335e-12</wgt>
  <wgt id="401">8.08196e-12</wgt>
  <wgt id="402">7.99374e-12</wgt>
  <wgt id="403">8.0817e-12</wgt>
  <wgt id="404">8.23154e-12</wgt>
  <wgt id="405">7.62892e-12</wgt>
  <wgt id="406">7.92767e-12</wgt>
  <wgt id="407">8.3313e-12</wgt>
  <wgt id="408">8.12044e-12</wgt>
  <wgt id="409">7.93008e-12</wgt>
  <wgt id="410">7.84596e-12</wgt>
  <wgt id="411">8.15196e-12</wgt>
  <wgt id="412">8.04137e-12</wgt>
  <wgt id="413">8.07447e-12</wgt>
  <wgt id="414">7.97158e-12</wgt>
  <wgt id="415">8.12048e-12</wgt>
  <wgt id="416">8.25348e-12</wgt>
  <wgt id="417">7.78092e-12</wgt>
  <wgt id="418">8.06566e-12</wgt>
  <wgt id="419">7.9985e-12</wgt>
  <wgt id="420">8.15774e-12</wgt>
  <wgt id="421">7.99929e-12</wgt>
  <wgt id="422">8.04801e-12</wgt>
  <wgt id="423">8.06042e-12</wgt>
  <wgt id="424">8.20106e-12</wgt>
  <wgt id="425">7.96446e-12</wgt>
  <wgt id="426">8.05525e-12</wgt>
  <wgt id="427">7.98906e-12</wgt>
  <wgt id="428">8.24778e-12</wgt>
  <wgt id="429">8.12135e-12</wgt>
  <wgt id="430">8.33727e-12</wgt>
  <wgt id="431">8.29436e-12</wgt>
  <wgt id="432">8.25364e-12</wgt>
  <wgt id="433">8.21412e-12</wgt>
  <wgt id="434">8.16628e-12</wgt>
  <wgt id="435">8.06549e-12</wgt>
  <wgt id="436">8.01353e-12</wgt>
  <wgt id="437">7.96422e-12</wgt>
  <wgt id="438">8.12135e-12</wgt>
  <wgt id="439">8.14788e-12</wgt>
  <wgt id="440">8.13243e-12</wgt>
  <wgt id="441">8.11318e-12</wgt>
  <wgt id="442">8.10625e-12</wgt>
  <wgt id="443">7.87345e-12</wgt>
  <wgt id="444">7.91539e-12</wgt>
  <wgt id="445">7.85948e-12</wgt>
  <wgt id="446">7.82362e-12</wgt>
  <wgt id="447">7.85378e-12</wgt>
  <wgt id="448">7.68059e-12</wgt>
  <wgt id="449">7.98977e-12</wgt>
  <wgt id="450">7.86086e-12</wgt>
  <wgt id="451">7.86103e-12</wgt>
  <wgt id="452">8.03516e-12</wgt>
  <wgt id="453">7.9373e-12</wgt>
  <wgt id="454">7.5654e-12</wgt>
  <wgt id="455">7.88968e-12</wgt>
  <wgt id="456">7.80815e-12</wgt>
  <wgt id="457">7.90011e-12</wgt>
  <wgt id="458">7.96497e-12</wgt>
  <wgt id="459">7.92646e-12</wgt>
  <wgt id="460">7.92988e-12</wgt>
  <wgt id="461">7.73909e-12</wgt>
  <wgt id="462">7.82041e-12</wgt>
  <wgt id="463">7.78993e-12</wgt>
  <wgt id="464">7.83667e-12</wgt>
  <wgt id="465">7.94687e-12</wgt>
  <wgt id="466">7.7851e-12</wgt>
  <wgt id="467">7.80684e-12</wgt>
  <wgt id="468">7.85523e-12</wgt>
  <wgt id="469">7.8574e-12</wgt>
  <wgt id="470">7.80265e-12</wgt>
  <wgt id="471">7.81008e-12</wgt>
  <wgt id="472">7.90576e-12</wgt>
  <wgt id="473">7.65475e-12</wgt>
  <wgt id="474">5.79e-12</wgt>
  <wgt id="475">6.06483e-12</wgt>
  <wgt id="476">5.68678e-12</wgt>
  <wgt id="477">5.63307e-12</wgt>
  <wgt id="478">5.83294e-12</wgt>
  <wgt id="479">5.7019e-12</wgt>
  <wgt id="480">5.99209e-12</wgt>
  <wgt id="481">5.69737e-12</wgt>
  <wgt id="482">5.62327e-12</wgt>
  <wgt id="483">5.64854e-12</wgt>
  <wgt id="484">6.08377e-12</wgt>
  <wgt id="485">5.74364e-12</wgt>
  <wgt id="486">5.95918e-12</wgt>
  <wgt id="487">5.83851e-12</wgt>
  <wgt id="488">5.88367e-12</wgt>
  <wgt id="489">5.53781e-12</wgt>
  <wgt id="490">5.6057e-12</wgt>
  <wgt id="491">5.75127e-12</wgt>
  <wgt id="492">5.64949e-12</wgt>
  <wgt id="493">5.57953e-12</wgt>
  <wgt id="494">5.61603e-12</wgt>
  <wgt id="495">5.84073e-12</wgt>
  <wgt id="496">5.60359e-12</wgt>
  <wgt id="497">5.57505e-12</wgt>
  <wgt id="498">5.89943e-12</wgt>
  <wgt id="499">5.68221e-12</wgt>
  <wgt id="500">5.67848e-12</wgt>
  <wgt id="501">6.02396e-12</wgt>
  <wgt id="502">5.68844e-12</wgt>
  <wgt id="503">5.78985e-12</wgt>
  <wgt id="504">5.84486e-12</wgt>
  <wgt id="505">5.71149e-12</wgt>
  <wgt id="506">5.82107e-12</wgt>
  <wgt id="507">5.76176e-12</wgt>
  <wgt id="508">5.93043e-12</wgt>
  <wgt id="509">5.56453e-12</wgt>
  <wgt id="510">5.9194e-12</wgt>
  <wgt id="511">5.64001e-12</wgt>
  <wgt id="512">5.90288e-12</wgt>
  <wgt id="513">5.97954e-12</wgt>
  <wgt id="514">5.7967e-12</wgt>
  <wgt id="515">5.74489e-12</wgt>
  <wgt id="516">6.01062e-12</wgt>
  <wgt id="517">5.92438e-12</wgt>
  <wgt id="518">5.94765e-12</wgt>
  <wgt id="519">5.64991e-12</wgt>
  <wgt id="520">5.86198e-12</wgt>
  <wgt id="521">5.96977e-12</wgt>
  <wgt id="522">6.02553e-12</wgt>
  <wgt id="523">5.8252e-12</wgt>
  <wgt id="524">5.82168e-12</wgt>
  <wgt id="525">5.93927e-12</wgt>
  <wgt id="526">5.82251e-12</wgt>
  <wgt id="527">5.86859e-12</wgt>
  <wgt id="528">5.80494e-12</wgt>
  <wgt id="529">5.72536e-12</wgt>
  <wgt id="530">5.87592e-12</wgt>
  <wgt id="531">5.70545e-12</wgt>
  <wgt id="532">6.11774e-12</wgt>
  <wgt id="533">5.49727e-12</wgt>
  <wgt id="534">5.78286e-12</wgt>
  <wgt id="535">5.83981e-12</wgt>
  <wgt id="536">5.75984e-12</wgt>
  <wgt id="537">5.79592e-12</wgt>
  <wgt id="538">5.87368e-12</wgt>
  <wgt id="539">5.67837e-12</wgt>
  <wgt id="540">5.74081e-12</wgt>
  <wgt id="541">5.64557e-12</wgt>
  <wgt id="542">5.69843e-12</wgt>
  <wgt id="543">5.77932e-12</wgt>
  <wgt id="544">6.05494e-12</wgt>
  <wgt id="545">5.69476e-12</wgt>
  <wgt id="546">5.67239e-12</wgt>
  <wgt id="547">5.64318e-12</wgt>
  <wgt id="548">5.55857e-12</wgt>
  <wgt id="549">5.70419e-12</wgt>
  <wgt id="550">5.72183e-12</wgt>
  <wgt id="551">5.87032e-12</wgt>
  <wgt id="552">5.66939e-12</wgt>
  <wgt id="553">5.75445e-12</wgt>
  <wgt id="554">6.20439e-12</wgt>
  <wgt id="555">5.95365e-12</wgt>
  <wgt id="556">5.6057e-12</wgt>
  <wgt id="557">5.90951e-12</wgt>
  <wgt id="558">5.63394e-12</wgt>
  <wgt id="559">5.68982e-12</wgt>
  <wgt id="560">6.29548e-12</wgt>
  <wgt id="561">5.69331e-12</wgt>
  <wgt id="562">5.91351e-12</wgt>
  <wgt id="563">5.71787e-12</wgt>
  <wgt id="564">5.86654e-12</wgt>
  <wgt id="565">5.63717e-12</wgt>
  <wgt id="566">5.86102e-12</wgt>
  <wgt id="567">5.72623e-12</wgt>
  <wgt id="568">5.78365e-12</wgt>
  <wgt id="569">5.86562e-12</wgt>
  <wgt id="570">5.60725e-12</wgt>
  <wgt id="571">6.39668e-12</wgt>
  <wgt id="572">5.68684e-12</wgt>
  <wgt id="573">5.56783e-12</wgt>
  <wgt id="574">5.60913e-12</wgt>
  <wgt id="575">6.35046e-12</wgt>
  <wgt id="576">6.34564e-12</wgt>
  <wgt id="577">6.55994e-12</wgt>
  <wgt id="578">6.51119e-12</wgt>
  <wgt id="579">6.46549e-12</wgt>
  <wgt id="580">6.50792e-12</wgt>
  <wgt id="581">6.78176e-12</wgt>
  <wgt id="582">6.33744e-12</wgt>
  <wgt id="583">6.40406e-12</wgt>
  <wgt id="584">6.34066e-12</wgt>
  <wgt id="585">6.30768e-12</wgt>
  <wgt id="586">6.17832e-12</wgt>
  <wgt id="587">6.43453e-12</wgt>
  <wgt id="588">6.34473e-12</wgt>
  <wgt id="589">6.49079e-12</wgt>
  <wgt id="590">6.40398e-12</wgt>
  <wgt id="591">6.59478e-12</wgt>
  <wgt id="592">6.13538e-12</wgt>
  <wgt id="593">6.30637e-12</wgt>
  <wgt id="594">6.55857e-12</wgt>
  <wgt id="595">6.34993e-12</wgt>
  <wgt id="596">6.49924e-12</wgt>
  <wgt id="597">6.18527e-12</wgt>
  <wgt id="598">6.18878e-12</wgt>
  <wgt id="599">6.60001e-12</wgt>
  <wgt id="600">6.33264e-12</wgt>
  <wgt id="601">6.16997e-12</wgt>
  <wgt id="602">6.19464e-12</wgt>
  <wgt id="603">6.22741e-12</wgt>
  <wgt id="604">6.44236e-12</wgt>
  <wgt id="605">6.59394e-12</wgt>
  <wgt id="606">6.26877e-12</wgt>
  <wgt id="607">6.31137e-12</wgt>
  <wgt id="608">6.39816e-12</wgt>
  <wgt id="609">6.04126e-12</wgt>
  <wgt id="610">6.1224e-12</wgt>
  <wgt id="611">6.39324e-12</wgt>
  <wgt id="612">6.81858e-12</wgt>
  <wgt id="613">6.33019e-12</wgt>
  <wgt id="614">6.39641e-12</wgt>
  <wgt id="615">6.25696e-12</wgt>
  <wgt id="616">6.68383e-12</wgt>
  <wgt id="617">6.51425e-12</wgt>
  <wgt id="618">6.5881e-12</wgt>
  <wgt id="619">6.30194e-12</wgt>
  <wgt id="620">6.55477e-12</wgt>
  <wgt id="621">6.39564e-12</wgt>
  <wgt id="622">6.43453e-12</wgt>
  <wgt id="623">6.50863e-12</wgt>
  <wgt id="624">6.32754e-12</wgt>
  <wgt id="625">6.25348e-12</wgt>
  <wgt id="626">6.15886e-12</wgt>
  <wgt id="627">6.09707e-12</wgt>
  <wgt id="628">6.54468e-12</wgt>
  <wgt id="629">6.25195e-12</wgt>
  <wgt id="630">6.15962e-12</wgt>
  <wgt id="631">6.37326e-12</wgt>
  <wgt id="632">6.11142e-12</wgt>
  <wgt id="633">6.29645e-12</wgt>
  <wgt id="634">6.32084e-12</wgt>
  <wgt id="635">6.19271e-12</wgt>
  <wgt id="636">6.41302e-12</wgt>
  <wgt id="637">6.37019e-12</wgt>
  <wgt id="638">6.14378e-12</wgt>
  <wgt id="639">6.27189e-12</wgt>
  <wgt id="640">6.3589e-12</wgt>
  <wgt id="641">6.42128e-12</wgt>
  <wgt id="642">6.12529e-12</wgt>
  <wgt id="643">6.31983e-12</wgt>
  <wgt id="644">6.02781e-12</wgt>
  <wgt id="645">6.3855e-12</wgt>
  <wgt id="646">6.38394e-12</wgt>
  <wgt id="647">6.26833e-12</wgt>
  <wgt id="648">6.4176e-12</wgt>
  <wgt id="649">6.42171e-12</wgt>
  <wgt id="650">6.21039e-12</wgt>
  <wgt id="651">6.47111e-12</wgt>
  <wgt id="652">6.30638e-12</wgt>
  <wgt id="653">6.17593e-12</wgt>
  <wgt id="654">6.27903e-12</wgt>
  <wgt id="655">6.24243e-12</wgt>
  <wgt id="656">6.33289e-12</wgt>
  <wgt id="657">6.61807e-12</wgt>
  <wgt id="658">6.39189e-12</wgt>
  <wgt id="659">6.10318e-12</wgt>
  <wgt id="660">6.44238e-12</wgt>
  <wgt id="661">6.26511e-12</wgt>
  <wgt id="662">6.32146e-12</wgt>
  <wgt id="663">6.35856e-12</wgt>
  <wgt id="664">6.27926e-12</wgt>
  <wgt id="665">6.34196e-12</wgt>
  <wgt id="666">6.3126e-12</wgt>
  <wgt id="667">6.57081e-12</wgt>
  <wgt id="668">6.33543e-12</wgt>
  <wgt id="669">6.49791e-12</wgt>
  <wgt id="670">6.47729e-12</wgt>
  <wgt id="671">6.28832e-12</wgt>
  <wgt id="672">6.09424e-12</wgt>
  <wgt id="673">6.3885e-12</wgt>
  <wgt id="674">6.21368e-12</wgt>
  <wgt id="675">6.24859e-12</wgt>
  <wgt id="676">7.95359e-12</wgt>
  <wgt id="677">8.05836e-12</wgt>
  <wgt id="678">8.34595e-12</wgt>
  <wgt id="679">7.57829e-12</wgt>
  <wgt id="680">7.76103e-12</wgt>
  <wgt id="681">8.11143e-12</wgt>
  <wgt id="682">8.13286e-12</wgt>
  <wgt id="683">7.83541e-12</wgt>
  <wgt id="684">8.27991e-12</wgt>
  <wgt id="685">7.62818e-12</wgt>
  <wgt id="686">7.84639e-12</wgt>
  <wgt id="687">8.27055e-12</wgt>
  <wgt id="688">7.86497e-12</wgt>
  <wgt id="689">8.42119e-12</wgt>
  <wgt id="690">8.32819e-12</wgt>
  <wgt id="691">8.34074e-12</wgt>
  <wgt id="692">7.90179e-12</wgt>
  <wgt id="693">9.27985e-12</wgt>
  <wgt id="694">8.43331e-12</wgt>
  <wgt id="695">7.70208e-12</wgt>
  <wgt id="696">7.64649e-12</wgt>
  <wgt id="697">7.66425e-12</wgt>
  <wgt id="698">7.33229e-12</wgt>
  <wgt id="699">7.25138e-12</wgt>
  <wgt id="700">7.06305e-12</wgt>
  <wgt id="701">7.95916e-12</wgt>
  <wgt id="702">7.73746e-12</wgt>
  <wgt id="703">9.05857e-12</wgt>
  <wgt id="704">8.65463e-12</wgt>
  <wgt id="705">8.3801e-12</wgt>
  <wgt id="706">7.50415e-12</wgt>
  <wgt id="707">7.64101e-12</wgt>
  <wgt id="708">7.8319e-12</wgt>
  <wgt id="709">7.80369e-12</wgt>
  <wgt id="710">7.24916e-12</wgt>
  <wgt id="711">7.93145e-12</wgt>
  <wgt id="712">7.78514e-12</wgt>
  <wgt id="713">8.50781e-12</wgt>
  <wgt id="714">7.80135e-12</wgt>
  <wgt id="715">7.85458e-12</wgt>
  <wgt id="716">7.67327e-12</wgt>
  <wgt id="717">7.55503e-12</wgt>
  <wgt id="718">7.93819e-12</wgt>
  <wgt id="719">7.27193e-12</wgt>
  <wgt id="720">7.60436e-12</wgt>
  <wgt id="721">7.37404e-12</wgt>
  <wgt id="722">7.10256e-12</wgt>
  <wgt id="723">8.44808e-12</wgt>
  <wgt id="724">8.30823e-12</wgt>
  <wgt id="725">8.36098e-12</wgt>
  <wgt id="726">8.00689e-12</wgt>
  <wgt id="727">7.79657e-12</wgt>
  <wgt id="728">7.80701e-12</wgt>
  <wgt id="729">7.48512e-12</wgt>
  <wgt id="730">8.45649e-12</wgt>
  <wgt id="731">7.84521e-12</wgt>
  <wgt id="732">8.71866e-12</wgt>
  <wgt id="733">7.8562e-12</wgt>
  <wgt id="734">8.12816e-12</wgt>
  <wgt id="735">7.9857e-12</wgt>
  <wgt id="736">7.7862e-12</wgt>
  <wgt id="737">8.04766e-12</wgt>
  <wgt id="738">7.64729e-12</wgt>
  <wgt id="739">8.0671e-12</wgt>
  <wgt id="740">8.81259e-12</wgt>
  <wgt id="741">7.18306e-12</wgt>
  <wgt id="742">7.85533e-12</wgt>
  <wgt id="743">7.63113e-12</wgt>
  <wgt id="744">7.78993e-12</wgt>
  <wgt id="745">8.27034e-12</wgt>
  <wgt id="746">8.39827e-12</wgt>
  <wgt id="747">7.22826e-12</wgt>
  <wgt id="748">7.84332e-12</wgt>
  <wgt id="749">8.3359e-12</wgt>
  <wgt id="750">8.175e-12</wgt>
  <wgt id="751">8.16494e-12</wgt>
  <wgt id="752">7.33851e-12</wgt>
  <wgt id="753">7.52897e-12</wgt>
  <wgt id="754">8.20128e-12</wgt>
  <wgt id="755">7.96774e-12</wgt>
  <wgt id="756">7.94815e-12</wgt>
  <wgt id="757">7.34738e-12</wgt>
  <wgt id="758">7.98397e-12</wgt>
  <wgt id="759">8.20644e-12</wgt>
  <wgt id="760">8.02251e-12</wgt>
  <wgt id="761">8.38796e-12</wgt>
  <wgt id="762">8.40225e-12</wgt>
  <wgt id="763">7.95089e-12</wgt>
  <wgt id="764">8.24537e-12</wgt>
  <wgt id="765">8.02488e-12</wgt>
  <wgt id="766">7.93714e-12</wgt>
  <wgt id="767">8.11352e-12</wgt>
  <wgt id="768">7.52017e-12</wgt>
  <wgt id="769">8.40259e-12</wgt>
  <wgt id="770">7.81342e-12</wgt>
  <wgt id="771">9.30154e-12</wgt>
  <wgt id="772">7.54395e-12</wgt>
  <wgt id="773">7.90536e-12</wgt>
  <wgt id="774">7.05847e-12</wgt>
  <wgt id="775">8.30107e-12</wgt>
  <wgt id="776">8.61168e-12</wgt>
  <wgt id="777">7.6024e-12</wgt>
  <wgt id="778">5.89448e-12</wgt>
  <wgt id="779">4.86005e-12</wgt>
  <wgt id="780">3.98273e-12</wgt>
  <wgt id="781">6.24516e-12</wgt>
  <wgt id="782">6.28714e-12</wgt>
  <wgt id="783">4.91943e-12</wgt>
  <wgt id="784">5.13956e-12</wgt>
  <wgt id="785">7.21675e-12</wgt>
  <wgt id="786">4.5566e-12</wgt>
  <wgt id="787">6.68351e-12</wgt>
  <wgt id="788">3.67408e-12</wgt>
  <wgt id="789">4.89161e-12</wgt>
  <wgt id="790">4.4979e-12</wgt>
  <wgt id="791">5.66108e-12</wgt>
  <wgt id="792">7.76538e-12</wgt>
  <wgt id="793">5.79162e-12</wgt>
  <wgt id="794">4.50361e-12</wgt>
  <wgt id="795">6.86097e-12</wgt>
  <wgt id="796">7.65966e-12</wgt>
  <wgt id="797">6.85147e-12</wgt>
  <wgt id="798">5.37279e-12</wgt>
  <wgt id="799">6.66519e-12</wgt>
  <wgt id="800">4.89708e-12</wgt>
  <wgt id="801">5.50796e-12</wgt>
  <wgt id="802">4.52346e-12</wgt>
  <wgt id="803">7.88696e-12</wgt>
  <wgt id="804">6.82234e-12</wgt>
  <wgt id="805">6.8969e-12</wgt>
  <wgt id="806">6.53416e-12</wgt>
  <wgt id="807">5.64734e-12</wgt>
  <wgt id="808">5.71106e-12</wgt>
  <wgt id="809">5.4734e-12</wgt>
  <wgt id="810">6.62195e-12</wgt>
  <wgt id="811">6.36145e-12</wgt>
  <wgt id="812">4.51007e-12</wgt>
  <wgt id="813">4.59344e-12</wgt>
  <wgt id="814">4.89997e-12</wgt>
  <wgt id="815">4.86906e-12</wgt>
  <wgt id="816">4.41253e-12</wgt>
  <wgt id="817">6.13711e-12</wgt>
  <wgt id="818">5.95281e-12</wgt>
  <wgt id="819">4.88092e-12</wgt>
  <wgt id="820">5.87296e-12</wgt>
  <wgt id="821">6.69494e-12</wgt>
  <wgt id="822">4.94492e-12</wgt>
  <wgt id="823">6.766e-12</wgt>
  <wgt id="824">7.86158e-12</wgt>
  <wgt id="825">4.35629e-12</wgt>
  <wgt id="826">6.24658e-12</wgt>
  <wgt id="827">3.65942e-12</wgt>
  <wgt id="828">7.51732e-12</wgt>
  <wgt id="829">6.07408e-12</wgt>
  <wgt id="830">4.14153e-12</wgt>
  <wgt id="831">6.33837e-12</wgt>
  <wgt id="832">9.51914e-12</wgt>
  <wgt id="833">5.46622e-12</wgt>
  <wgt id="834">9.01016e-12</wgt>
  <wgt id="835">4.83246e-12</wgt>
  <wgt id="836">5.75557e-12</wgt>
  <wgt id="837">6.61345e-12</wgt>
  <wgt id="838">5.52741e-12</wgt>
  <wgt id="839">6.30475e-12</wgt>
  <wgt id="840">5.50769e-12</wgt>
  <wgt id="841">7.2063e-12</wgt>
  <wgt id="842">5.43155e-12</wgt>
  <wgt id="843">5.84166e-12</wgt>
  <wgt id="844">6.13269e-12</wgt>
  <wgt id="845">8.35741e-12</wgt>
  <wgt id="846">5.76127e-12</wgt>
  <wgt id="847">5.94773e-12</wgt>
  <wgt id="848">5.05316e-12</wgt>
  <wgt id="849">6.04759e-12</wgt>
  <wgt id="850">7.61969e-12</wgt>
  <wgt id="851">6.45926e-12</wgt>
  <wgt id="852">4.90976e-12</wgt>
  <wgt id="853">6.47825e-12</wgt>
  <wgt id="854">7.16346e-12</wgt>
  <wgt id="855">6.73229e-12</wgt>
  <wgt id="856">4.22428e-12</wgt>
  <wgt id="857">5.85065e-12</wgt>
  <wgt id="858">5.70784e-12</wgt>
  <wgt id="859">5.53987e-12</wgt>
  <wgt id="860">6.37952e-12</wgt>
  <wgt id="861">5.23113e-12</wgt>
  <wgt id="862">5.96466e-12</wgt>
  <wgt id="863">6.23479e-12</wgt>
  <wgt id="864">6.19812e-12</wgt>
  <wgt id="865">8.30087e-12</wgt>
  <wgt id="866">9.1186e-12</wgt>
  <wgt id="867">5.95864e-12</wgt>
  <wgt id="868">5.79793e-12</wgt>
  <wgt id="869">4.56908e-12</wgt>
  <wgt id="870">4.82423e-12</wgt>
  <wgt id="871">4.68828e-12</wgt>
  <wgt id="872">7.01862e-12</wgt>
  <wgt id="873">4.95379e-12</wgt>
  <wgt id="874">6.19256e-12</wgt>
  <wgt id="875">5.11787e-12</wgt>
  <wgt id="876">6.98207e-12</wgt>
  <wgt id="877">6.64727e-12</wgt>
  <wgt id="878">5.06498e-12</wgt>
  <wgt id="879">7.95359e-12</wgt>
  <wgt id="880">8.05836e-12</wgt>
  <wgt id="881">8.34595e-12</wgt>
  <wgt id="882">7.57829e-12</wgt>
  <wgt id="883">7.76103e-12</wgt>
  <wgt id="884">8.11143e-12</wgt>
  <wgt id="885">8.13286e-12</wgt>
  <wgt id="886">7.83541e-12</wgt>
  <wgt id="887">8.27991e-12</wgt>
  <wgt id="888">7.62818e-12</wgt>
  <wgt id="889">7.84639e-12</wgt>
  <wgt id="890">8.27055e-12</wgt>
  <wgt id="891">7.86497e-12</wgt>
  <wgt id="892">8.42119e-12</wgt>
  <wgt id="893">8.32819e-12</wgt>
  <wgt id="894">8.34074e-12</wgt>
  <wgt id="895">7.90179e-12</wgt>
  <wgt id="896">9.27985e-12</wgt>
  <wgt id="897">8.43331e-12</wgt>
  <wgt id="898">7.70208e-12</wgt>
  <wgt id="899">7.64649e-12</wgt>
  <wgt id="900">7.66425e-12</wgt>
  <wgt id="901">7.33229e-12</wgt>
  <wgt id="902">7.25138e-12</wgt>
  <wgt id="903">7.06305e-12</wgt>
  <wgt id="904">7.95916e-12</wgt>
  <wgt id="905">7.73746e-12</wgt>
  <wgt id="906">9.05857e-12</wgt>
  <wgt id="907">8.65463e-12</wgt>
  <wgt id="908">8.3801e-12</wgt>
  <wgt id="909">7.50415e-12</wgt>
  <wgt id="910">7.64101e-12</wgt>
  <wgt id="911">7.8319e-12</wgt>
  <wgt id="912">7.80369e-12</wgt>
  <wgt id="913">7.24916e-12</wgt>
  <wgt id="914">7.93145e-12</wgt>
  <wgt id="915">7.78514e-12</wgt>
  <wgt id="916">8.50781e-12</wgt>
  <wgt id="917">7.80135e-12</wgt>
  <wgt id="918">7.85458e-12</wgt>
  <wgt id="919">7.67327e-12</wgt>
  <wgt id="920">7.55503e-12</wgt>
  <wgt id="921">7.93819e-12</wgt>
  <wgt id="922">7.27193e-12</wgt>
  <wgt id="923">7.60436e-12</wgt>
  <wgt id="924">7.37404e-12</wgt>
  <wgt id="925">7.10256e-12</wgt>
  <wgt id="926">8.44808e-12</wgt>
  <wgt id="927">8.30823e-12</wgt>
  <wgt id="928">8.36098e-12</wgt>
  <wgt id="929">8.00689e-12</wgt>
  <wgt id="930">7.79657e-12</wgt>
  <wgt id="931">7.80701e-12</wgt>
  <wgt id="932">7.48512e-12</wgt>
  <wgt id="933">8.45649e-12</wgt>
  <wgt id="934">7.84521e-12</wgt>
  <wgt id="935">8.71866e-12</wgt>
  <wgt id="936">7.8562e-12</wgt>
  <wgt id="937">8.12816e-12</wgt>
  <wgt id="938">7.9857e-12</wgt>
  <wgt id="939">7.7862e-12</wgt>
  <wgt id="940">8.04766e-12</wgt>
  <wgt id="941">7.64729e-12</wgt>
  <wgt id="942">8.0671e-12</wgt>
  <wgt id="943">8.81259e-12</wgt>
  <wgt id="944">7.18306e-12</wgt>
  <wgt id="945">7.85533e-12</wgt>
  <wgt id="946">7.63113e-12</wgt>
  <wgt id="947">7.78993e-12</wgt>
  <wgt id="948">8.27034e-12</wgt>
  <wgt id="949">8.39827e-12</wgt>
  <wgt id="950">7.22826e-12</wgt>
  <wgt id="951">7.84332e-12</wgt>
  <wgt id="952">8.3359e-12</wgt>
  <wgt id="953">8.175e-12</wgt>
  <wgt id="954">8.16494e-12</wgt>
  <wgt id="955">7.33851e-12</wgt>
  <wgt id="956">7.52897e-12</wgt>
  <wgt id="957">8.20128e-12</wgt>
  <wgt id="958">7.96774e-12</wgt>
  <wgt id="959">7.94815e-12</wgt>
  <wgt id="960">7.34738e-12</wgt>
  <wgt id="961">7.98397e-12</wgt>
  <wgt id="962">8.20644e-12</wgt>
  <wgt id="963">8.02251e-12</wgt>
  <wgt id="964">8.38796e-12</wgt>
  <wgt id="965">8.40225e-12</wgt>
  <wgt id="966">7.95089e-12</wgt>
  <wgt id="967">8.24537e-12</wgt>
  <wgt id="968">8.02488e-12</wgt>
  <wgt id="969">7.93714e-12</wgt>
  <wgt id="970">8.11352e-12</wgt>
  <wgt id="971">7.52017e-12</wgt>
  <wgt id="972">8.40259e-12</wgt>
  <wgt id="973">7.81342e-12</wgt>
  <wgt id="974">9.30154e-12</wgt>
  <wgt id="975">7.54395e-12</wgt>
  <wgt id="976">7.90536e-12</wgt>
  <wgt id="977">7.05847e-12</wgt>
  <wgt id="978">8.30107e-12</wgt>
  <wgt id="979">8.61168e-12</wgt>
  <wgt id="980">7.95186e-12</wgt>
  <wgt id="981">7.98821e-12</wgt>
  <wgt id="982">7.72051e-12</wgt>
</rwgt>
</event>
<event>
 5   1  0.5790000E-11  0.2306575E+04  0.7818608E-02  0.7709878E-01
       21   -1    0    0  502  501  0.00000000000E+00  0.00000000000E+00  0.76786789318E+03  0.76786789318E+03  0.00000000000E+00 0. -1.
       21   -1    0    0  501  502 -0.00000000000E+00 -0.00000000000E+00 -0.17321623943E+04  0.17321623943E+04  0.00000000000E+00 0.  1.
       39    2    1    2    0    0  0.00000000000E+00  0.00000000000E+00 -0.96429450107E+03  0.25000302874E+04  0.23065748532E+04 0.  0.
       25    1    3    3    0    0 -0.43232612313E+03  0.97250681105E+03 -0.20042291123E+02  0.10717751946E+04  0.12500000000E+03 0.  0.
       25    1    3    3    0    0  0.43232612313E+03 -0.97250681105E+03 -0.94425220994E+03  0.14282550929E+04  0.12500000000E+03 0.  0.
<mgrwt>
<rscale>  0 0.23065749E+04</rscale>
<asrwt>0</asrwt>
<pdfrwt beam="1">  1       21 0.11813352E+00 0.23065749E+04</pdfrwt>
<pdfrwt beam="2">  1       21 0.26648652E+00 0.23065749E+04</pdfrwt>
<totfact> 0.10541862E+01</totfact>
</mgrwt>
<rwgt>
  <wgt id="1">5.79e-12</wgt>
  <wgt id="2">5.02809e-12</wgt>
  <wgt id="3">6.73787e-12</wgt>
  <wgt id="4">5.79e-12</wgt>
  <wgt id="5">5.02809e-12</wgt>
  <wgt id="6">6.73787e-12</wgt>
  <wgt id="7">5.79e-12</wgt>
  <wgt id="8">5.02809e-12</wgt>
  <wgt id="9">6.73787e-12</wgt>
  <wgt id="10">6.03403e-12</wgt>
  <wgt id="11">6.03032e-12</wgt>
  <wgt id="12">6.02369e-12</wgt>
  <wgt id="13">6.01668e-12</wgt>
  <wgt id="14">6.05592e-12</wgt>
  <wgt id="15">6.04439e-12</wgt>
  <wgt id="16">6.02439e-12</wgt>
  <wgt id="17">6.05486e-12</wgt>
  <wgt id="18">6.02394e-12</wgt>
  <wgt id="19">6.05019e-12</wgt>
  <wgt id="20">6.02292e-12</wgt>
  <wgt id="21">5.98955e-12</wgt>
  <wgt id="22">5.99937e-12</wgt>
  <wgt id="23">5.96212e-12</wgt>
  <wgt id="24">5.99734e-12</wgt>
  <wgt id="25">6.01457e-12</wgt>
  <wgt id="26">6.05352e-12</wgt>
  <wgt id="27">6.02841e-12</wgt>
  <wgt id="28">6.00094e-12</wgt>
  <wgt id="29">6.03773e-12</wgt>
  <wgt id="30">6.00042e-12</wgt>
  <wgt id="31">6.05892e-12</wgt>
  <wgt id="32">6.00931e-12</wgt>
  <wgt id="33">6.04557e-12</wgt>
  <wgt id="34">6.00414e-12</wgt>
  <wgt id="35">6.0149e-12</wgt>
  <wgt id="36">6.0576e-12</wgt>
  <wgt id="37">6.01681e-12</wgt>
  <wgt id="38">6.01392e-12</wgt>
  <wgt id="39">6.11738e-12</wgt>
  <wgt id="40">6.03988e-12</wgt>
  <wgt id="41">6.03057e-12</wgt>
  <wgt id="42">6.04411e-12</wgt>
  <wgt id="43">6.03354e-12</wgt>
  <wgt id="44">6.038e-12</wgt>
  <wgt id="45">6.04518e-12</wgt>
  <wgt id="46">6.0279e-12</wgt>
  <wgt id="47">6.04656e-12</wgt>
  <wgt id="48">6.04274e-12</wgt>
  <wgt id="49">6.01589e-12</wgt>
  <wgt id="50">6.02447e-12</wgt>
  <wgt id="51">6.02797e-12</wgt>
  <wgt id="52">6.04506e-12</wgt>
  <wgt id="53">6.02625e-12</wgt>
  <wgt id="54">6.03922e-12</wgt>
  <wgt id="55">6.03392e-12</wgt>
  <wgt id="56">6.04819e-12</wgt>
  <wgt id="57">6.03577e-12</wgt>
  <wgt id="58">6.01395e-12</wgt>
  <wgt id="59">6.02504e-12</wgt>
  <wgt id="60">6.02696e-12</wgt>
  <wgt id="61">5.9983e-12</wgt>
  <wgt id="62">6.01413e-12</wgt>
  <wgt id="63">6.02625e-12</wgt>
  <wgt id="64">6.03407e-12</wgt>
  <wgt id="65">6.03629e-12</wgt>
  <wgt id="66">6.02874e-12</wgt>
  <wgt id="67">6.00633e-12</wgt>
  <wgt id="68">6.03235e-12</wgt>
  <wgt id="69">6.03272e-12</wgt>
  <wgt id="70">6.0331e-12</wgt>
  <wgt id="71">6.02883e-12</wgt>
  <wgt id="72">6.01103e-12</wgt>
  <wgt id="73">6.04811e-12</wgt>
  <wgt id="74">6.04002e-12</wgt>
  <wgt id="75">6.03092e-12</wgt>
  <wgt id="76">6.05561e-12</wgt>
  <wgt id="77">6.02909e-12</wgt>
  <wgt id="78">6.03018e-12</wgt>
  <wgt id="79">6.05079e-12</wgt>
  <wgt id="80">6.00308e-12</wgt>
  <wgt id="81">6.03296e-12</wgt>
  <wgt id="82">6.03558e-12</wgt>
  <wgt id="83">6.00833e-12</wgt>
  <wgt id="84">6.02582e-12</wgt>
  <wgt id="85">6.01756e-12</wgt>
  <wgt id="86">6.05319e-12</wgt>
  <wgt id="87">5.99601e-12</wgt>
  <wgt id="88">6.04175e-12</wgt>
  <wgt id="89">6.03883e-12</wgt>
  <wgt id="90">6.05144e-12</wgt>
  <wgt id="91">6.04087e-12</wgt>
  <wgt id="92">6.0469e-12</wgt>
  <wgt id="93">6.04097e-12</wgt>
  <wgt id="94">6.02671e-12</wgt>
  <wgt id="95">6.05037e-12</wgt>
  <wgt id="96">6.04142e-12</wgt>
  <wgt id="97">6.01815e-12</wgt>
  <wgt id="98">6.03589e-12</wgt>
  <wgt id="99">6.01976e-12</wgt>
  <wgt id="100">6.04566e-12</wgt>
  <wgt id="101">6.03594e-12</wgt>
  <wgt id="102">6.03032e-12</wgt>
  <wgt id="103">6.04641e-12</wgt>
  <wgt id="104">6.02867e-12</wgt>
  <wgt id="105">6.04411e-12</wgt>
  <wgt id="106">6.02275e-12</wgt>
  <wgt id="107">6.05762e-12</wgt>
  <wgt id="108">6.02515e-12</wgt>
  <wgt id="109">6.03863e-12</wgt>
  <wgt id="110">6.03272e-12</wgt>
  <wgt id="111">6.07505e-12</wgt>
  <wgt id="112">6.06741e-12</wgt>
  <wgt id="113">8.32937e-12</wgt>
  <wgt id="114">8.26769e-12</wgt>
  <wgt id="115">8.13321e-12</wgt>
  <wgt id="116">1.12943e-11</wgt>
  <wgt id="117">6.70196e-12</wgt>
  <wgt id="118">6.72574e-12</wgt>
  <wgt id="119">6.68837e-12</wgt>
  <wgt id="120">6.70246e-12</wgt>
  <wgt id="121">6.70161e-12</wgt>
  <wgt id="122">6.69059e-12</wgt>
  <wgt id="123">6.71763e-12</wgt>
  <wgt id="124">6.6926e-12</wgt>
  <wgt id="125">6.70789e-12</wgt>
  <wgt id="126">6.71303e-12</wgt>
  <wgt id="127">6.69454e-12</wgt>
  <wgt id="128">6.72265e-12</wgt>
  <wgt id="129">6.68131e-12</wgt>
  <wgt id="130">6.73852e-12</wgt>
  <wgt id="131">6.66423e-12</wgt>
  <wgt id="132">6.52379e-12</wgt>
  <wgt id="133">6.91322e-12</wgt>
  <wgt id="134">6.62993e-12</wgt>
  <wgt id="135">6.7583e-12</wgt>
  <wgt id="136">6.7939e-12</wgt>
  <wgt id="137">6.59107e-12</wgt>
  <wgt id="138">6.97772e-12</wgt>
  <wgt id="139">6.43734e-12</wgt>
  <wgt id="140">6.66219e-12</wgt>
  <wgt id="141">6.73281e-12</wgt>
  <wgt id="142">6.70178e-12</wgt>
  <wgt id="143">6.71605e-12</wgt>
  <wgt id="144">6.48069e-12</wgt>
  <wgt id="145">6.91119e-12</wgt>
  <wgt id="146">6.77211e-12</wgt>
  <wgt id="147">6.64561e-12</wgt>
  <wgt id="148">6.7243e-12</wgt>
  <wgt id="149">6.70041e-12</wgt>
  <wgt id="150">6.75925e-12</wgt>
  <wgt id="151">6.67508e-12</wgt>
  <wgt id="152">6.70457e-12</wgt>
  <wgt id="153">6.70103e-12</wgt>
  <wgt id="154">6.74143e-12</wgt>
  <wgt id="155">6.64986e-12</wgt>
  <wgt id="156">6.86872e-12</wgt>
  <wgt id="157">6.53746e-12</wgt>
  <wgt id="158">8.05407e-12</wgt>
  <wgt id="159">8.08768e-12</wgt>
  <wgt id="160">8.02653e-12</wgt>
  <wgt id="161">8.03365e-12</wgt>
  <wgt id="162">8.07632e-12</wgt>
  <wgt id="163">8.04494e-12</wgt>
  <wgt id="164">8.06682e-12</wgt>
  <wgt id="165">8.0569e-12</wgt>
  <wgt id="166">8.05144e-12</wgt>
  <wgt id="167">8.04815e-12</wgt>
  <wgt id="168">8.06191e-12</wgt>
  <wgt id="169">8.01992e-12</wgt>
  <wgt id="170">8.07499e-12</wgt>
  <wgt id="171">8.04592e-12</wgt>
  <wgt id="172">8.06468e-12</wgt>
  <wgt id="173">8.04772e-12</wgt>
  <wgt id="174">8.05584e-12</wgt>
  <wgt id="175">7.82507e-12</wgt>
  <wgt id="176">8.35238e-12</wgt>
  <wgt id="177">8.0949e-12</wgt>
  <wgt id="178">8.01631e-12</wgt>
  <wgt id="179">8.41708e-12</wgt>
  <wgt id="180">7.48565e-12</wgt>
  <wgt id="181">7.80723e-12</wgt>
  <wgt id="182">8.2174e-12</wgt>
  <wgt id="183">7.9037e-12</wgt>
  <wgt id="184">8.12827e-12</wgt>
  <wgt id="185">7.97904e-12</wgt>
  <wgt id="186">8.14419e-12</wgt>
  <wgt id="187">7.97453e-12</wgt>
  <wgt id="188">8.19539e-12</wgt>
  <wgt id="189">7.99768e-12</wgt>
  <wgt id="190">8.07669e-12</wgt>
  <wgt id="191">8.07838e-12</wgt>
  <wgt id="192">8.03918e-12</wgt>
  <wgt id="193">8.17565e-12</wgt>
  <wgt id="194">7.99318e-12</wgt>
  <wgt id="195">7.82279e-12</wgt>
  <wgt id="196">8.44968e-12</wgt>
  <wgt id="197">8.09534e-12</wgt>
  <wgt id="198">8.04387e-12</wgt>
  <wgt id="199">8.05407e-12</wgt>
  <wgt id="200">8.12631e-12</wgt>
  <wgt id="201">8.10046e-12</wgt>
  <wgt id="202">8.07591e-12</wgt>
  <wgt id="203">8.03892e-12</wgt>
  <wgt id="204">8.02108e-12</wgt>
  <wgt id="205">8.00623e-12</wgt>
  <wgt id="206">7.84061e-12</wgt>
  <wgt id="207">7.887e-12</wgt>
  <wgt id="208">7.79492e-12</wgt>
  <wgt id="209">7.86433e-12</wgt>
  <wgt id="210">7.82344e-12</wgt>
  <wgt id="211">7.83799e-12</wgt>
  <wgt id="212">7.84276e-12</wgt>
  <wgt id="213">7.83994e-12</wgt>
  <wgt id="214">7.8417e-12</wgt>
  <wgt id="215">7.84639e-12</wgt>
  <wgt id="216">7.83656e-12</wgt>
  <wgt id="217">7.86129e-12</wgt>
  <wgt id="218">7.82478e-12</wgt>
  <wgt id="219">7.83169e-12</wgt>
  <wgt id="220">7.8461e-12</wgt>
  <wgt id="221">7.83974e-12</wgt>
  <wgt id="222">7.84175e-12</wgt>
  <wgt id="223">7.41672e-12</wgt>
  <wgt id="224">8.22793e-12</wgt>
  <wgt id="225">7.74577e-12</wgt>
  <wgt id="226">7.96058e-12</wgt>
  <wgt id="227">7.76634e-12</wgt>
  <wgt id="228">7.87328e-12</wgt>
  <wgt id="229">7.73115e-12</wgt>
  <wgt id="230">7.89501e-12</wgt>
  <wgt id="231">8.07923e-12</wgt>
  <wgt id="232">7.64476e-12</wgt>
  <wgt id="233">7.79706e-12</wgt>
  <wgt id="234">7.91142e-12</wgt>
  <wgt id="235">7.62153e-12</wgt>
  <wgt id="236">8.03041e-12</wgt>
  <wgt id="237">7.70341e-12</wgt>
  <wgt id="238">7.88683e-12</wgt>
  <wgt id="239">7.78322e-12</wgt>
  <wgt id="240">7.94407e-12</wgt>
  <wgt id="241">7.75555e-12</wgt>
  <wgt id="242">7.94248e-12</wgt>
  <wgt id="243">7.95022e-12</wgt>
  <wgt id="244">7.86637e-12</wgt>
  <wgt id="245">7.83595e-12</wgt>
  <wgt id="246">7.89292e-12</wgt>
  <wgt id="247">7.84061e-12</wgt>
  <wgt id="248">7.91459e-12</wgt>
  <wgt id="249">7.88779e-12</wgt>
  <wgt id="250">7.8614e-12</wgt>
  <wgt id="251">7.82347e-12</wgt>
  <wgt id="252">7.80509e-12</wgt>
  <wgt id="253">7.79197e-12</wgt>
  <wgt id="254">7.63135e-12</wgt>
  <wgt id="255">7.63849e-12</wgt>
  <wgt id="256">7.62362e-12</wgt>
  <wgt id="257">7.63723e-12</wgt>
  <wgt id="258">7.62704e-12</wgt>
  <wgt id="259">7.68226e-12</wgt>
  <wgt id="260">7.5821e-12</wgt>
  <wgt id="261">7.6425e-12</wgt>
  <wgt id="262">7.61817e-12</wgt>
  <wgt id="263">7.62716e-12</wgt>
  <wgt id="264">7.63629e-12</wgt>
  <wgt id="265">7.62236e-12</wgt>
  <wgt id="266">7.64928e-12</wgt>
  <wgt id="267">7.63392e-12</wgt>
  <wgt id="268">7.62784e-12</wgt>
  <wgt id="269">7.65529e-12</wgt>
  <wgt id="270">7.61508e-12</wgt>
  <wgt id="271">7.61537e-12</wgt>
  <wgt id="272">7.64911e-12</wgt>
  <wgt id="273">7.60925e-12</wgt>
  <wgt id="274">7.64818e-12</wgt>
  <wgt id="275">7.59437e-12</wgt>
  <wgt id="276">7.66964e-12</wgt>
  <wgt id="277">7.58732e-12</wgt>
  <wgt id="278">7.67177e-12</wgt>
  <wgt id="279">7.48789e-12</wgt>
  <wgt id="280">7.81165e-12</wgt>
  <wgt id="281">7.59748e-12</wgt>
  <wgt id="282">7.63559e-12</wgt>
  <wgt id="283">7.40352e-12</wgt>
  <wgt id="284">7.91318e-12</wgt>
  <wgt id="285">7.25359e-12</wgt>
  <wgt id="286">7.94623e-12</wgt>
  <wgt id="287">7.65634e-12</wgt>
  <wgt id="288">7.59932e-12</wgt>
  <wgt id="289">7.68747e-12</wgt>
  <wgt id="290">7.50333e-12</wgt>
  <wgt id="291">7.60714e-12</wgt>
  <wgt id="292">7.63495e-12</wgt>
  <wgt id="293">7.57007e-12</wgt>
  <wgt id="294">7.69231e-12</wgt>
  <wgt id="295">7.48168e-12</wgt>
  <wgt id="296">7.81429e-12</wgt>
  <wgt id="297">7.62463e-12</wgt>
  <wgt id="298">7.66327e-12</wgt>
  <wgt id="299">7.60659e-12</wgt>
  <wgt id="300">7.69712e-12</wgt>
  <wgt id="301">7.51028e-12</wgt>
  <wgt id="302">7.92619e-12</wgt>
  <wgt id="303">7.56492e-12</wgt>
  <wgt id="304">7.66916e-12</wgt>
  <wgt id="305">7.62213e-12</wgt>
  <wgt id="306">7.6295e-12</wgt>
  <wgt id="307">7.61404e-12</wgt>
  <wgt id="308">7.62862e-12</wgt>
  <wgt id="309">7.61776e-12</wgt>
  <wgt id="310">7.67465e-12</wgt>
  <wgt id="311">7.5734e-12</wgt>
  <wgt id="312">7.63129e-12</wgt>
  <wgt id="313">7.61231e-12</wgt>
  <wgt id="314">7.6178e-12</wgt>
  <wgt id="315">7.62612e-12</wgt>
  <wgt id="316">7.61331e-12</wgt>
  <wgt id="317">7.64109e-12</wgt>
  <wgt id="318">7.62758e-12</wgt>
  <wgt id="319">7.61239e-12</wgt>
  <wgt id="320">7.6474e-12</wgt>
  <wgt id="321">7.60792e-12</wgt>
  <wgt id="322">7.60287e-12</wgt>
  <wgt id="323">7.64427e-12</wgt>
  <wgt id="324">7.60431e-12</wgt>
  <wgt id="325">7.63749e-12</wgt>
  <wgt id="326">7.59213e-12</wgt>
  <wgt id="327">7.66044e-12</wgt>
  <wgt id="328">7.58232e-12</wgt>
  <wgt id="329">7.64444e-12</wgt>
  <wgt id="330">7.84239e-12</wgt>
  <wgt id="331">7.41203e-12</wgt>
  <wgt id="332">7.59389e-12</wgt>
  <wgt id="333">7.62418e-12</wgt>
  <wgt id="334">7.44518e-12</wgt>
  <wgt id="335">7.84247e-12</wgt>
  <wgt id="336">7.35003e-12</wgt>
  <wgt id="337">7.95518e-12</wgt>
  <wgt id="338">7.70966e-12</wgt>
  <wgt id="339">7.541e-12</wgt>
  <wgt id="340">7.67426e-12</wgt>
  <wgt id="341">7.49003e-12</wgt>
  <wgt id="342">7.60478e-12</wgt>
  <wgt id="343">7.61265e-12</wgt>
  <wgt id="344">7.56712e-12</wgt>
  <wgt id="345">7.68588e-12</wgt>
  <wgt id="346">7.46737e-12</wgt>
  <wgt id="347">7.79992e-12</wgt>
  <wgt id="348">7.61793e-12</wgt>
  <wgt id="349">7.64927e-12</wgt>
  <wgt id="350">7.59103e-12</wgt>
  <wgt id="351">7.70083e-12</wgt>
  <wgt id="352">7.49319e-12</wgt>
  <wgt id="353">7.92186e-12</wgt>
  <wgt id="354">7.52358e-12</wgt>
  <wgt id="355">7.68165e-12</wgt>
  <wgt id="356">7.63135e-12</wgt>
  <wgt id="357">7.64419e-12</wgt>
  <wgt id="358">7.62213e-12</wgt>
  <wgt id="359">7.64824e-12</wgt>
  <wgt id="360">7.71121e-12</wgt>
  <wgt id="361">7.66106e-12</wgt>
  <wgt id="362">7.80002e-12</wgt>
  <wgt id="363">7.78117e-12</wgt>
  <wgt id="364">7.75041e-12</wgt>
  <wgt id="365">7.72342e-12</wgt>
  <wgt id="366">7.69415e-12</wgt>
  <wgt id="367">7.63558e-12</wgt>
  <wgt id="368">7.60144e-12</wgt>
  <wgt id="369">7.56468e-12</wgt>
  <wgt id="370">7.66106e-12</wgt>
  <wgt id="371">7.69428e-12</wgt>
  <wgt id="372">7.67591e-12</wgt>
  <wgt id="373">7.649e-12</wgt>
  <wgt id="374">7.65093e-12</wgt>
  <wgt id="375">8.37441e-12</wgt>
  <wgt id="376">8.37526e-12</wgt>
  <wgt id="377">8.37331e-12</wgt>
  <wgt id="378">8.40518e-12</wgt>
  <wgt id="379">8.34396e-12</wgt>
  <wgt id="380">8.39757e-12</wgt>
  <wgt id="381">8.36527e-12</wgt>
  <wgt id="382">8.41596e-12</wgt>
  <wgt id="383">8.33335e-12</wgt>
  <wgt id="384">8.37979e-12</wgt>
  <wgt id="385">8.36905e-12</wgt>
  <wgt id="386">8.40549e-12</wgt>
  <wgt id="387">8.36115e-12</wgt>
  <wgt id="388">8.36679e-12</wgt>
  <wgt id="389">8.38385e-12</wgt>
  <wgt id="390">8.39575e-12</wgt>
  <wgt id="391">8.35181e-12</wgt>
  <wgt id="392">8.30677e-12</wgt>
  <wgt id="393">8.41298e-12</wgt>
  <wgt id="394">8.38387e-12</wgt>
  <wgt id="395">8.36138e-12</wgt>
  <wgt id="396">8.3834e-12</wgt>
  <wgt id="397">8.36804e-12</wgt>
  <wgt id="398">8.34742e-12</wgt>
  <wgt id="399">8.40059e-12</wgt>
  <wgt id="400">8.36131e-12</wgt>
  <wgt id="401">8.40401e-12</wgt>
  <wgt id="402">8.30393e-12</wgt>
  <wgt id="403">8.41038e-12</wgt>
  <wgt id="404">8.58374e-12</wgt>
  <wgt id="405">7.87227e-12</wgt>
  <wgt id="406">8.22385e-12</wgt>
  <wgt id="407">8.70464e-12</wgt>
  <wgt id="408">8.4524e-12</wgt>
  <wgt id="409">8.2275e-12</wgt>
  <wgt id="410">8.12843e-12</wgt>
  <wgt id="411">8.49026e-12</wgt>
  <wgt id="412">8.35785e-12</wgt>
  <wgt id="413">8.39912e-12</wgt>
  <wgt id="414">8.27605e-12</wgt>
  <wgt id="415">8.45081e-12</wgt>
  <wgt id="416">8.61684e-12</wgt>
  <wgt id="417">8.03987e-12</wgt>
  <wgt id="418">8.38767e-12</wgt>
  <wgt id="419">8.30265e-12</wgt>
  <wgt id="420">8.52507e-12</wgt>
  <wgt id="421">8.28143e-12</wgt>
  <wgt id="422">8.34872e-12</wgt>
  <wgt id="423">8.3877e-12</wgt>
  <wgt id="424">8.56989e-12</wgt>
  <wgt id="425">8.24683e-12</wgt>
  <wgt id="426">8.37441e-12</wgt>
  <wgt id="427">8.26784e-12</wgt>
  <wgt id="428">8.6485e-12</wgt>
  <wgt id="429">8.46291e-12</wgt>
  <wgt id="430">8.71187e-12</wgt>
  <wgt id="431">8.66218e-12</wgt>
  <wgt id="432">8.6155e-12</wgt>
  <wgt id="433">8.57012e-12</wgt>
  <wgt id="434">8.5139e-12</wgt>
  <wgt id="435">8.39931e-12</wgt>
  <wgt id="436">8.34083e-12</wgt>
  <wgt id="437">8.28465e-12</wgt>
  <wgt id="438">8.46291e-12</wgt>
  <wgt id="439">8.48997e-12</wgt>
  <wgt id="440">8.47362e-12</wgt>
  <wgt id="441">8.45495e-12</wgt>
  <wgt id="442">8.44845e-12</wgt>
  <wgt id="443">7.99051e-12</wgt>
  <wgt id="444">8.05053e-12</wgt>
  <wgt id="445">8.00583e-12</wgt>
  <wgt id="446">7.93474e-12</wgt>
  <wgt id="447">7.97907e-12</wgt>
  <wgt id="448">7.78632e-12</wgt>
  <wgt id="449">8.12813e-12</wgt>
  <wgt id="450">8.01875e-12</wgt>
  <wgt id="451">7.97309e-12</wgt>
  <wgt id="452">8.16858e-12</wgt>
  <wgt id="453">8.06995e-12</wgt>
  <wgt id="454">7.63469e-12</wgt>
  <wgt id="455">8.02356e-12</wgt>
  <wgt id="456">8.01649e-12</wgt>
  <wgt id="457">8.01957e-12</wgt>
  <wgt id="458">8.10446e-12</wgt>
  <wgt id="459">8.05468e-12</wgt>
  <wgt id="460">8.08266e-12</wgt>
  <wgt id="461">7.82435e-12</wgt>
  <wgt id="462">7.93106e-12</wgt>
  <wgt id="463">7.88477e-12</wgt>
  <wgt id="464">7.94948e-12</wgt>
  <wgt id="465">8.07613e-12</wgt>
  <wgt id="466">7.86356e-12</wgt>
  <wgt id="467">7.91817e-12</wgt>
  <wgt id="468">7.97343e-12</wgt>
  <wgt id="469">7.97174e-12</wgt>
  <wgt id="470">7.89729e-12</wgt>
  <wgt id="471">7.90974e-12</wgt>
  <wgt id="472">8.03248e-12</wgt>
  <wgt id="473">7.73749e-12</wgt>
  <wgt id="474">5.79e-12</wgt>
  <wgt id="475">5.92753e-12</wgt>
  <wgt id="476">5.70864e-12</wgt>
  <wgt id="477">5.71326e-12</wgt>
  <wgt id="478">5.83878e-12</wgt>
  <wgt id="479">5.63105e-12</wgt>
  <wgt id="480">6.03885e-12</wgt>
  <wgt id="481">5.76957e-12</wgt>
  <wgt id="482">5.70202e-12</wgt>
  <wgt id="483">5.67406e-12</wgt>
  <wgt id="484">6.01095e-12</wgt>
  <wgt id="485">5.58505e-12</wgt>
  <wgt id="486">6.04457e-12</wgt>
  <wgt id="487">5.77875e-12</wgt>
  <wgt id="488">5.89314e-12</wgt>
  <wgt id="489">5.4343e-12</wgt>
  <wgt id="490">5.57337e-12</wgt>
  <wgt id="491">5.7494e-12</wgt>
  <wgt id="492">5.67901e-12</wgt>
  <wgt id="493">5.50789e-12</wgt>
  <wgt id="494">5.55484e-12</wgt>
  <wgt id="495">5.81776e-12</wgt>
  <wgt id="496">5.58501e-12</wgt>
  <wgt id="497">5.51449e-12</wgt>
  <wgt id="498">5.94555e-12</wgt>
  <wgt id="499">5.73992e-12</wgt>
  <wgt id="500">5.66293e-12</wgt>
  <wgt id="501">6.02687e-12</wgt>
  <wgt id="502">5.79816e-12</wgt>
  <wgt id="503">5.77132e-12</wgt>
  <wgt id="504">5.92193e-12</wgt>
  <wgt id="505">5.81382e-12</wgt>
  <wgt id="506">5.67348e-12</wgt>
  <wgt id="507">5.7852e-12</wgt>
  <wgt id="508">6.00252e-12</wgt>
  <wgt id="509">5.45741e-12</wgt>
  <wgt id="510">5.91368e-12</wgt>
  <wgt id="511">5.58818e-12</wgt>
  <wgt id="512">6.00761e-12</wgt>
  <wgt id="513">6.00447e-12</wgt>
  <wgt id="514">5.90262e-12</wgt>
  <wgt id="515">5.79809e-12</wgt>
  <wgt id="516">6.15517e-12</wgt>
  <wgt id="517">5.92649e-12</wgt>
  <wgt id="518">5.9559e-12</wgt>
  <wgt id="519">5.60342e-12</wgt>
  <wgt id="520">5.90772e-12</wgt>
  <wgt id="521">5.87351e-12</wgt>
  <wgt id="522">6.04328e-12</wgt>
  <wgt id="523">5.69589e-12</wgt>
  <wgt id="524">5.78227e-12</wgt>
  <wgt id="525">5.89766e-12</wgt>
  <wgt id="526">5.91766e-12</wgt>
  <wgt id="527">5.80679e-12</wgt>
  <wgt id="528">5.82227e-12</wgt>
  <wgt id="529">5.677e-12</wgt>
  <wgt id="530">5.96648e-12</wgt>
  <wgt id="531">5.65867e-12</wgt>
  <wgt id="532">6.18903e-12</wgt>
  <wgt id="533">5.58384e-12</wgt>
  <wgt id="534">5.72668e-12</wgt>
  <wgt id="535">5.79132e-12</wgt>
  <wgt id="536">5.81741e-12</wgt>
  <wgt id="537">5.7088e-12</wgt>
  <wgt id="538">5.82153e-12</wgt>
  <wgt id="539">5.67887e-12</wgt>
  <wgt id="540">5.86728e-12</wgt>
  <wgt id="541">5.66606e-12</wgt>
  <wgt id="542">5.72231e-12</wgt>
  <wgt id="543">5.72676e-12</wgt>
  <wgt id="544">5.98917e-12</wgt>
  <wgt id="545">5.62826e-12</wgt>
  <wgt id="546">5.54914e-12</wgt>
  <wgt id="547">5.64057e-12</wgt>
  <wgt id="548">5.55865e-12</wgt>
  <wgt id="549">5.6905e-12</wgt>
  <wgt id="550">5.67722e-12</wgt>
  <wgt id="551">5.86362e-12</wgt>
  <wgt id="552">5.52569e-12</wgt>
  <wgt id="553">5.66132e-12</wgt>
  <wgt id="554">6.17101e-12</wgt>
  <wgt id="555">5.9465e-12</wgt>
  <wgt id="556">5.57337e-12</wgt>
  <wgt id="557">5.94118e-12</wgt>
  <wgt id="558">5.67162e-12</wgt>
  <wgt id="559">5.68632e-12</wgt>
  <wgt id="560">6.37128e-12</wgt>
  <wgt id="561">5.77173e-12</wgt>
  <wgt id="562">5.96842e-12</wgt>
  <wgt id="563">5.96752e-12</wgt>
  <wgt id="564">5.97795e-12</wgt>
  <wgt id="565">5.71883e-12</wgt>
  <wgt id="566">5.81625e-12</wgt>
  <wgt id="567">5.75111e-12</wgt>
  <wgt id="568">5.72123e-12</wgt>
  <wgt id="569">5.86582e-12</wgt>
  <wgt id="570">5.55348e-12</wgt>
  <wgt id="571">6.4079e-12</wgt>
  <wgt id="572">5.67101e-12</wgt>
  <wgt id="573">5.59823e-12</wgt>
  <wgt id="574">5.62238e-12</wgt>
  <wgt id="575">6.39011e-12</wgt>
  <wgt id="576">6.59831e-12</wgt>
  <wgt id="577">6.60513e-12</wgt>
  <wgt id="578">6.57532e-12</wgt>
  <wgt id="579">6.58644e-12</wgt>
  <wgt id="580">6.66746e-12</wgt>
  <wgt id="581">6.93237e-12</wgt>
  <wgt id="582">6.56311e-12</wgt>
  <wgt id="583">6.4567e-12</wgt>
  <wgt id="584">6.35514e-12</wgt>
  <wgt id="585">6.18014e-12</wgt>
  <wgt id="586">6.14137e-12</wgt>
  <wgt id="587">6.49553e-12</wgt>
  <wgt id="588">6.54931e-12</wgt>
  <wgt id="589">6.69636e-12</wgt>
  <wgt id="590">6.38759e-12</wgt>
  <wgt id="591">6.60764e-12</wgt>
  <wgt id="592">5.99615e-12</wgt>
  <wgt id="593">6.29832e-12</wgt>
  <wgt id="594">6.46102e-12</wgt>
  <wgt id="595">6.49219e-12</wgt>
  <wgt id="596">6.85006e-12</wgt>
  <wgt id="597">6.33747e-12</wgt>
  <wgt id="598">6.1976e-12</wgt>
  <wgt id="599">6.6848e-12</wgt>
  <wgt id="600">6.48938e-12</wgt>
  <wgt id="601">6.18139e-12</wgt>
  <wgt id="602">6.20242e-12</wgt>
  <wgt id="603">6.15958e-12</wgt>
  <wgt id="604">6.50448e-12</wgt>
  <wgt id="605">6.58179e-12</wgt>
  <wgt id="606">6.41326e-12</wgt>
  <wgt id="607">6.46044e-12</wgt>
  <wgt id="608">6.54688e-12</wgt>
  <wgt id="609">6.1788e-12</wgt>
  <wgt id="610">6.16025e-12</wgt>
  <wgt id="611">6.30238e-12</wgt>
  <wgt id="612">6.77352e-12</wgt>
  <wgt id="613">6.25969e-12</wgt>
  <wgt id="614">6.39115e-12</wgt>
  <wgt id="615">6.35633e-12</wgt>
  <wgt id="616">6.51068e-12</wgt>
  <wgt id="617">6.58689e-12</wgt>
  <wgt id="618">6.86032e-12</wgt>
  <wgt id="619">6.2938e-12</wgt>
  <wgt id="620">6.62286e-12</wgt>
  <wgt id="621">6.37696e-12</wgt>
  <wgt id="622">6.49553e-12</wgt>
  <wgt id="623">6.51677e-12</wgt>
  <wgt id="624">6.41228e-12</wgt>
  <wgt id="625">6.21705e-12</wgt>
  <wgt id="626">6.03649e-12</wgt>
  <wgt id="627">6.00966e-12</wgt>
  <wgt id="628">6.49205e-12</wgt>
  <wgt id="629">6.33558e-12</wgt>
  <wgt id="630">6.19719e-12</wgt>
  <wgt id="631">6.46475e-12</wgt>
  <wgt id="632">6.0072e-12</wgt>
  <wgt id="633">6.35471e-12</wgt>
  <wgt id="634">6.2483e-12</wgt>
  <wgt id="635">6.04131e-12</wgt>
  <wgt id="636">6.47353e-12</wgt>
  <wgt id="637">6.39852e-12</wgt>
  <wgt id="638">6.15397e-12</wgt>
  <wgt id="639">6.24415e-12</wgt>
  <wgt id="640">6.34779e-12</wgt>
  <wgt id="641">6.56479e-12</wgt>
  <wgt id="642">6.14111e-12</wgt>
  <wgt id="643">6.31102e-12</wgt>
  <wgt id="644">5.86424e-12</wgt>
  <wgt id="645">6.41374e-12</wgt>
  <wgt id="646">6.22057e-12</wgt>
  <wgt id="647">6.3565e-12</wgt>
  <wgt id="648">6.54061e-12</wgt>
  <wgt id="649">6.4392e-12</wgt>
  <wgt id="650">6.17366e-12</wgt>
  <wgt id="651">6.6499e-12</wgt>
  <wgt id="652">6.25278e-12</wgt>
  <wgt id="653">6.184e-12</wgt>
  <wgt id="654">6.31731e-12</wgt>
  <wgt id="655">6.25983e-12</wgt>
  <wgt id="656">6.39208e-12</wgt>
  <wgt id="657">6.83599e-12</wgt>
  <wgt id="658">6.42972e-12</wgt>
  <wgt id="659">6.12727e-12</wgt>
  <wgt id="660">6.39022e-12</wgt>
  <wgt id="661">6.27948e-12</wgt>
  <wgt id="662">6.32885e-12</wgt>
  <wgt id="663">6.44327e-12</wgt>
  <wgt id="664">6.36723e-12</wgt>
  <wgt id="665">6.37347e-12</wgt>
  <wgt id="666">6.29933e-12</wgt>
  <wgt id="667">6.65989e-12</wgt>
  <wgt id="668">6.36956e-12</wgt>
  <wgt id="669">6.4902e-12</wgt>
  <wgt id="670">6.60962e-12</wgt>
  <wgt id="671">6.38789e-12</wgt>
  <wgt id="672">6.13869e-12</wgt>
  <wgt id="673">6.56528e-12</wgt>
  <wgt id="674">6.23177e-12</wgt>
  <wgt id="675">6.27298e-12</wgt>
  <wgt id="676">8.16176e-12</wgt>
  <wgt id="677">8.25899e-12</wgt>
  <wgt id="678">8.70057e-12</wgt>
  <wgt id="679">7.87784e-12</wgt>
  <wgt id="680">8.10334e-12</wgt>
  <wgt id="681">8.17407e-12</wgt>
  <wgt id="682">8.46469e-12</wgt>
  <wgt id="683">7.8744e-12</wgt>
  <wgt id="684">8.52527e-12</wgt>
  <wgt id="685">7.94698e-12</wgt>
  <wgt id="686">7.97252e-12</wgt>
  <wgt id="687">8.49461e-12</wgt>
  <wgt id="688">7.99086e-12</wgt>
  <wgt id="689">8.61104e-12</wgt>
  <wgt id="690">8.45544e-12</wgt>
  <wgt id="691">8.49249e-12</wgt>
  <wgt id="692">8.0427e-12</wgt>
  <wgt id="693">1.00162e-11</wgt>
  <wgt id="694">8.78152e-12</wgt>
  <wgt id="695">7.83658e-12</wgt>
  <wgt id="696">7.84791e-12</wgt>
  <wgt id="697">7.69881e-12</wgt>
  <wgt id="698">7.18244e-12</wgt>
  <wgt id="699">7.17731e-12</wgt>
  <wgt id="700">7.17205e-12</wgt>
  <wgt id="701">8.16601e-12</wgt>
  <wgt id="702">7.99036e-12</wgt>
  <wgt id="703">9.61057e-12</wgt>
  <wgt id="704">9.06144e-12</wgt>
  <wgt id="705">8.86231e-12</wgt>
  <wgt id="706">7.69813e-12</wgt>
  <wgt id="707">7.76748e-12</wgt>
  <wgt id="708">7.97364e-12</wgt>
  <wgt id="709">7.97254e-12</wgt>
  <wgt id="710">7.33271e-12</wgt>
  <wgt id="711">8.23679e-12</wgt>
  <wgt id="712">7.84659e-12</wgt>
  <wgt id="713">8.79076e-12</wgt>
  <wgt id="714">7.74032e-12</wgt>
  <wgt id="715">7.97032e-12</wgt>
  <wgt id="716">7.87748e-12</wgt>
  <wgt id="717">7.50201e-12</wgt>
  <wgt id="718">8.26913e-12</wgt>
  <wgt id="719">7.40951e-12</wgt>
  <wgt id="720">7.95872e-12</wgt>
  <wgt id="721">7.23026e-12</wgt>
  <wgt id="722">6.94586e-12</wgt>
  <wgt id="723">8.86678e-12</wgt>
  <wgt id="724">8.66476e-12</wgt>
  <wgt id="725">8.55366e-12</wgt>
  <wgt id="726">8.17458e-12</wgt>
  <wgt id="727">8.06294e-12</wgt>
  <wgt id="728">7.92363e-12</wgt>
  <wgt id="729">7.80507e-12</wgt>
  <wgt id="730">8.85459e-12</wgt>
  <wgt id="731">8.02092e-12</wgt>
  <wgt id="732">9.17616e-12</wgt>
  <wgt id="733">7.8816e-12</wgt>
  <wgt id="734">8.37664e-12</wgt>
  <wgt id="735">8.22863e-12</wgt>
  <wgt id="736">7.82132e-12</wgt>
  <wgt id="737">8.10985e-12</wgt>
  <wgt id="738">7.79036e-12</wgt>
  <wgt id="739">8.56974e-12</wgt>
  <wgt id="740">9.25932e-12</wgt>
  <wgt id="741">7.69605e-12</wgt>
  <wgt id="742">8.04834e-12</wgt>
  <wgt id="743">7.62831e-12</wgt>
  <wgt id="744">7.9988e-12</wgt>
  <wgt id="745">8.65089e-12</wgt>
  <wgt id="746">8.84802e-12</wgt>
  <wgt id="747">7.12489e-12</wgt>
  <wgt id="748">8.0079e-12</wgt>
  <wgt id="749">8.50296e-12</wgt>
  <wgt id="750">8.62789e-12</wgt>
  <wgt id="751">8.29297e-12</wgt>
  <wgt id="752">7.44099e-12</wgt>
  <wgt id="753">7.55956e-12</wgt>
  <wgt id="754">8.49845e-12</wgt>
  <wgt id="755">8.10447e-12</wgt>
  <wgt id="756">8.07335e-12</wgt>
  <wgt id="757">7.3516e-12</wgt>
  <wgt id="758">8.08217e-12</wgt>
  <wgt id="759">8.7569e-12</wgt>
  <wgt id="760">8.07601e-12</wgt>
  <wgt id="761">8.7446e-12</wgt>
  <wgt id="762">8.78651e-12</wgt>
  <wgt id="763">8.171e-12</wgt>
  <wgt id="764">8.55727e-12</wgt>
  <wgt id="765">8.24762e-12</wgt>
  <wgt id="766">8.18697e-12</wgt>
  <wgt id="767">8.32905e-12</wgt>
  <wgt id="768">7.59082e-12</wgt>
  <wgt id="769">8.64554e-12</wgt>
  <wgt id="770">7.92606e-12</wgt>
  <wgt id="771">9.75451e-12</wgt>
  <wgt id="772">7.83069e-12</wgt>
  <wgt id="773">8.10893e-12</wgt>
  <wgt id="774">6.8667e-12</wgt>
  <wgt id="775">8.54848e-12</wgt>
  <wgt id="776">8.97847e-12</wgt>
  <wgt id="777">7.55722e-12</wgt>
  <wgt id="778">5.77598e-12</wgt>
  <wgt id="779">4.29269e-12</wgt>
  <wgt id="780">3.15056e-12</wgt>
  <wgt id="781">6.54794e-12</wgt>
  <wgt id="782">6.5134e-12</wgt>
  <wgt id="783">4.224e-12</wgt>
  <wgt id="784">4.68363e-12</wgt>
  <wgt id="785">7.73972e-12</wgt>
  <wgt id="786">4.07619e-12</wgt>
  <wgt id="787">6.90473e-12</wgt>
  <wgt id="788">2.71639e-12</wgt>
  <wgt id="789">4.56808e-12</wgt>
  <wgt id="790">3.99396e-12</wgt>
  <wgt id="791">5.96726e-12</wgt>
  <wgt id="792">7.71271e-12</wgt>
  <wgt id="793">5.66339e-12</wgt>
  <wgt id="794">3.85738e-12</wgt>
  <wgt id="795">7.22859e-12</wgt>
  <wgt id="796">7.76028e-12</wgt>
  <wgt id="797">7.14307e-12</wgt>
  <wgt id="798">4.93115e-12</wgt>
  <wgt id="799">6.80269e-12</wgt>
  <wgt id="800">4.6931e-12</wgt>
  <wgt id="801">5.33553e-12</wgt>
  <wgt id="802">3.8051e-12</wgt>
  <wgt id="803">8.56881e-12</wgt>
  <wgt id="804">7.19223e-12</wgt>
  <wgt id="805">7.17233e-12</wgt>
  <wgt id="806">6.30197e-12</wgt>
  <wgt id="807">5.5275e-12</wgt>
  <wgt id="808">5.52534e-12</wgt>
  <wgt id="809">5.30672e-12</wgt>
  <wgt id="810">6.42295e-12</wgt>
  <wgt id="811">6.19121e-12</wgt>
  <wgt id="812">3.99084e-12</wgt>
  <wgt id="813">4.19855e-12</wgt>
  <wgt id="814">4.52195e-12</wgt>
  <wgt id="815">4.23094e-12</wgt>
  <wgt id="816">4.04391e-12</wgt>
  <wgt id="817">5.91084e-12</wgt>
  <wgt id="818">6.48567e-12</wgt>
  <wgt id="819">4.28411e-12</wgt>
  <wgt id="820">5.64296e-12</wgt>
  <wgt id="821">6.77304e-12</wgt>
  <wgt id="822">4.63796e-12</wgt>
  <wgt id="823">6.95523e-12</wgt>
  <wgt id="824">8.32494e-12</wgt>
  <wgt id="825">3.7057e-12</wgt>
  <wgt id="826">6.54481e-12</wgt>
  <wgt id="827">3.11127e-12</wgt>
  <wgt id="828">7.39802e-12</wgt>
  <wgt id="829">5.97582e-12</wgt>
  <wgt id="830">3.5016e-12</wgt>
  <wgt id="831">6.44679e-12</wgt>
  <wgt id="832">9.82538e-12</wgt>
  <wgt id="833">5.02866e-12</wgt>
  <wgt id="834">9.4126e-12</wgt>
  <wgt id="835">4.48656e-12</wgt>
  <wgt id="836">5.28358e-12</wgt>
  <wgt id="837">6.65453e-12</wgt>
  <wgt id="838">5.12456e-12</wgt>
  <wgt id="839">6.39738e-12</wgt>
  <wgt id="840">5.1614e-12</wgt>
  <wgt id="841">7.57913e-12</wgt>
  <wgt id="842">5.3954e-12</wgt>
  <wgt id="843">5.97338e-12</wgt>
  <wgt id="844">6.17602e-12</wgt>
  <wgt id="845">9.08342e-12</wgt>
  <wgt id="846">5.95823e-12</wgt>
  <wgt id="847">5.98263e-12</wgt>
  <wgt id="848">4.39216e-12</wgt>
  <wgt id="849">6.05067e-12</wgt>
  <wgt id="850">8.07832e-12</wgt>
  <wgt id="851">6.53459e-12</wgt>
  <wgt id="852">4.11731e-12</wgt>
  <wgt id="853">6.68269e-12</wgt>
  <wgt id="854">7.45166e-12</wgt>
  <wgt id="855">6.87644e-12</wgt>
  <wgt id="856">3.53501e-12</wgt>
  <wgt id="857">5.4694e-12</wgt>
  <wgt id="858">5.42746e-12</wgt>
  <wgt id="859">5.46812e-12</wgt>
  <wgt id="860">6.77377e-12</wgt>
  <wgt id="861">4.96586e-12</wgt>
  <wgt id="862">5.8613e-12</wgt>
  <wgt id="863">6.36263e-12</wgt>
  <wgt id="864">6.07169e-12</wgt>
  <wgt id="865">8.72013e-12</wgt>
  <wgt id="866">9.62527e-12</wgt>
  <wgt id="867">5.89904e-12</wgt>
  <wgt id="868">5.79547e-12</wgt>
  <wgt id="869">4.00596e-12</wgt>
  <wgt id="870">4.36574e-12</wgt>
  <wgt id="871">4.24686e-12</wgt>
  <wgt id="872">7.46921e-12</wgt>
  <wgt id="873">4.75059e-12</wgt>
  <wgt id="874">6.22767e-12</wgt>
  <wgt id="875">4.81129e-12</wgt>
  <wgt id="876">7.32378e-12</wgt>
  <wgt id="877">6.60698e-12</wgt>
  <wgt id="878">4.69934e-12</wgt>
  <wgt id="879">8.16176e-12</wgt>
  <wgt id="880">8.25899e-12</wgt>
  <wgt id="881">8.70057e-12</wgt>
  <wgt id="882">7.87784e-12</wgt>
  <wgt id="883">8.10334e-12</wgt>
  <wgt id="884">8.17407e-12</wgt>
  <wgt id="885">8.46469e-12</wgt>
  <wgt id="886">7.8744e-12</wgt>
  <wgt id="887">8.52527e-12</wgt>
  <wgt id="888">7.94698e-12</wgt>
  <wgt id="889">7.97252e-12</wgt>
  <wgt id="890">8.49461e-12</wgt>
  <wgt id="891">7.99086e-12</wgt>
  <wgt id="892">8.61104e-12</wgt>
  <wgt id="893">8.45544e-12</wgt>
  <wgt id="894">8.49249e-12</wgt>
  <wgt id="895">8.0427e-12</wgt>
  <wgt id="896">1.00162e-11</wgt>
  <wgt id="897">8.78152e-12</wgt>
  <wgt id="898">7.83658e-12</wgt>
  <wgt id="899">7.84791e-12</wgt>
  <wgt id="900">7.69881e-12</wgt>
  <wgt id="901">7.18244e-12</wgt>
  <wgt id="902">7.17731e-12</wgt>
  <wgt id="903">7.17205e-12</wgt>
  <wgt id="904">8.16601e-12</wgt>
  <wgt id="905">7.99036e-12</wgt>
  <wgt id="906">9.61057e-12</wgt>
  <wgt id="907">9.06144e-12</wgt>
  <wgt id="908">8.86231e-12</wgt>
  <wgt id="909">7.69813e-12</wgt>
  <wgt id="910">7.76748e-12</wgt>
  <wgt id="911">7.97364e-12</wgt>
  <wgt id="912">7.97254e-12</wgt>
  <wgt id="913">7.33271e-12</wgt>
  <wgt id="914">8.23679e-12</wgt>
  <wgt id="915">7.84659e-12</wgt>
  <wgt id="916">8.79076e-12</wgt>
  <wgt id="917">7.74032e-12</wgt>
  <wgt id="918">7.97032e-12</wgt>
  <wgt id="919">7.87748e-12</wgt>
  <wgt id="920">7.50201e-12</wgt>
  <wgt id="921">8.26913e-12</wgt>
  <wgt id="922">7.40951e-12</wgt>
  <wgt id="923">7.95872e-12</wgt>
  <wgt id="924">7.23026e-12</wgt>
  <wgt id="925">6.94586e-12</wgt>
  <wgt id="926">8.86678e-12</wgt>
  <wgt id="927">8.66476e-12</wgt>
  <wgt id="928">8.55366e-12</wgt>
  <wgt id="929">8.17458e-12</wgt>
  <wgt id="930">8.06294e-12</wgt>
  <wgt id="931">7.92363e-12</wgt>
  <wgt id="932">7.80507e-12</wgt>
  <wgt id="933">8.85459e-12</wgt>
  <wgt id="934">8.02092e-12</wgt>
  <wgt id="935">9.17616e-12</wgt>
  <wgt id="936">7.8816e-12</wgt>
  <wgt id="937">8.37664e-12</wgt>
  <wgt id="938">8.22863e-12</wgt>
  <wgt id="939">7.82132e-12</wgt>
  <wgt id="940">8.10985e-12</wgt>
  <wgt id="941">7.79036e-12</wgt>
  <wgt id="942">8.56974e-12</wgt>
  <wgt id="943">9.25932e-12</wgt>
  <wgt id="944">7.69605e-12</wgt>
  <wgt id="945">8.04834e-12</wgt>
  <wgt id="946">7.62831e-12</wgt>
  <wgt id="947">7.9988e-12</wgt>
  <wgt id="948">8.65089e-12</wgt>
  <wgt id="949">8.84802e-12</wgt>
  <wgt id="950">7.12489e-12</wgt>
  <wgt id="951">8.0079e-12</wgt>
  <wgt id="952">8.50296e-12</wgt>
  <wgt id="953">8.62789e-12</wgt>
  <wgt id="954">8.29297e-12</wgt>
  <wgt id="955">7.44099e-12</wgt>
  <wgt id="956">7.55956e-12</wgt>
  <wgt id="957">8.49845e-12</wgt>
  <wgt id="958">8.10447e-12</wgt>
  <wgt id="959">8.07335e-12</wgt>
  <wgt id="960">7.3516e-12</wgt>
  <wgt id="961">8.08217e-12</wgt>
  <wgt id="962">8.7569e-12</wgt>
  <wgt id="963">8.07601e-12</wgt>
  <wgt id="964">8.7446e-12</wgt>
  <wgt id="965">8.78651e-12</wgt>
  <wgt id="966">8.171e-12</wgt>
  <wgt id="967">8.55727e-12</wgt>
  <wgt id="968">8.24762e-12</wgt>
  <wgt id="969">8.18697e-12</wgt>
  <wgt id="970">8.32905e-12</wgt>
  <wgt id="971">7.59082e-12</wgt>
  <wgt id="972">8.64554e-12</wgt>
  <wgt id="973">7.92606e-12</wgt>
  <wgt id="974">9.75451e-12</wgt>
  <wgt id="975">7.83069e-12</wgt>
  <wgt id="976">8.10893e-12</wgt>
  <wgt id="977">6.8667e-12</wgt>
  <wgt id="978">8.54848e-12</wgt>
  <wgt id="979">8.97847e-12</wgt>
  <wgt id="980">8.13091e-12</wgt>
  <wgt id="981">8.2488e-12</wgt>
  <wgt id="982">7.90747e-12</wgt>
</rwgt>
</event>
<event>
 5   1  0.5790000E-11  0.2319423E+04  0.7818608E-02  0.7705327E-01
       21   -1    0    0  502  501  0.00000000000E+00  0.00000000000E+00  0.44517025550E+03  0.44517025550E+03  0.00000000000E+00 0. -1.
       21   -1    0    0  501  502 -0.00000000000E+00 -0.00000000000E+00 -0.30211614851E+04  0.30211614851E+04  0.00000000000E+00 0.  1.
       39    2    1    2    0    0  0.00000000000E+00  0.00000000000E+00 -0.25759912296E+04  0.34663317406E+04  0.23194234027E+04 0.  0.
       25    1    3    3    0    0  0.91546084045E+03  0.60388278630E+03 -0.75632345973E+03  0.13380557334E+04  0.12500000000E+03 0.  0.
       25    1    3    3    0    0 -0.91546084045E+03 -0.60388278630E+03 -0.18196677698E+04  0.21282760071E+04  0.12500000000E+03 0.  0.
<mgrwt>
<rscale>  0 0.23194234E+04</rscale>
<asrwt>0</asrwt>
<pdfrwt beam="1">  1       21 0.68487732E-01 0.23194234E+04</pdfrwt>
<pdfrwt beam="2">  1       21 0.46479407E+00 0.23194234E+04</pdfrwt>
<totfact> 0.21856035E+00</totfact>
</mgrwt>
<rwgt>
  <wgt id="1">5.79e-12</wgt>
  <wgt id="2">4.89166e-12</wgt>
  <wgt id="3">6.95307e-12</wgt>
  <wgt id="4">5.79e-12</wgt>
  <wgt id="5">4.89166e-12</wgt>
  <wgt id="6">6.95307e-12</wgt>
  <wgt id="7">5.79e-12</wgt>
  <wgt id="8">4.89166e-12</wgt>
  <wgt id="9">6.95307e-12</wgt>
  <wgt id="10">6.28655e-12</wgt>
  <wgt id="11">6.29918e-12</wgt>
  <wgt id="12">6.26635e-12</wgt>
  <wgt id="13">6.293e-12</wgt>
  <wgt id="14">6.25938e-12</wgt>
  <wgt id="15">6.27665e-12</wgt>
  <wgt id="16">6.25579e-12</wgt>
  <wgt id="17">6.35075e-12</wgt>
  <wgt id="18">6.28438e-12</wgt>
  <wgt id="19">6.31712e-12</wgt>
  <wgt id="20">6.31186e-12</wgt>
  <wgt id="21">6.17424e-12</wgt>
  <wgt id="22">6.21894e-12</wgt>
  <wgt id="23">6.17026e-12</wgt>
  <wgt id="24">6.24415e-12</wgt>
  <wgt id="25">6.2952e-12</wgt>
  <wgt id="26">6.30119e-12</wgt>
  <wgt id="27">6.28637e-12</wgt>
  <wgt id="28">6.24908e-12</wgt>
  <wgt id="29">6.28774e-12</wgt>
  <wgt id="30">6.23443e-12</wgt>
  <wgt id="31">6.30849e-12</wgt>
  <wgt id="32">6.20472e-12</wgt>
  <wgt id="33">6.29029e-12</wgt>
  <wgt id="34">6.22186e-12</wgt>
  <wgt id="35">6.20206e-12</wgt>
  <wgt id="36">6.31703e-12</wgt>
  <wgt id="37">6.26259e-12</wgt>
  <wgt id="38">6.2399e-12</wgt>
  <wgt id="39">6.44801e-12</wgt>
  <wgt id="40">6.33318e-12</wgt>
  <wgt id="41">6.26506e-12</wgt>
  <wgt id="42">6.26287e-12</wgt>
  <wgt id="43">6.29012e-12</wgt>
  <wgt id="44">6.33786e-12</wgt>
  <wgt id="45">6.32077e-12</wgt>
  <wgt id="46">6.22274e-12</wgt>
  <wgt id="47">6.44242e-12</wgt>
  <wgt id="48">6.39582e-12</wgt>
  <wgt id="49">6.28689e-12</wgt>
  <wgt id="50">6.19764e-12</wgt>
  <wgt id="51">6.2296e-12</wgt>
  <wgt id="52">6.2925e-12</wgt>
  <wgt id="53">6.52081e-12</wgt>
  <wgt id="54">6.35498e-12</wgt>
  <wgt id="55">6.24653e-12</wgt>
  <wgt id="56">6.07976e-12</wgt>
  <wgt id="57">6.13832e-12</wgt>
  <wgt id="58">6.28262e-12</wgt>
  <wgt id="59">6.3512e-12</wgt>
  <wgt id="60">6.14145e-12</wgt>
  <wgt id="61">6.36282e-12</wgt>
  <wgt id="62">6.39705e-12</wgt>
  <wgt id="63">6.2497e-12</wgt>
  <wgt id="64">6.28189e-12</wgt>
  <wgt id="65">6.2505e-12</wgt>
  <wgt id="66">6.41708e-12</wgt>
  <wgt id="67">6.46714e-12</wgt>
  <wgt id="68">6.29383e-12</wgt>
  <wgt id="69">6.29801e-12</wgt>
  <wgt id="70">6.16484e-12</wgt>
  <wgt id="71">6.4085e-12</wgt>
  <wgt id="72">6.45774e-12</wgt>
  <wgt id="73">6.14487e-12</wgt>
  <wgt id="74">6.36039e-12</wgt>
  <wgt id="75">6.0581e-12</wgt>
  <wgt id="76">6.30553e-12</wgt>
  <wgt id="77">6.23904e-12</wgt>
  <wgt id="78">6.26472e-12</wgt>
  <wgt id="79">6.27284e-12</wgt>
  <wgt id="80">6.30182e-12</wgt>
  <wgt id="81">6.28355e-12</wgt>
  <wgt id="82">6.26487e-12</wgt>
  <wgt id="83">6.23727e-12</wgt>
  <wgt id="84">6.20824e-12</wgt>
  <wgt id="85">6.19708e-12</wgt>
  <wgt id="86">6.4017e-12</wgt>
  <wgt id="87">6.15977e-12</wgt>
  <wgt id="88">6.29856e-12</wgt>
  <wgt id="89">6.30506e-12</wgt>
  <wgt id="90">6.39154e-12</wgt>
  <wgt id="91">6.27399e-12</wgt>
  <wgt id="92">6.31551e-12</wgt>
  <wgt id="93">6.33356e-12</wgt>
  <wgt id="94">6.21051e-12</wgt>
  <wgt id="95">6.43778e-12</wgt>
  <wgt id="96">6.40282e-12</wgt>
  <wgt id="97">6.16797e-12</wgt>
  <wgt id="98">6.27831e-12</wgt>
  <wgt id="99">6.22465e-12</wgt>
  <wgt id="100">6.34766e-12</wgt>
  <wgt id="101">6.22693e-12</wgt>
  <wgt id="102">6.26993e-12</wgt>
  <wgt id="103">6.39688e-12</wgt>
  <wgt id="104">6.25663e-12</wgt>
  <wgt id="105">6.37378e-12</wgt>
  <wgt id="106">6.20543e-12</wgt>
  <wgt id="107">6.4529e-12</wgt>
  <wgt id="108">6.2466e-12</wgt>
  <wgt id="109">6.29748e-12</wgt>
  <wgt id="110">6.2689e-12</wgt>
  <wgt id="111">6.13801e-12</wgt>
  <wgt id="112">6.46263e-12</wgt>
  <wgt id="113">1.07688e-11</wgt>
  <wgt id="114">7.75376e-12</wgt>
  <wgt id="115">7.6109e-12</wgt>
  <wgt id="116">1.03812e-11</wgt>
  <wgt id="117">7.03162e-12</wgt>
  <wgt id="118">7.06081e-12</wgt>
  <wgt id="119">7.015e-12</wgt>
  <wgt id="120">7.03116e-12</wgt>
  <wgt id="121">7.03176e-12</wgt>
  <wgt id="122">7.02272e-12</wgt>
  <wgt id="123">7.04409e-12</wgt>
  <wgt id="124">7.02347e-12</wgt>
  <wgt id="125">7.03671e-12</wgt>
  <wgt id="126">7.03704e-12</wgt>
  <wgt id="127">7.02804e-12</wgt>
  <wgt id="128">7.0519e-12</wgt>
  <wgt id="129">7.01151e-12</wgt>
  <wgt id="130">7.05372e-12</wgt>
  <wgt id="131">7.00793e-12</wgt>
  <wgt id="132">6.8095e-12</wgt>
  <wgt id="133">7.29941e-12</wgt>
  <wgt id="134">6.95948e-12</wgt>
  <wgt id="135">7.08871e-12</wgt>
  <wgt id="136">7.17992e-12</wgt>
  <wgt id="137">6.85521e-12</wgt>
  <wgt id="138">7.46116e-12</wgt>
  <wgt id="139">6.63876e-12</wgt>
  <wgt id="140">7.02692e-12</wgt>
  <wgt id="141">7.03256e-12</wgt>
  <wgt id="142">7.02647e-12</wgt>
  <wgt id="143">7.06997e-12</wgt>
  <wgt id="144">6.5494e-12</wgt>
  <wgt id="145">7.54088e-12</wgt>
  <wgt id="146">7.20593e-12</wgt>
  <wgt id="147">6.88537e-12</wgt>
  <wgt id="148">7.05912e-12</wgt>
  <wgt id="149">7.02984e-12</wgt>
  <wgt id="150">7.0868e-12</wgt>
  <wgt id="151">7.0056e-12</wgt>
  <wgt id="152">7.02934e-12</wgt>
  <wgt id="153">7.03243e-12</wgt>
  <wgt id="154">6.96034e-12</wgt>
  <wgt id="155">7.07748e-12</wgt>
  <wgt id="156">7.49916e-12</wgt>
  <wgt id="157">6.66295e-12</wgt>
  <wgt id="158">8.29059e-12</wgt>
  <wgt id="159">8.32742e-12</wgt>
  <wgt id="160">8.26092e-12</wgt>
  <wgt id="161">8.26806e-12</wgt>
  <wgt id="162">8.31549e-12</wgt>
  <wgt id="163">8.28052e-12</wgt>
  <wgt id="164">8.30572e-12</wgt>
  <wgt id="165">8.29326e-12</wgt>
  <wgt id="166">8.28879e-12</wgt>
  <wgt id="167">8.28558e-12</wgt>
  <wgt id="168">8.29756e-12</wgt>
  <wgt id="169">8.26004e-12</wgt>
  <wgt id="170">8.30968e-12</wgt>
  <wgt id="171">8.29017e-12</wgt>
  <wgt id="172">8.29193e-12</wgt>
  <wgt id="173">8.24784e-12</wgt>
  <wgt id="174">8.30602e-12</wgt>
  <wgt id="175">8.02585e-12</wgt>
  <wgt id="176">8.64011e-12</wgt>
  <wgt id="177">8.3105e-12</wgt>
  <wgt id="178">8.27366e-12</wgt>
  <wgt id="179">8.88451e-12</wgt>
  <wgt id="180">7.41968e-12</wgt>
  <wgt id="181">7.93603e-12</wgt>
  <wgt id="182">8.53241e-12</wgt>
  <wgt id="183">8.07537e-12</wgt>
  <wgt id="184">8.39809e-12</wgt>
  <wgt id="185">8.15901e-12</wgt>
  <wgt id="186">8.44967e-12</wgt>
  <wgt id="187">8.15226e-12</wgt>
  <wgt id="188">8.52945e-12</wgt>
  <wgt id="189">8.20305e-12</wgt>
  <wgt id="190">8.32635e-12</wgt>
  <wgt id="191">8.33542e-12</wgt>
  <wgt id="192">8.26364e-12</wgt>
  <wgt id="193">8.47297e-12</wgt>
  <wgt id="194">8.19722e-12</wgt>
  <wgt id="195">7.78337e-12</wgt>
  <wgt id="196">9.08531e-12</wgt>
  <wgt id="197">8.33728e-12</wgt>
  <wgt id="198">8.27932e-12</wgt>
  <wgt id="199">8.29059e-12</wgt>
  <wgt id="200">8.38949e-12</wgt>
  <wgt id="201">8.36008e-12</wgt>
  <wgt id="202">8.32937e-12</wgt>
  <wgt id="203">8.29176e-12</wgt>
  <wgt id="204">8.26947e-12</wgt>
  <wgt id="205">8.25231e-12</wgt>
  <wgt id="206">8.25976e-12</wgt>
  <wgt id="207">8.31172e-12</wgt>
  <wgt id="208">8.20802e-12</wgt>
  <wgt id="209">8.28364e-12</wgt>
  <wgt id="210">8.24215e-12</wgt>
  <wgt id="211">8.25698e-12</wgt>
  <wgt id="212">8.26207e-12</wgt>
  <wgt id="213">8.25882e-12</wgt>
  <wgt id="214">8.26023e-12</wgt>
  <wgt id="215">8.2661e-12</wgt>
  <wgt id="216">8.25533e-12</wgt>
  <wgt id="217">8.27004e-12</wgt>
  <wgt id="218">8.25133e-12</wgt>
  <wgt id="219">8.24722e-12</wgt>
  <wgt id="220">8.26762e-12</wgt>
  <wgt id="221">8.27421e-12</wgt>
  <wgt id="222">8.22034e-12</wgt>
  <wgt id="223">7.69064e-12</wgt>
  <wgt id="224">8.78677e-12</wgt>
  <wgt id="225">8.152e-12</wgt>
  <wgt id="226">8.39849e-12</wgt>
  <wgt id="227">8.17551e-12</wgt>
  <wgt id="228">8.29684e-12</wgt>
  <wgt id="229">8.12459e-12</wgt>
  <wgt id="230">8.32655e-12</wgt>
  <wgt id="231">8.64832e-12</wgt>
  <wgt id="232">7.94676e-12</wgt>
  <wgt id="233">8.17274e-12</wgt>
  <wgt id="234">8.40776e-12</wgt>
  <wgt id="235">7.54262e-12</wgt>
  <wgt id="236">8.83835e-12</wgt>
  <wgt id="237">7.8726e-12</wgt>
  <wgt id="238">8.38926e-12</wgt>
  <wgt id="239">8.1094e-12</wgt>
  <wgt id="240">8.53067e-12</wgt>
  <wgt id="241">8.11852e-12</wgt>
  <wgt id="242">8.42094e-12</wgt>
  <wgt id="243">8.51043e-12</wgt>
  <wgt id="244">8.18361e-12</wgt>
  <wgt id="245">8.2626e-12</wgt>
  <wgt id="246">8.27533e-12</wgt>
  <wgt id="247">8.25976e-12</wgt>
  <wgt id="248">8.38047e-12</wgt>
  <wgt id="249">8.34293e-12</wgt>
  <wgt id="250">8.29372e-12</wgt>
  <wgt id="251">8.24226e-12</wgt>
  <wgt id="252">8.20866e-12</wgt>
  <wgt id="253">8.18845e-12</wgt>
  <wgt id="254">7.74393e-12</wgt>
  <wgt id="255">7.75009e-12</wgt>
  <wgt id="256">7.73724e-12</wgt>
  <wgt id="257">7.7502e-12</wgt>
  <wgt id="258">7.73931e-12</wgt>
  <wgt id="259">7.79658e-12</wgt>
  <wgt id="260">7.69304e-12</wgt>
  <wgt id="261">7.75821e-12</wgt>
  <wgt id="262">7.72689e-12</wgt>
  <wgt id="263">7.73489e-12</wgt>
  <wgt id="264">7.75468e-12</wgt>
  <wgt id="265">7.73413e-12</wgt>
  <wgt id="266">7.7633e-12</wgt>
  <wgt id="267">7.74634e-12</wgt>
  <wgt id="268">7.74095e-12</wgt>
  <wgt id="269">7.76491e-12</wgt>
  <wgt id="270">7.72965e-12</wgt>
  <wgt id="271">7.70557e-12</wgt>
  <wgt id="272">7.78696e-12</wgt>
  <wgt id="273">7.72824e-12</wgt>
  <wgt id="274">7.75568e-12</wgt>
  <wgt id="275">7.66637e-12</wgt>
  <wgt id="276">7.82492e-12</wgt>
  <wgt id="277">7.70807e-12</wgt>
  <wgt id="278">7.77647e-12</wgt>
  <wgt id="279">7.59535e-12</wgt>
  <wgt id="280">7.93248e-12</wgt>
  <wgt id="281">7.67997e-12</wgt>
  <wgt id="282">7.8035e-12</wgt>
  <wgt id="283">7.40867e-12</wgt>
  <wgt id="284">8.17592e-12</wgt>
  <wgt id="285">7.19408e-12</wgt>
  <wgt id="286">8.22975e-12</wgt>
  <wgt id="287">7.77755e-12</wgt>
  <wgt id="288">7.70136e-12</wgt>
  <wgt id="289">7.8251e-12</wgt>
  <wgt id="290">7.5755e-12</wgt>
  <wgt id="291">7.70608e-12</wgt>
  <wgt id="292">7.72205e-12</wgt>
  <wgt id="293">7.65466e-12</wgt>
  <wgt id="294">7.83323e-12</wgt>
  <wgt id="295">7.52526e-12</wgt>
  <wgt id="296">8.01188e-12</wgt>
  <wgt id="297">7.675e-12</wgt>
  <wgt id="298">7.80805e-12</wgt>
  <wgt id="299">7.71293e-12</wgt>
  <wgt id="300">7.82637e-12</wgt>
  <wgt id="301">7.45577e-12</wgt>
  <wgt id="302">8.36609e-12</wgt>
  <wgt id="303">7.58861e-12</wgt>
  <wgt id="304">7.82927e-12</wgt>
  <wgt id="305">7.46318e-12</wgt>
  <wgt id="306">7.46916e-12</wgt>
  <wgt id="307">7.4569e-12</wgt>
  <wgt id="308">7.46972e-12</wgt>
  <wgt id="309">7.45906e-12</wgt>
  <wgt id="310">7.51465e-12</wgt>
  <wgt id="311">7.41597e-12</wgt>
  <wgt id="312">7.47916e-12</wgt>
  <wgt id="313">7.44632e-12</wgt>
  <wgt id="314">7.45306e-12</wgt>
  <wgt id="315">7.47357e-12</wgt>
  <wgt id="316">7.45278e-12</wgt>
  <wgt id="317">7.4865e-12</wgt>
  <wgt id="318">7.46874e-12</wgt>
  <wgt id="319">7.45403e-12</wgt>
  <wgt id="320">7.48705e-12</wgt>
  <wgt id="321">7.4506e-12</wgt>
  <wgt id="322">7.42734e-12</wgt>
  <wgt id="323">7.50591e-12</wgt>
  <wgt id="324">7.45731e-12</wgt>
  <wgt id="325">7.46877e-12</wgt>
  <wgt id="326">7.3982e-12</wgt>
  <wgt id="327">7.54754e-12</wgt>
  <wgt id="328">7.44053e-12</wgt>
  <wgt id="329">7.47439e-12</wgt>
  <wgt id="330">7.67595e-12</wgt>
  <wgt id="331">7.26281e-12</wgt>
  <wgt id="332">7.40864e-12</wgt>
  <wgt id="333">7.5074e-12</wgt>
  <wgt id="334">7.22594e-12</wgt>
  <wgt id="335">7.76874e-12</wgt>
  <wgt id="336">7.09621e-12</wgt>
  <wgt id="337">7.93584e-12</wgt>
  <wgt id="338">7.57653e-12</wgt>
  <wgt id="339">7.36182e-12</wgt>
  <wgt id="340">7.52902e-12</wgt>
  <wgt id="341">7.31107e-12</wgt>
  <wgt id="342">7.44285e-12</wgt>
  <wgt id="343">7.4174e-12</wgt>
  <wgt id="344">7.39128e-12</wgt>
  <wgt id="345">7.54752e-12</wgt>
  <wgt id="346">7.25057e-12</wgt>
  <wgt id="347">7.70383e-12</wgt>
  <wgt id="348">7.39309e-12</wgt>
  <wgt id="349">7.52491e-12</wgt>
  <wgt id="350">7.42736e-12</wgt>
  <wgt id="351">7.55619e-12</wgt>
  <wgt id="352">7.19855e-12</wgt>
  <wgt id="353">8.00711e-12</wgt>
  <wgt id="354">7.26404e-12</wgt>
  <wgt id="355">7.57813e-12</wgt>
  <wgt id="356">7.74393e-12</wgt>
  <wgt id="357">7.41436e-12</wgt>
  <wgt id="358">7.46318e-12</wgt>
  <wgt id="359">7.67232e-12</wgt>
  <wgt id="360">8.08046e-12</wgt>
  <wgt id="361">7.82051e-12</wgt>
  <wgt id="362">8.04019e-12</wgt>
  <wgt id="363">8.01341e-12</wgt>
  <wgt id="364">7.94338e-12</wgt>
  <wgt id="365">7.90274e-12</wgt>
  <wgt id="366">7.86599e-12</wgt>
  <wgt id="367">7.80667e-12</wgt>
  <wgt id="368">7.75812e-12</wgt>
  <wgt id="369">7.70556e-12</wgt>
  <wgt id="370">7.82051e-12</wgt>
  <wgt id="371">7.84727e-12</wgt>
  <wgt id="372">7.8315e-12</wgt>
  <wgt id="373">7.81275e-12</wgt>
  <wgt id="374">7.84948e-12</wgt>
  <wgt id="375">1.07913e-11</wgt>
  <wgt id="376">1.07916e-11</wgt>
  <wgt id="377">1.07921e-11</wgt>
  <wgt id="378">1.08382e-11</wgt>
  <wgt id="379">1.07454e-11</wgt>
  <wgt id="380">1.0826e-11</wgt>
  <wgt id="381">1.07774e-11</wgt>
  <wgt id="382">1.08269e-11</wgt>
  <wgt id="383">1.07568e-11</wgt>
  <wgt id="384">1.07996e-11</wgt>
  <wgt id="385">1.07839e-11</wgt>
  <wgt id="386">1.08023e-11</wgt>
  <wgt id="387">1.0787e-11</wgt>
  <wgt id="388">1.07847e-11</wgt>
  <wgt id="389">1.07998e-11</wgt>
  <wgt id="390">1.08038e-11</wgt>
  <wgt id="391">1.07787e-11</wgt>
  <wgt id="392">1.06704e-11</wgt>
  <wgt id="393">1.08601e-11</wgt>
  <wgt id="394">1.07842e-11</wgt>
  <wgt id="395">1.0801e-11</wgt>
  <wgt id="396">1.08254e-11</wgt>
  <wgt id="397">1.07675e-11</wgt>
  <wgt id="398">1.08115e-11</wgt>
  <wgt id="399">1.07732e-11</wgt>
  <wgt id="400">1.07703e-11</wgt>
  <wgt id="401">1.08413e-11</wgt>
  <wgt id="402">1.0632e-11</wgt>
  <wgt id="403">1.09454e-11</wgt>
  <wgt id="404">1.12926e-11</wgt>
  <wgt id="405">9.63699e-12</wgt>
  <wgt id="406">1.04283e-11</wgt>
  <wgt id="407">1.16241e-11</wgt>
  <wgt id="408">1.09817e-11</wgt>
  <wgt id="409">1.04512e-11</wgt>
  <wgt id="410">1.02143e-11</wgt>
  <wgt id="411">1.1081e-11</wgt>
  <wgt id="412">1.07525e-11</wgt>
  <wgt id="413">1.08448e-11</wgt>
  <wgt id="414">1.05672e-11</wgt>
  <wgt id="415">1.0966e-11</wgt>
  <wgt id="416">1.1415e-11</wgt>
  <wgt id="417">9.95931e-12</wgt>
  <wgt id="418">1.08307e-11</wgt>
  <wgt id="419">1.05801e-11</wgt>
  <wgt id="420">1.13601e-11</wgt>
  <wgt id="421">1.03879e-11</wgt>
  <wgt id="422">1.05822e-11</wgt>
  <wgt id="423">1.08834e-11</wgt>
  <wgt id="424">1.14332e-11</wgt>
  <wgt id="425">1.03384e-11</wgt>
  <wgt id="426">1.07913e-11</wgt>
  <wgt id="427">1.02435e-11</wgt>
  <wgt id="428">1.19002e-11</wgt>
  <wgt id="429">1.1083e-11</wgt>
  <wgt id="430">1.16645e-11</wgt>
  <wgt id="431">1.15358e-11</wgt>
  <wgt id="432">1.14318e-11</wgt>
  <wgt id="433">1.13297e-11</wgt>
  <wgt id="434">1.11892e-11</wgt>
  <wgt id="435">1.09532e-11</wgt>
  <wgt id="436">1.08396e-11</wgt>
  <wgt id="437">1.07227e-11</wgt>
  <wgt id="438">1.1083e-11</wgt>
  <wgt id="439">1.11114e-11</wgt>
  <wgt id="440">1.109e-11</wgt>
  <wgt id="441">1.10808e-11</wgt>
  <wgt id="442">1.10799e-11</wgt>
  <wgt id="443">7.89159e-12</wgt>
  <wgt id="444">8.0449e-12</wgt>
  <wgt id="445">8.15779e-12</wgt>
  <wgt id="446">7.85293e-12</wgt>
  <wgt id="447">7.86177e-12</wgt>
  <wgt id="448">7.74926e-12</wgt>
  <wgt id="449">8.20879e-12</wgt>
  <wgt id="450">8.13162e-12</wgt>
  <wgt id="451">7.86877e-12</wgt>
  <wgt id="452">8.03972e-12</wgt>
  <wgt id="453">8.17034e-12</wgt>
  <wgt id="454">7.29794e-12</wgt>
  <wgt id="455">8.06364e-12</wgt>
  <wgt id="456">8.21435e-12</wgt>
  <wgt id="457">7.9104e-12</wgt>
  <wgt id="458">8.09051e-12</wgt>
  <wgt id="459">7.96016e-12</wgt>
  <wgt id="460">8.26408e-12</wgt>
  <wgt id="461">7.61283e-12</wgt>
  <wgt id="462">7.82235e-12</wgt>
  <wgt id="463">7.70614e-12</wgt>
  <wgt id="464">7.89025e-12</wgt>
  <wgt id="465">7.96197e-12</wgt>
  <wgt id="466">7.44812e-12</wgt>
  <wgt id="467">7.86499e-12</wgt>
  <wgt id="468">7.94205e-12</wgt>
  <wgt id="469">7.85121e-12</wgt>
  <wgt id="470">7.67564e-12</wgt>
  <wgt id="471">7.71675e-12</wgt>
  <wgt id="472">7.96272e-12</wgt>
  <wgt id="473">7.56512e-12</wgt>
  <wgt id="474">5.79e-12</wgt>
  <wgt id="475">6.0116e-12</wgt>
  <wgt id="476">6.16735e-12</wgt>
  <wgt id="477">6.66766e-12</wgt>
  <wgt id="478">6.47741e-12</wgt>
  <wgt id="479">4.81968e-12</wgt>
  <wgt id="480">6.46834e-12</wgt>
  <wgt id="481">6.06893e-12</wgt>
  <wgt id="482">6.86048e-12</wgt>
  <wgt id="483">6.47605e-12</wgt>
  <wgt id="484">6.62232e-12</wgt>
  <wgt id="485">5.38324e-12</wgt>
  <wgt id="486">6.22624e-12</wgt>
  <wgt id="487">5.35217e-12</wgt>
  <wgt id="488">5.0509e-12</wgt>
  <wgt id="489">4.05207e-12</wgt>
  <wgt id="490">6.21195e-12</wgt>
  <wgt id="491">5.7328e-12</wgt>
  <wgt id="492">5.81367e-12</wgt>
  <wgt id="493">4.33586e-12</wgt>
  <wgt id="494">4.34108e-12</wgt>
  <wgt id="495">6.5275e-12</wgt>
  <wgt id="496">4.47874e-12</wgt>
  <wgt id="497">5.32169e-12</wgt>
  <wgt id="498">5.8873e-12</wgt>
  <wgt id="499">5.92595e-12</wgt>
  <wgt id="500">6.68066e-12</wgt>
  <wgt id="501">6.52058e-12</wgt>
  <wgt id="502">7.1237e-12</wgt>
  <wgt id="503">5.58732e-12</wgt>
  <wgt id="504">6.06625e-12</wgt>
  <wgt id="505">6.64586e-12</wgt>
  <wgt id="506">4.58459e-12</wgt>
  <wgt id="507">5.1534e-12</wgt>
  <wgt id="508">6.15191e-12</wgt>
  <wgt id="509">6.23161e-12</wgt>
  <wgt id="510">5.21718e-12</wgt>
  <wgt id="511">5.49357e-12</wgt>
  <wgt id="512">6.24367e-12</wgt>
  <wgt id="513">6.93209e-12</wgt>
  <wgt id="514">6.77974e-12</wgt>
  <wgt id="515">7.10479e-12</wgt>
  <wgt id="516">6.90794e-12</wgt>
  <wgt id="517">5.8447e-12</wgt>
  <wgt id="518">6.69895e-12</wgt>
  <wgt id="519">5.92068e-12</wgt>
  <wgt id="520">4.87959e-12</wgt>
  <wgt id="521">5.20577e-12</wgt>
  <wgt id="522">5.53217e-12</wgt>
  <wgt id="523">5.92964e-12</wgt>
  <wgt id="524">5.74617e-12</wgt>
  <wgt id="525">5.91571e-12</wgt>
  <wgt id="526">6.3938e-12</wgt>
  <wgt id="527">5.88177e-12</wgt>
  <wgt id="528">4.9387e-12</wgt>
  <wgt id="529">4.07012e-12</wgt>
  <wgt id="530">6.55374e-12</wgt>
  <wgt id="531">5.41443e-12</wgt>
  <wgt id="532">5.94747e-12</wgt>
  <wgt id="533">6.18401e-12</wgt>
  <wgt id="534">4.81982e-12</wgt>
  <wgt id="535">6.55528e-12</wgt>
  <wgt id="536">6.65478e-12</wgt>
  <wgt id="537">4.76047e-12</wgt>
  <wgt id="538">5.59364e-12</wgt>
  <wgt id="539">5.75841e-12</wgt>
  <wgt id="540">5.21299e-12</wgt>
  <wgt id="541">5.81568e-12</wgt>
  <wgt id="542">4.76779e-12</wgt>
  <wgt id="543">4.91375e-12</wgt>
  <wgt id="544">5.43172e-12</wgt>
  <wgt id="545">5.01423e-12</wgt>
  <wgt id="546">5.07881e-12</wgt>
  <wgt id="547">5.16662e-12</wgt>
  <wgt id="548">6.5434e-12</wgt>
  <wgt id="549">5.62611e-12</wgt>
  <wgt id="550">4.33614e-12</wgt>
  <wgt id="551">4.99369e-12</wgt>
  <wgt id="552">6.76174e-12</wgt>
  <wgt id="553">4.894e-12</wgt>
  <wgt id="554">5.58127e-12</wgt>
  <wgt id="555">5.57243e-12</wgt>
  <wgt id="556">6.21195e-12</wgt>
  <wgt id="557">5.30846e-12</wgt>
  <wgt id="558">5.60407e-12</wgt>
  <wgt id="559">6.19681e-12</wgt>
  <wgt id="560">6.15282e-12</wgt>
  <wgt id="561">6.80722e-12</wgt>
  <wgt id="562">6.19665e-12</wgt>
  <wgt id="563">6.07687e-12</wgt>
  <wgt id="564">6.78239e-12</wgt>
  <wgt id="565">7.03945e-12</wgt>
  <wgt id="566">4.47914e-12</wgt>
  <wgt id="567">6.37172e-12</wgt>
  <wgt id="568">4.63621e-12</wgt>
  <wgt id="569">6.03149e-12</wgt>
  <wgt id="570">6.33095e-12</wgt>
  <wgt id="571">6.78082e-12</wgt>
  <wgt id="572">4.81899e-12</wgt>
  <wgt id="573">5.67802e-12</wgt>
  <wgt id="574">5.93773e-12</wgt>
  <wgt id="575">6.01434e-12</wgt>
  <wgt id="576">6.65682e-12</wgt>
  <wgt id="577">6.03278e-12</wgt>
  <wgt id="578">4.67363e-12</wgt>
  <wgt id="579">6.28022e-12</wgt>
  <wgt id="580">6.00973e-12</wgt>
  <wgt id="581">6.9357e-12</wgt>
  <wgt id="582">6.05226e-12</wgt>
  <wgt id="583">6.74016e-12</wgt>
  <wgt id="584">6.33006e-12</wgt>
  <wgt id="585">5.42842e-12</wgt>
  <wgt id="586">5.5123e-12</wgt>
  <wgt id="587">6.15877e-12</wgt>
  <wgt id="588">8.06067e-12</wgt>
  <wgt id="589">7.08319e-12</wgt>
  <wgt id="590">6.40952e-12</wgt>
  <wgt id="591">6.46169e-12</wgt>
  <wgt id="592">6.47141e-12</wgt>
  <wgt id="593">5.97121e-12</wgt>
  <wgt id="594">5.85239e-12</wgt>
  <wgt id="595">7.02278e-12</wgt>
  <wgt id="596">6.49039e-12</wgt>
  <wgt id="597">5.72294e-12</wgt>
  <wgt id="598">7.37552e-12</wgt>
  <wgt id="599">7.07055e-12</wgt>
  <wgt id="600">6.79582e-12</wgt>
  <wgt id="601">5.64733e-12</wgt>
  <wgt id="602">4.91329e-12</wgt>
  <wgt id="603">4.65948e-12</wgt>
  <wgt id="604">6.98439e-12</wgt>
  <wgt id="605">5.59725e-12</wgt>
  <wgt id="606">4.29005e-12</wgt>
  <wgt id="607">6.43841e-12</wgt>
  <wgt id="608">6.06412e-12</wgt>
  <wgt id="609">5.71087e-12</wgt>
  <wgt id="610">5.15506e-12</wgt>
  <wgt id="611">5.30648e-12</wgt>
  <wgt id="612">5.69902e-12</wgt>
  <wgt id="613">5.25863e-12</wgt>
  <wgt id="614">6.51372e-12</wgt>
  <wgt id="615">6.72862e-12</wgt>
  <wgt id="616">4.71287e-12</wgt>
  <wgt id="617">6.27392e-12</wgt>
  <wgt id="618">6.95382e-12</wgt>
  <wgt id="619">5.80696e-12</wgt>
  <wgt id="620">6.14275e-12</wgt>
  <wgt id="621">6.32727e-12</wgt>
  <wgt id="622">6.15877e-12</wgt>
  <wgt id="623">5.9154e-12</wgt>
  <wgt id="624">5.48776e-12</wgt>
  <wgt id="625">5.56963e-12</wgt>
  <wgt id="626">2.77805e-12</wgt>
  <wgt id="627">5.11133e-12</wgt>
  <wgt id="628">6.23364e-12</wgt>
  <wgt id="629">7.85181e-12</wgt>
  <wgt id="630">6.70047e-12</wgt>
  <wgt id="631">7.16137e-12</wgt>
  <wgt id="632">5.49293e-12</wgt>
  <wgt id="633">6.02639e-12</wgt>
  <wgt id="634">5.04169e-12</wgt>
  <wgt id="635">5.82088e-12</wgt>
  <wgt id="636">5.18478e-12</wgt>
  <wgt id="637">6.2936e-12</wgt>
  <wgt id="638">5.51798e-12</wgt>
  <wgt id="639">5.07002e-12</wgt>
  <wgt id="640">5.02172e-12</wgt>
  <wgt id="641">6.97742e-12</wgt>
  <wgt id="642">4.75932e-12</wgt>
  <wgt id="643">5.76222e-12</wgt>
  <wgt id="644">5.98537e-12</wgt>
  <wgt id="645">6.65089e-12</wgt>
  <wgt id="646">4.3693e-12</wgt>
  <wgt id="647">7.01523e-12</wgt>
  <wgt id="648">7.11242e-12</wgt>
  <wgt id="649">6.75914e-12</wgt>
  <wgt id="650">6.22597e-12</wgt>
  <wgt id="651">6.06021e-12</wgt>
  <wgt id="652">5.42903e-12</wgt>
  <wgt id="653">5.84788e-12</wgt>
  <wgt id="654">5.94928e-12</wgt>
  <wgt id="655">4.78863e-12</wgt>
  <wgt id="656">6.7436e-12</wgt>
  <wgt id="657">7.12456e-12</wgt>
  <wgt id="658">5.47214e-12</wgt>
  <wgt id="659">6.26385e-12</wgt>
  <wgt id="660">4.95315e-12</wgt>
  <wgt id="661">5.57653e-12</wgt>
  <wgt id="662">6.28752e-12</wgt>
  <wgt id="663">6.67089e-12</wgt>
  <wgt id="664">6.95442e-12</wgt>
  <wgt id="665">5.48033e-12</wgt>
  <wgt id="666">5.695e-12</wgt>
  <wgt id="667">6.07455e-12</wgt>
  <wgt id="668">5.91853e-12</wgt>
  <wgt id="669">5.44312e-12</wgt>
  <wgt id="670">6.74809e-12</wgt>
  <wgt id="671">6.12621e-12</wgt>
  <wgt id="672">6.93102e-12</wgt>
  <wgt id="673">6.94153e-12</wgt>
  <wgt id="674">5.82145e-12</wgt>
  <wgt id="675">5.38827e-12</wgt>
  <wgt id="676">8.32165e-12</wgt>
  <wgt id="677">8.12598e-12</wgt>
  <wgt id="678">9.99145e-12</wgt>
  <wgt id="679">9.39959e-12</wgt>
  <wgt id="680">8.80188e-12</wgt>
  <wgt id="681">7.86009e-12</wgt>
  <wgt id="682">9.48027e-12</wgt>
  <wgt id="683">7.22407e-12</wgt>
  <wgt id="684">9.95898e-12</wgt>
  <wgt id="685">8.96404e-12</wgt>
  <wgt id="686">9.11992e-12</wgt>
  <wgt id="687">7.61767e-12</wgt>
  <wgt id="688">8.59773e-12</wgt>
  <wgt id="689">1.05461e-11</wgt>
  <wgt id="690">9.45525e-12</wgt>
  <wgt id="691">9.30953e-12</wgt>
  <wgt id="692">7.44862e-12</wgt>
  <wgt id="693">1.43096e-11</wgt>
  <wgt id="694">1.05684e-11</wgt>
  <wgt id="695">6.30449e-12</wgt>
  <wgt id="696">6.13305e-12</wgt>
  <wgt id="697">5.8402e-12</wgt>
  <wgt id="698">4.93376e-12</wgt>
  <wgt id="699">6.79652e-12</wgt>
  <wgt id="700">6.01406e-12</wgt>
  <wgt id="701">8.70677e-12</wgt>
  <wgt id="702">7.29958e-12</wgt>
  <wgt id="703">1.31763e-11</wgt>
  <wgt id="704">1.03806e-11</wgt>
  <wgt id="705">8.73026e-12</wgt>
  <wgt id="706">5.83011e-12</wgt>
  <wgt id="707">7.05104e-12</wgt>
  <wgt id="708">7.19615e-12</wgt>
  <wgt id="709">7.03621e-12</wgt>
  <wgt id="710">3.01858e-12</wgt>
  <wgt id="711">9.79425e-12</wgt>
  <wgt id="712">7.69901e-12</wgt>
  <wgt id="713">9.2324e-12</wgt>
  <wgt id="714">5.96672e-12</wgt>
  <wgt id="715">6.54066e-12</wgt>
  <wgt id="716">7.40956e-12</wgt>
  <wgt id="717">5.15075e-12</wgt>
  <wgt id="718">8.29365e-12</wgt>
  <wgt id="719">7.44328e-12</wgt>
  <wgt id="720">8.08699e-12</wgt>
  <wgt id="721">6.17226e-12</wgt>
  <wgt id="722">2.78129e-12</wgt>
  <wgt id="723">1.15388e-11</wgt>
  <wgt id="724">9.62533e-12</wgt>
  <wgt id="725">9.41954e-12</wgt>
  <wgt id="726">8.26777e-12</wgt>
  <wgt id="727">8.77156e-12</wgt>
  <wgt id="728">1.0594e-11</wgt>
  <wgt id="729">5.1841e-12</wgt>
  <wgt id="730">1.05957e-11</wgt>
  <wgt id="731">8.20979e-12</wgt>
  <wgt id="732">1.03047e-11</wgt>
  <wgt id="733">7.18085e-12</wgt>
  <wgt id="734">8.93333e-12</wgt>
  <wgt id="735">6.93442e-12</wgt>
  <wgt id="736">6.76529e-12</wgt>
  <wgt id="737">4.11535e-12</wgt>
  <wgt id="738">7.18082e-12</wgt>
  <wgt id="739">8.37678e-12</wgt>
  <wgt id="740">1.1802e-11</wgt>
  <wgt id="741">1.02935e-11</wgt>
  <wgt id="742">6.20084e-12</wgt>
  <wgt id="743">7.33212e-12</wgt>
  <wgt id="744">7.54148e-12</wgt>
  <wgt id="745">1.06531e-11</wgt>
  <wgt id="746">1.12641e-11</wgt>
  <wgt id="747">6.19251e-12</wgt>
  <wgt id="748">7.86723e-12</wgt>
  <wgt id="749">1.01395e-11</wgt>
  <wgt id="750">1.00479e-11</wgt>
  <wgt id="751">9.02163e-12</wgt>
  <wgt id="752">6.74608e-12</wgt>
  <wgt id="753">6.61832e-12</wgt>
  <wgt id="754">8.55596e-12</wgt>
  <wgt id="755">7.14439e-12</wgt>
  <wgt id="756">7.267e-12</wgt>
  <wgt id="757">6.54822e-12</wgt>
  <wgt id="758">8.40954e-12</wgt>
  <wgt id="759">8.79262e-12</wgt>
  <wgt id="760">6.60811e-12</wgt>
  <wgt id="761">1.07168e-11</wgt>
  <wgt id="762">1.06237e-11</wgt>
  <wgt id="763">1.14842e-11</wgt>
  <wgt id="764">1.03789e-11</wgt>
  <wgt id="765">9.2144e-12</wgt>
  <wgt id="766">9.78444e-12</wgt>
  <wgt id="767">9.44195e-12</wgt>
  <wgt id="768">6.93458e-12</wgt>
  <wgt id="769">8.70328e-12</wgt>
  <wgt id="770">4.42994e-12</wgt>
  <wgt id="771">1.30647e-11</wgt>
  <wgt id="772">7.52278e-12</wgt>
  <wgt id="773">9.42154e-12</wgt>
  <wgt id="774">6.03978e-12</wgt>
  <wgt id="775">9.58427e-12</wgt>
  <wgt id="776">1.26231e-11</wgt>
  <wgt id="777">4.61771e-12</wgt>
  <wgt id="778">3.56828e-12</wgt>
  <wgt id="779">9.49703e-20</wgt>
  <wgt id="780">9.44326e-20</wgt>
  <wgt id="781">1.85735e-12</wgt>
  <wgt id="782">2.75135e-12</wgt>
  <wgt id="783">9.53577e-20</wgt>
  <wgt id="784">9.56807e-20</wgt>
  <wgt id="785">8.23703e-12</wgt>
  <wgt id="786">9.39108e-20</wgt>
  <wgt id="787">6.86801e-12</wgt>
  <wgt id="788">9.17456e-20</wgt>
  <wgt id="789">9.99296e-20</wgt>
  <wgt id="790">9.39016e-20</wgt>
  <wgt id="791">2.14822e-12</wgt>
  <wgt id="792">4.54843e-12</wgt>
  <wgt id="793">9.64788e-20</wgt>
  <wgt id="794">9.37932e-20</wgt>
  <wgt id="795">7.34241e-12</wgt>
  <wgt id="796">8.21931e-12</wgt>
  <wgt id="797">6.30686e-12</wgt>
  <wgt id="798">9.43719e-20</wgt>
  <wgt id="799">7.63452e-12</wgt>
  <wgt id="800">9.65612e-20</wgt>
  <wgt id="801">6.12245e-12</wgt>
  <wgt id="802">9.57619e-20</wgt>
  <wgt id="803">6.41122e-12</wgt>
  <wgt id="804">7.70238e-12</wgt>
  <wgt id="805">7.57711e-12</wgt>
  <wgt id="806">3.93262e-12</wgt>
  <wgt id="807">2.02416e-12</wgt>
  <wgt id="808">4.86081e-12</wgt>
  <wgt id="809">8.58742e-14</wgt>
  <wgt id="810">1.16791e-11</wgt>
  <wgt id="811">4.7892e-12</wgt>
  <wgt id="812">9.53719e-20</wgt>
  <wgt id="813">9.42228e-20</wgt>
  <wgt id="814">9.19019e-20</wgt>
  <wgt id="815">9.4854e-20</wgt>
  <wgt id="816">9.61268e-20</wgt>
  <wgt id="817">4.67573e-12</wgt>
  <wgt id="818">6.87014e-12</wgt>
  <wgt id="819">9.58883e-20</wgt>
  <wgt id="820">7.98241e-13</wgt>
  <wgt id="821">5.99658e-12</wgt>
  <wgt id="822">9.73966e-20</wgt>
  <wgt id="823">7.66028e-12</wgt>
  <wgt id="824">5.96173e-12</wgt>
  <wgt id="825">9.37484e-20</wgt>
  <wgt id="826">7.91454e-12</wgt>
  <wgt id="827">9.44898e-20</wgt>
  <wgt id="828">5.31441e-12</wgt>
  <wgt id="829">4.05428e-12</wgt>
  <wgt id="830">9.41171e-20</wgt>
  <wgt id="831">6.22971e-12</wgt>
  <wgt id="832">1.12847e-11</wgt>
  <wgt id="833">9.74845e-20</wgt>
  <wgt id="834">1.17033e-11</wgt>
  <wgt id="835">9.56614e-20</wgt>
  <wgt id="836">1.00276e-19</wgt>
  <wgt id="837">6.06263e-12</wgt>
  <wgt id="838">9.56852e-20</wgt>
  <wgt id="839">7.72619e-12</wgt>
  <wgt id="840">1.73272e-12</wgt>
  <wgt id="841">7.02525e-12</wgt>
  <wgt id="842">1.04835e-12</wgt>
  <wgt id="843">1.96792e-12</wgt>
  <wgt id="844">6.03096e-12</wgt>
  <wgt id="845">1.08489e-11</wgt>
  <wgt id="846">9.97202e-20</wgt>
  <wgt id="847">5.15514e-12</wgt>
  <wgt id="848">9.66958e-20</wgt>
  <wgt id="849">6.14876e-12</wgt>
  <wgt id="850">9.95776e-12</wgt>
  <wgt id="851">6.14026e-12</wgt>
  <wgt id="852">9.55539e-20</wgt>
  <wgt id="853">6.38119e-12</wgt>
  <wgt id="854">8.84359e-12</wgt>
  <wgt id="855">4.54817e-12</wgt>
  <wgt id="856">9.38364e-20</wgt>
  <wgt id="857">9.74091e-20</wgt>
  <wgt id="858">5.0618e-12</wgt>
  <wgt id="859">1.8531e-12</wgt>
  <wgt id="860">2.54817e-12</wgt>
  <wgt id="861">9.81774e-20</wgt>
  <wgt id="862">4.71284e-12</wgt>
  <wgt id="863">6.43495e-12</wgt>
  <wgt id="864">3.05466e-12</wgt>
  <wgt id="865">9.84593e-12</wgt>
  <wgt id="866">1.03043e-11</wgt>
  <wgt id="867">4.01061e-12</wgt>
  <wgt id="868">5.89315e-12</wgt>
  <wgt id="869">9.45334e-20</wgt>
  <wgt id="870">9.56492e-20</wgt>
  <wgt id="871">2.58934e-13</wgt>
  <wgt id="872">1.04784e-11</wgt>
  <wgt id="873">9.64191e-20</wgt>
  <wgt id="874">5.81152e-12</wgt>
  <wgt id="875">9.47254e-20</wgt>
  <wgt id="876">9.31999e-12</wgt>
  <wgt id="877">5.81096e-12</wgt>
  <wgt id="878">9.6752e-20</wgt>
  <wgt id="879">8.32165e-12</wgt>
  <wgt id="880">8.12598e-12</wgt>
  <wgt id="881">9.99145e-12</wgt>
  <wgt id="882">9.39959e-12</wgt>
  <wgt id="883">8.80188e-12</wgt>
  <wgt id="884">7.86009e-12</wgt>
  <wgt id="885">9.48027e-12</wgt>
  <wgt id="886">7.22407e-12</wgt>
  <wgt id="887">9.95898e-12</wgt>
  <wgt id="888">8.96404e-12</wgt>
  <wgt id="889">9.11992e-12</wgt>
  <wgt id="890">7.61767e-12</wgt>
  <wgt id="891">8.59773e-12</wgt>
  <wgt id="892">1.05461e-11</wgt>
  <wgt id="893">9.45525e-12</wgt>
  <wgt id="894">9.30953e-12</wgt>
  <wgt id="895">7.44862e-12</wgt>
  <wgt id="896">1.43096e-11</wgt>
  <wgt id="897">1.05684e-11</wgt>
  <wgt id="898">6.30449e-12</wgt>
  <wgt id="899">6.13305e-12</wgt>
  <wgt id="900">5.8402e-12</wgt>
  <wgt id="901">4.93376e-12</wgt>
  <wgt id="902">6.79652e-12</wgt>
  <wgt id="903">6.01406e-12</wgt>
  <wgt id="904">8.70677e-12</wgt>
  <wgt id="905">7.29958e-12</wgt>
  <wgt id="906">1.31763e-11</wgt>
  <wgt id="907">1.03806e-11</wgt>
  <wgt id="908">8.73026e-12</wgt>
  <wgt id="909">5.83011e-12</wgt>
  <wgt id="910">7.05104e-12</wgt>
  <wgt id="911">7.19615e-12</wgt>
  <wgt id="912">7.03621e-12</wgt>
  <wgt id="913">3.01858e-12</wgt>
  <wgt id="914">9.79425e-12</wgt>
  <wgt id="915">7.69901e-12</wgt>
  <wgt id="916">9.2324e-12</wgt>
  <wgt id="917">5.96672e-12</wgt>
  <wgt id="918">6.54066e-12</wgt>
  <wgt id="919">7.40956e-12</wgt>
  <wgt id="920">5.15075e-12</wgt>
  <wgt id="921">8.29365e-12</wgt>
  <wgt id="922">7.44328e-12</wgt>
  <wgt id="923">8.08699e-12</wgt>
  <wgt id="924">6.17226e-12</wgt>
  <wgt id="925">2.78129e-12</wgt>
  <wgt id="926">1.15388e-11</wgt>
  <wgt id="927">9.62533e-12</wgt>
  <wgt id="928">9.41954e-12</wgt>
  <wgt id="929">8.26777e-12</wgt>
  <wgt id="930">8.77156e-12</wgt>
  <wgt id="931">1.0594e-11</wgt>
  <wgt id="932">5.1841e-12</wgt>
  <wgt id="933">1.05957e-11</wgt>
  <wgt id="934">8.20979e-12</wgt>
  <wgt id="935">1.03047e-11</wgt>
  <wgt id="936">7.18085e-12</wgt>
  <wgt id="937">8.93333e-12</wgt>
  <wgt id="938">6.93442e-12</wgt>
  <wgt id="939">6.76529e-12</wgt>
  <wgt id="940">4.11535e-12</wgt>
  <wgt id="941">7.18082e-12</wgt>
  <wgt id="942">8.37678e-12</wgt>
  <wgt id="943">1.1802e-11</wgt>
  <wgt id="944">1.02935e-11</wgt>
  <wgt id="945">6.20084e-12</wgt>
  <wgt id="946">7.33212e-12</wgt>
  <wgt id="947">7.54148e-12</wgt>
  <wgt id="948">1.06531e-11</wgt>
  <wgt id="949">1.12641e-11</wgt>
  <wgt id="950">6.19251e-12</wgt>
  <wgt id="951">7.86723e-12</wgt>
  <wgt id="952">1.01395e-11</wgt>
  <wgt id="953">1.00479e-11</wgt>
  <wgt id="954">9.02163e-12</wgt>
  <wgt id="955">6.74608e-12</wgt>
  <wgt id="956">6.61832e-12</wgt>
  <wgt id="957">8.55596e-12</wgt>
  <wgt id="958">7.14439e-12</wgt>
  <wgt id="959">7.267e-12</wgt>
  <wgt id="960">6.54822e-12</wgt>
  <wgt id="961">8.40954e-12</wgt>
  <wgt id="962">8.79262e-12</wgt>
  <wgt id="963">6.60811e-12</wgt>
  <wgt id="964">1.07168e-11</wgt>
  <wgt id="965">1.06237e-11</wgt>
  <wgt id="966">1.14842e-11</wgt>
  <wgt id="967">1.03789e-11</wgt>
  <wgt id="968">9.2144e-12</wgt>
  <wgt id="969">9.78444e-12</wgt>
  <wgt id="970">9.44195e-12</wgt>
  <wgt id="971">6.93458e-12</wgt>
  <wgt id="972">8.70328e-12</wgt>
  <wgt id="973">4.42994e-12</wgt>
  <wgt id="974">1.30647e-11</wgt>
  <wgt id="975">7.52278e-12</wgt>
  <wgt id="976">9.42154e-12</wgt>
  <wgt id="977">6.03978e-12</wgt>
  <wgt id="978">9.58427e-12</wgt>
  <wgt id="979">1.26231e-11</wgt>
  <wgt id="980">8.18016e-12</wgt>
  <wgt id="981">9.21109e-12</wgt>
  <wgt id="982">8.56963e-12</wgt>
</rwgt>
</event>
<event>
 5   1  0.5790000E-11  0.2184406E+04  0.7818608E-02  0.7754768E-01
       21   -1    0    0  502  501  0.00000000000E+00  0.00000000000E+00  0.14296073067E+04  0.14296073067E+04  0.00000000000E+00 0. -1.
       21   -1    0    0  501  502 -0.00000000000E+00 -0.00000000000E+00 -0.83442986100E+03  0.83442986100E+03  0.00000000000E+00 0.  1.
       39    2    1    2    0    0  0.00000000000E+00  0.00000000000E+00  0.59517744571E+03  0.22640371677E+04  0.21844056640E+04 0.  0.
       25    1    3    3    0    0  0.74801293980E+03 -0.75733441455E+03  0.79678616819E+02  0.10747336673E+04  0.12500000000E+03 0.  0.
       25    1    3    3    0    0 -0.74801293980E+03  0.75733441455E+03  0.51549882889E+03  0.11893035004E+04  0.12500000000E+03 0.  0.
<mgrwt>
<rscale>  0 0.21844057E+04</rscale>
<asrwt>0</asrwt>
<pdfrwt beam="1">  1       21 0.21993959E+00 0.21844057E+04</pdfrwt>
<pdfrwt beam="2">  1       21 0.12837383E+00 0.21844057E+04</pdfrwt>
<totfact> 0.17932797E+01</totfact>
</mgrwt>
<rwgt>
  <wgt id="1">5.79e-12</wgt>
  <wgt id="2">5.05271e-12</wgt>
  <wgt id="3">6.70274e-12</wgt>
  <wgt id="4">5.79e-12</wgt>
  <wgt id="5">5.05271e-12</wgt>
  <wgt id="6">6.70274e-12</wgt>
  <wgt id="7">5.79e-12</wgt>
  <wgt id="8">5.05271e-12</wgt>
  <wgt id="9">6.70274e-12</wgt>
  <wgt id="10">5.97373e-12</wgt>
  <wgt id="11">5.96904e-12</wgt>
  <wgt id="12">5.96345e-12</wgt>
  <wgt id="13">5.95421e-12</wgt>
  <wgt id="14">5.99517e-12</wgt>
  <wgt id="15">5.98327e-12</wgt>
  <wgt id="16">5.96315e-12</wgt>
  <wgt id="17">5.98772e-12</wgt>
  <wgt id="18">5.96502e-12</wgt>
  <wgt id="19">5.98598e-12</wgt>
  <wgt id="20">5.95781e-12</wgt>
  <wgt id="21">5.93695e-12</wgt>
  <wgt id="22">5.94979e-12</wgt>
  <wgt id="23">5.91821e-12</wgt>
  <wgt id="24">5.94446e-12</wgt>
  <wgt id="25">5.95858e-12</wgt>
  <wgt id="26">5.99537e-12</wgt>
  <wgt id="27">5.97189e-12</wgt>
  <wgt id="28">5.94483e-12</wgt>
  <wgt id="29">5.9786e-12</wgt>
  <wgt id="30">5.95266e-12</wgt>
  <wgt id="31">5.99277e-12</wgt>
  <wgt id="32">5.95839e-12</wgt>
  <wgt id="33">5.9861e-12</wgt>
  <wgt id="34">5.95289e-12</wgt>
  <wgt id="35">5.9634e-12</wgt>
  <wgt id="36">5.99027e-12</wgt>
  <wgt id="37">5.95815e-12</wgt>
  <wgt id="38">5.95803e-12</wgt>
  <wgt id="39">6.03987e-12</wgt>
  <wgt id="40">5.98454e-12</wgt>
  <wgt id="41">5.97169e-12</wgt>
  <wgt id="42">5.98767e-12</wgt>
  <wgt id="43">5.97546e-12</wgt>
  <wgt id="44">5.95928e-12</wgt>
  <wgt id="45">5.98359e-12</wgt>
  <wgt id="46">5.9776e-12</wgt>
  <wgt id="47">5.95928e-12</wgt>
  <wgt id="48">5.97375e-12</wgt>
  <wgt id="49">5.97936e-12</wgt>
  <wgt id="50">5.99559e-12</wgt>
  <wgt id="51">5.98931e-12</wgt>
  <wgt id="52">5.96711e-12</wgt>
  <wgt id="53">5.94201e-12</wgt>
  <wgt id="54">5.96561e-12</wgt>
  <wgt id="55">5.97259e-12</wgt>
  <wgt id="56">5.99614e-12</wgt>
  <wgt id="57">5.99145e-12</wgt>
  <wgt id="58">5.94047e-12</wgt>
  <wgt id="59">5.95648e-12</wgt>
  <wgt id="60">5.97846e-12</wgt>
  <wgt id="61">5.95503e-12</wgt>
  <wgt id="62">5.96432e-12</wgt>
  <wgt id="63">5.97349e-12</wgt>
  <wgt id="64">5.97886e-12</wgt>
  <wgt id="65">5.98206e-12</wgt>
  <wgt id="66">5.96651e-12</wgt>
  <wgt id="67">5.95528e-12</wgt>
  <wgt id="68">5.96935e-12</wgt>
  <wgt id="69">5.97447e-12</wgt>
  <wgt id="70">5.97309e-12</wgt>
  <wgt id="71">5.9723e-12</wgt>
  <wgt id="72">5.96392e-12</wgt>
  <wgt id="73">5.97764e-12</wgt>
  <wgt id="74">5.9757e-12</wgt>
  <wgt id="75">5.96761e-12</wgt>
  <wgt id="76">5.98654e-12</wgt>
  <wgt id="77">5.97247e-12</wgt>
  <wgt id="78">5.97453e-12</wgt>
  <wgt id="79">5.98599e-12</wgt>
  <wgt id="80">5.95234e-12</wgt>
  <wgt id="81">5.96811e-12</wgt>
  <wgt id="82">5.97381e-12</wgt>
  <wgt id="83">5.95305e-12</wgt>
  <wgt id="84">5.96542e-12</wgt>
  <wgt id="85">5.96156e-12</wgt>
  <wgt id="86">5.98974e-12</wgt>
  <wgt id="87">5.94472e-12</wgt>
  <wgt id="88">5.97954e-12</wgt>
  <wgt id="89">5.97884e-12</wgt>
  <wgt id="90">5.98438e-12</wgt>
  <wgt id="91">5.97918e-12</wgt>
  <wgt id="92">5.98458e-12</wgt>
  <wgt id="93">5.97524e-12</wgt>
  <wgt id="94">5.9687e-12</wgt>
  <wgt id="95">5.98016e-12</wgt>
  <wgt id="96">5.97721e-12</wgt>
  <wgt id="97">5.96443e-12</wgt>
  <wgt id="98">5.97613e-12</wgt>
  <wgt id="99">5.96692e-12</wgt>
  <wgt id="100">5.97859e-12</wgt>
  <wgt id="101">5.97382e-12</wgt>
  <wgt id="102">5.96892e-12</wgt>
  <wgt id="103">5.981e-12</wgt>
  <wgt id="104">5.97172e-12</wgt>
  <wgt id="105">5.98102e-12</wgt>
  <wgt id="106">5.96556e-12</wgt>
  <wgt id="107">5.98919e-12</wgt>
  <wgt id="108">5.9682e-12</wgt>
  <wgt id="109">5.97352e-12</wgt>
  <wgt id="110">5.97434e-12</wgt>
  <wgt id="111">6.03333e-12</wgt>
  <wgt id="112">5.97629e-12</wgt>
  <wgt id="113">7.95674e-12</wgt>
  <wgt id="114">8.17251e-12</wgt>
  <wgt id="115">8.05364e-12</wgt>
  <wgt id="116">1.10072e-11</wgt>
  <wgt id="117">6.58107e-12</wgt>
  <wgt id="118">6.60261e-12</wgt>
  <wgt id="119">6.56862e-12</wgt>
  <wgt id="120">6.58181e-12</wgt>
  <wgt id="121">6.58081e-12</wgt>
  <wgt id="122">6.56921e-12</wgt>
  <wgt id="123">6.59709e-12</wgt>
  <wgt id="124">6.57143e-12</wgt>
  <wgt id="125">6.58703e-12</wgt>
  <wgt id="126">6.59181e-12</wgt>
  <wgt id="127">6.57382e-12</wgt>
  <wgt id="128">6.60162e-12</wgt>
  <wgt id="129">6.56074e-12</wgt>
  <wgt id="130">6.61829e-12</wgt>
  <wgt id="131">6.54299e-12</wgt>
  <wgt id="132">6.41368e-12</wgt>
  <wgt id="133">6.77843e-12</wgt>
  <wgt id="134">6.51296e-12</wgt>
  <wgt id="135">6.63428e-12</wgt>
  <wgt id="136">6.66239e-12</wgt>
  <wgt id="137">6.48236e-12</wgt>
  <wgt id="138">6.82749e-12</wgt>
  <wgt id="139">6.34238e-12</wgt>
  <wgt id="140">6.53747e-12</wgt>
  <wgt id="141">6.61496e-12</wgt>
  <wgt id="142">6.58176e-12</wgt>
  <wgt id="143">6.59035e-12</wgt>
  <wgt id="144">6.40881e-12</wgt>
  <wgt id="145">6.73988e-12</wgt>
  <wgt id="146">6.63524e-12</wgt>
  <wgt id="147">6.53814e-12</wgt>
  <wgt id="148">6.60051e-12</wgt>
  <wgt id="149">6.57959e-12</wgt>
  <wgt id="150">6.63648e-12</wgt>
  <wgt id="151">6.55525e-12</wgt>
  <wgt id="152">6.58376e-12</wgt>
  <wgt id="153">6.58004e-12</wgt>
  <wgt id="154">6.63446e-12</wgt>
  <wgt id="155">6.517e-12</wgt>
  <wgt id="156">6.70069e-12</wgt>
  <wgt id="157">6.45183e-12</wgt>
  <wgt id="158">7.91881e-12</wgt>
  <wgt id="159">7.95195e-12</wgt>
  <wgt id="160">7.89224e-12</wgt>
  <wgt id="161">7.90028e-12</wgt>
  <wgt id="162">7.93985e-12</wgt>
  <wgt id="163">7.91068e-12</wgt>
  <wgt id="164">7.93091e-12</wgt>
  <wgt id="165">7.92212e-12</wgt>
  <wgt id="166">7.91633e-12</wgt>
  <wgt id="167">7.91295e-12</wgt>
  <wgt id="168">7.92715e-12</wgt>
  <wgt id="169">7.88471e-12</wgt>
  <wgt id="170">7.93992e-12</wgt>
  <wgt id="171">7.91083e-12</wgt>
  <wgt id="172">7.92997e-12</wgt>
  <wgt id="173">7.9184e-12</wgt>
  <wgt id="174">7.9189e-12</wgt>
  <wgt id="175">7.70416e-12</wgt>
  <wgt id="176">8.19824e-12</wgt>
  <wgt id="177">7.95843e-12</wgt>
  <wgt id="178">7.88236e-12</wgt>
  <wgt id="179">8.23824e-12</wgt>
  <wgt id="180">7.41363e-12</wgt>
  <wgt id="181">7.69664e-12</wgt>
  <wgt id="182">8.0652e-12</wgt>
  <wgt id="183">7.78297e-12</wgt>
  <wgt id="184">7.98606e-12</wgt>
  <wgt id="185">7.8554e-12</wgt>
  <wgt id="186">7.99404e-12</wgt>
  <wgt id="187">7.84828e-12</wgt>
  <wgt id="188">8.04508e-12</wgt>
  <wgt id="189">7.86977e-12</wgt>
  <wgt id="190">7.93877e-12</wgt>
  <wgt id="191">7.93962e-12</wgt>
  <wgt id="192">7.90637e-12</wgt>
  <wgt id="193">8.02643e-12</wgt>
  <wgt id="194">7.86552e-12</wgt>
  <wgt id="195">7.74403e-12</wgt>
  <wgt id="196">8.24012e-12</wgt>
  <wgt id="197">7.95671e-12</wgt>
  <wgt id="198">7.90981e-12</wgt>
  <wgt id="199">7.91881e-12</wgt>
  <wgt id="200">7.98456e-12</wgt>
  <wgt id="201">7.96065e-12</wgt>
  <wgt id="202">7.93713e-12</wgt>
  <wgt id="203">7.90198e-12</wgt>
  <wgt id="204">7.8853e-12</wgt>
  <wgt id="205">7.87152e-12</wgt>
  <wgt id="206">7.71377e-12</wgt>
  <wgt id="207">7.75846e-12</wgt>
  <wgt id="208">7.66986e-12</wgt>
  <wgt id="209">7.7354e-12</wgt>
  <wgt id="210">7.69858e-12</wgt>
  <wgt id="211">7.71178e-12</wgt>
  <wgt id="212">7.71561e-12</wgt>
  <wgt id="213">7.71331e-12</wgt>
  <wgt id="214">7.7148e-12</wgt>
  <wgt id="215">7.71904e-12</wgt>
  <wgt id="216">7.71039e-12</wgt>
  <wgt id="217">7.73446e-12</wgt>
  <wgt id="218">7.69789e-12</wgt>
  <wgt id="219">7.70426e-12</wgt>
  <wgt id="220">7.71999e-12</wgt>
  <wgt id="221">7.71103e-12</wgt>
  <wgt id="222">7.7207e-12</wgt>
  <wgt id="223">7.31982e-12</wgt>
  <wgt id="224">8.07204e-12</wgt>
  <wgt id="225">7.62604e-12</wgt>
  <wgt id="226">7.82433e-12</wgt>
  <wgt id="227">7.64393e-12</wgt>
  <wgt id="228">7.74469e-12</wgt>
  <wgt id="229">7.61066e-12</wgt>
  <wgt id="230">7.76535e-12</wgt>
  <wgt id="231">7.92762e-12</wgt>
  <wgt id="232">7.53779e-12</wgt>
  <wgt id="233">7.67544e-12</wgt>
  <wgt id="234">7.77395e-12</wgt>
  <wgt id="235">7.56858e-12</wgt>
  <wgt id="236">7.85232e-12</wgt>
  <wgt id="237">7.61388e-12</wgt>
  <wgt id="238">7.74828e-12</wgt>
  <wgt id="239">7.67038e-12</wgt>
  <wgt id="240">7.79345e-12</wgt>
  <wgt id="241">7.63869e-12</wgt>
  <wgt id="242">7.80413e-12</wgt>
  <wgt id="243">7.79461e-12</wgt>
  <wgt id="244">7.7583e-12</wgt>
  <wgt id="245">7.70796e-12</wgt>
  <wgt id="246">7.77146e-12</wgt>
  <wgt id="247">7.71377e-12</wgt>
  <wgt id="248">7.77947e-12</wgt>
  <wgt id="249">7.75439e-12</wgt>
  <wgt id="250">7.73105e-12</wgt>
  <wgt id="251">7.69627e-12</wgt>
  <wgt id="252">7.67981e-12</wgt>
  <wgt id="253">7.66793e-12</wgt>
  <wgt id="254">7.54365e-12</wgt>
  <wgt id="255">7.55047e-12</wgt>
  <wgt id="256">7.53593e-12</wgt>
  <wgt id="257">7.54934e-12</wgt>
  <wgt id="258">7.53927e-12</wgt>
  <wgt id="259">7.59347e-12</wgt>
  <wgt id="260">7.49518e-12</wgt>
  <wgt id="261">7.55207e-12</wgt>
  <wgt id="262">7.53329e-12</wgt>
  <wgt id="263">7.54037e-12</wgt>
  <wgt id="264">7.54697e-12</wgt>
  <wgt id="265">7.53558e-12</wgt>
  <wgt id="266">7.55973e-12</wgt>
  <wgt id="267">7.5457e-12</wgt>
  <wgt id="268">7.54033e-12</wgt>
  <wgt id="269">7.56574e-12</wgt>
  <wgt id="270">7.52839e-12</wgt>
  <wgt id="271">7.5305e-12</wgt>
  <wgt id="272">7.55834e-12</wgt>
  <wgt id="273">7.52133e-12</wgt>
  <wgt id="274">7.56037e-12</wgt>
  <wgt id="275">7.51375e-12</wgt>
  <wgt id="276">7.57443e-12</wgt>
  <wgt id="277">7.50198e-12</wgt>
  <wgt id="278">7.58195e-12</wgt>
  <wgt id="279">7.40636e-12</wgt>
  <wgt id="280">7.7155e-12</wgt>
  <wgt id="281">7.51266e-12</wgt>
  <wgt id="282">7.54471e-12</wgt>
  <wgt id="283">7.33772e-12</wgt>
  <wgt id="284">7.79645e-12</wgt>
  <wgt id="285">7.20041e-12</wgt>
  <wgt id="286">7.82629e-12</wgt>
  <wgt id="287">7.5663e-12</wgt>
  <wgt id="288">7.51445e-12</wgt>
  <wgt id="289">7.59394e-12</wgt>
  <wgt id="290">7.42566e-12</wgt>
  <wgt id="291">7.52431e-12</wgt>
  <wgt id="292">7.54793e-12</wgt>
  <wgt id="293">7.48839e-12</wgt>
  <wgt id="294">7.59843e-12</wgt>
  <wgt id="295">7.40699e-12</wgt>
  <wgt id="296">7.70985e-12</wgt>
  <wgt id="297">7.54506e-12</wgt>
  <wgt id="298">7.56825e-12</wgt>
  <wgt id="299">7.52077e-12</wgt>
  <wgt id="300">7.60376e-12</wgt>
  <wgt id="301">7.45468e-12</wgt>
  <wgt id="302">7.77884e-12</wgt>
  <wgt id="303">7.49268e-12</wgt>
  <wgt id="304">7.57284e-12</wgt>
  <wgt id="305">7.5719e-12</wgt>
  <wgt id="306">7.57953e-12</wgt>
  <wgt id="307">7.56339e-12</wgt>
  <wgt id="308">7.57858e-12</wgt>
  <wgt id="309">7.56761e-12</wgt>
  <wgt id="310">7.62409e-12</wgt>
  <wgt id="311">7.52342e-12</wgt>
  <wgt id="312">7.57822e-12</wgt>
  <wgt id="313">7.56551e-12</wgt>
  <wgt id="314">7.56867e-12</wgt>
  <wgt id="315">7.57463e-12</wgt>
  <wgt id="316">7.56402e-12</wgt>
  <wgt id="317">7.5884e-12</wgt>
  <wgt id="318">7.57688e-12</wgt>
  <wgt id="319">7.56297e-12</wgt>
  <wgt id="320">7.59511e-12</wgt>
  <wgt id="321">7.55873e-12</wgt>
  <wgt id="322">7.55468e-12</wgt>
  <wgt id="323">7.59146e-12</wgt>
  <wgt id="324">7.55352e-12</wgt>
  <wgt id="325">7.58766e-12</wgt>
  <wgt id="326">7.54764e-12</wgt>
  <wgt id="327">7.6028e-12</wgt>
  <wgt id="328">7.53339e-12</wgt>
  <wgt id="329">7.59359e-12</wgt>
  <wgt id="330">7.78494e-12</wgt>
  <wgt id="331">7.36816e-12</wgt>
  <wgt id="332">7.546e-12</wgt>
  <wgt id="333">7.57191e-12</wgt>
  <wgt id="334">7.41004e-12</wgt>
  <wgt id="335">7.77236e-12</wgt>
  <wgt id="336">7.32214e-12</wgt>
  <wgt id="337">7.87438e-12</wgt>
  <wgt id="338">7.65215e-12</wgt>
  <wgt id="339">7.4972e-12</wgt>
  <wgt id="340">7.61929e-12</wgt>
  <wgt id="341">7.44825e-12</wgt>
  <wgt id="342">7.55885e-12</wgt>
  <wgt id="343">7.56458e-12</wgt>
  <wgt id="344">7.5216e-12</wgt>
  <wgt id="345">7.62998e-12</wgt>
  <wgt id="346">7.42979e-12</wgt>
  <wgt id="347">7.73495e-12</wgt>
  <wgt id="348">7.57701e-12</wgt>
  <wgt id="349">7.59174e-12</wgt>
  <wgt id="350">7.54292e-12</wgt>
  <wgt id="351">7.64486e-12</wgt>
  <wgt id="352">7.47384e-12</wgt>
  <wgt id="353">7.81864e-12</wgt>
  <wgt id="354">7.49454e-12</wgt>
  <wgt id="355">7.61978e-12</wgt>
  <wgt id="356">7.54365e-12</wgt>
  <wgt id="357">7.60415e-12</wgt>
  <wgt id="358">7.5719e-12</wgt>
  <wgt id="359">7.57128e-12</wgt>
  <wgt id="360">7.58783e-12</wgt>
  <wgt id="361">7.56556e-12</wgt>
  <wgt id="362">7.69018e-12</wgt>
  <wgt id="363">7.67282e-12</wgt>
  <wgt id="364">7.64811e-12</wgt>
  <wgt id="365">7.62384e-12</wgt>
  <wgt id="366">7.59607e-12</wgt>
  <wgt id="367">7.53963e-12</wgt>
  <wgt id="368">7.50808e-12</wgt>
  <wgt id="369">7.47405e-12</wgt>
  <wgt id="370">7.56556e-12</wgt>
  <wgt id="371">7.59907e-12</wgt>
  <wgt id="372">7.58074e-12</wgt>
  <wgt id="373">7.55329e-12</wgt>
  <wgt id="374">7.55067e-12</wgt>
  <wgt id="375">8.05133e-12</wgt>
  <wgt id="376">8.05227e-12</wgt>
  <wgt id="377">8.05003e-12</wgt>
  <wgt id="378">8.08041e-12</wgt>
  <wgt id="379">8.02243e-12</wgt>
  <wgt id="380">8.0732e-12</wgt>
  <wgt id="381">8.04273e-12</wgt>
  <wgt id="382">8.09025e-12</wgt>
  <wgt id="383">8.0127e-12</wgt>
  <wgt id="384">8.05651e-12</wgt>
  <wgt id="385">8.04638e-12</wgt>
  <wgt id="386">8.08101e-12</wgt>
  <wgt id="387">8.03843e-12</wgt>
  <wgt id="388">8.04396e-12</wgt>
  <wgt id="389">8.05992e-12</wgt>
  <wgt id="390">8.07174e-12</wgt>
  <wgt id="391">8.02982e-12</wgt>
  <wgt id="392">7.99475e-12</wgt>
  <wgt id="393">8.08359e-12</wgt>
  <wgt id="394">8.06227e-12</wgt>
  <wgt id="395">8.03643e-12</wgt>
  <wgt id="396">8.05512e-12</wgt>
  <wgt id="397">8.04865e-12</wgt>
  <wgt id="398">8.02136e-12</wgt>
  <wgt id="399">8.0804e-12</wgt>
  <wgt id="400">8.03925e-12</wgt>
  <wgt id="401">8.07835e-12</wgt>
  <wgt id="402">7.98971e-12</wgt>
  <wgt id="403">8.0777e-12</wgt>
  <wgt id="404">8.22749e-12</wgt>
  <wgt id="405">7.6253e-12</wgt>
  <wgt id="406">7.92394e-12</wgt>
  <wgt id="407">8.32683e-12</wgt>
  <wgt id="408">8.11642e-12</wgt>
  <wgt id="409">7.92627e-12</wgt>
  <wgt id="410">7.84227e-12</wgt>
  <wgt id="411">8.14784e-12</wgt>
  <wgt id="412">8.03751e-12</wgt>
  <wgt id="413">8.07049e-12</wgt>
  <wgt id="414">7.96775e-12</wgt>
  <wgt id="415">8.11644e-12</wgt>
  <wgt id="416">8.24934e-12</wgt>
  <wgt id="417">7.77726e-12</wgt>
  <wgt id="418">8.06168e-12</wgt>
  <wgt id="419">7.99496e-12</wgt>
  <wgt id="420">8.1537e-12</wgt>
  <wgt id="421">7.99559e-12</wgt>
  <wgt id="422">8.04426e-12</wgt>
  <wgt id="423">8.05641e-12</wgt>
  <wgt id="424">8.19696e-12</wgt>
  <wgt id="425">7.96079e-12</wgt>
  <wgt id="426">8.05133e-12</wgt>
  <wgt id="427">7.9859e-12</wgt>
  <wgt id="428">8.24278e-12</wgt>
  <wgt id="429">8.11724e-12</wgt>
  <wgt id="430">8.33318e-12</wgt>
  <wgt id="431">8.29023e-12</wgt>
  <wgt id="432">8.2495e-12</wgt>
  <wgt id="433">8.20995e-12</wgt>
  <wgt id="434">8.16213e-12</wgt>
  <wgt id="435">8.06137e-12</wgt>
  <wgt id="436">8.00941e-12</wgt>
  <wgt id="437">7.96009e-12</wgt>
  <wgt id="438">8.11724e-12</wgt>
  <wgt id="439">8.14381e-12</wgt>
  <wgt id="440">8.12833e-12</wgt>
  <wgt id="441">8.10904e-12</wgt>
  <wgt id="442">8.10207e-12</wgt>
  <wgt id="443">7.88024e-12</wgt>
  <wgt id="444">7.92167e-12</wgt>
  <wgt id="445">7.86413e-12</wgt>
  <wgt id="446">7.8306e-12</wgt>
  <wgt id="447">7.85961e-12</wgt>
  <wgt id="448">7.68656e-12</wgt>
  <wgt id="449">7.99639e-12</wgt>
  <wgt id="450">7.86518e-12</wgt>
  <wgt id="451">7.86794e-12</wgt>
  <wgt id="452">8.04257e-12</wgt>
  <wgt id="453">7.94436e-12</wgt>
  <wgt id="454">7.57281e-12</wgt>
  <wgt id="455">7.89558e-12</wgt>
  <wgt id="456">7.8105e-12</wgt>
  <wgt id="457">7.90728e-12</wgt>
  <wgt id="458">7.97089e-12</wgt>
  <wgt id="459">7.93282e-12</wgt>
  <wgt id="460">7.93482e-12</wgt>
  <wgt id="461">7.74619e-12</wgt>
  <wgt id="462">7.82651e-12</wgt>
  <wgt id="463">7.79733e-12</wgt>
  <wgt id="464">7.84309e-12</wgt>
  <wgt id="465">7.95386e-12</wgt>
  <wgt id="466">7.79271e-12</wgt>
  <wgt id="467">7.81321e-12</wgt>
  <wgt id="468">7.8618e-12</wgt>
  <wgt id="469">7.86376e-12</wgt>
  <wgt id="470">7.81009e-12</wgt>
  <wgt id="471">7.81693e-12</wgt>
  <wgt id="472">7.9126e-12</wgt>
  <wgt id="473">7.65989e-12</wgt>
  <wgt id="474">5.79e-12</wgt>
  <wgt id="475">6.07519e-12</wgt>
  <wgt id="476">5.68534e-12</wgt>
  <wgt id="477">5.63425e-12</wgt>
  <wgt id="478">5.83173e-12</wgt>
  <wgt id="479">5.70268e-12</wgt>
  <wgt id="480">5.99007e-12</wgt>
  <wgt id="481">5.69254e-12</wgt>
  <wgt id="482">5.61663e-12</wgt>
  <wgt id="483">5.64767e-12</wgt>
  <wgt id="484">6.09508e-12</wgt>
  <wgt id="485">5.75074e-12</wgt>
  <wgt id="486">5.95281e-12</wgt>
  <wgt id="487">5.84383e-12</wgt>
  <wgt id="488">5.88153e-12</wgt>
  <wgt id="489">5.54281e-12</wgt>
  <wgt id="490">5.6068e-12</wgt>
  <wgt id="491">5.74867e-12</wgt>
  <wgt id="492">5.64525e-12</wgt>
  <wgt id="493">5.58092e-12</wgt>
  <wgt id="494">5.61665e-12</wgt>
  <wgt id="495">5.84655e-12</wgt>
  <wgt id="496">5.60302e-12</wgt>
  <wgt id="497">5.57579e-12</wgt>
  <wgt id="498">5.89548e-12</wgt>
  <wgt id="499">5.67799e-12</wgt>
  <wgt id="500">5.67998e-12</wgt>
  <wgt id="501">6.02658e-12</wgt>
  <wgt id="502">5.68233e-12</wgt>
  <wgt id="503">5.7884e-12</wgt>
  <wgt id="504">5.84074e-12</wgt>
  <wgt id="505">5.71895e-12</wgt>
  <wgt id="506">5.82908e-12</wgt>
  <wgt id="507">5.75829e-12</wgt>
  <wgt id="508">5.92471e-12</wgt>
  <wgt id="509">5.58144e-12</wgt>
  <wgt id="510">5.92187e-12</wgt>
  <wgt id="511">5.64365e-12</wgt>
  <wgt id="512">5.89841e-12</wgt>
  <wgt id="513">5.98403e-12</wgt>
  <wgt id="514">5.79078e-12</wgt>
  <wgt id="515">5.74173e-12</wgt>
  <wgt id="516">6.00306e-12</wgt>
  <wgt id="517">5.92363e-12</wgt>
  <wgt id="518">5.94636e-12</wgt>
  <wgt id="519">5.64973e-12</wgt>
  <wgt id="520">5.85807e-12</wgt>
  <wgt id="521">5.97328e-12</wgt>
  <wgt id="522">6.02388e-12</wgt>
  <wgt id="523">5.83494e-12</wgt>
  <wgt id="524">5.82971e-12</wgt>
  <wgt id="525">5.94038e-12</wgt>
  <wgt id="526">5.81917e-12</wgt>
  <wgt id="527">5.87145e-12</wgt>
  <wgt id="528">5.80415e-12</wgt>
  <wgt id="529">5.7239e-12</wgt>
  <wgt id="530">5.8708e-12</wgt>
  <wgt id="531">5.70718e-12</wgt>
  <wgt id="532">6.11574e-12</wgt>
  <wgt id="533">5.49125e-12</wgt>
  <wgt id="534">5.78523e-12</wgt>
  <wgt id="535">5.84492e-12</wgt>
  <wgt id="536">5.76176e-12</wgt>
  <wgt id="537">5.79795e-12</wgt>
  <wgt id="538">5.87453e-12</wgt>
  <wgt id="539">5.67696e-12</wgt>
  <wgt id="540">5.73695e-12</wgt>
  <wgt id="541">5.64838e-12</wgt>
  <wgt id="542">5.69557e-12</wgt>
  <wgt id="543">5.77933e-12</wgt>
  <wgt id="544">6.05726e-12</wgt>
  <wgt id="545">5.69731e-12</wgt>
  <wgt id="546">5.67934e-12</wgt>
  <wgt id="547">5.64039e-12</wgt>
  <wgt id="548">5.55822e-12</wgt>
  <wgt id="549">5.70344e-12</wgt>
  <wgt id="550">5.7286e-12</wgt>
  <wgt id="551">5.86893e-12</wgt>
  <wgt id="552">5.67735e-12</wgt>
  <wgt id="553">5.75722e-12</wgt>
  <wgt id="554">6.20648e-12</wgt>
  <wgt id="555">5.95308e-12</wgt>
  <wgt id="556">5.6068e-12</wgt>
  <wgt id="557">5.90635e-12</wgt>
  <wgt id="558">5.63044e-12</wgt>
  <wgt id="559">5.69351e-12</wgt>
  <wgt id="560">6.2916e-12</wgt>
  <wgt id="561">5.68965e-12</wgt>
  <wgt id="562">5.90858e-12</wgt>
  <wgt id="563">5.70785e-12</wgt>
  <wgt id="564">5.85771e-12</wgt>
  <wgt id="565">5.63227e-12</wgt>
  <wgt id="566">5.8611e-12</wgt>
  <wgt id="567">5.72378e-12</wgt>
  <wgt id="568">5.78414e-12</wgt>
  <wgt id="569">5.86358e-12</wgt>
  <wgt id="570">5.61092e-12</wgt>
  <wgt id="571">6.39816e-12</wgt>
  <wgt id="572">5.68409e-12</wgt>
  <wgt id="573">5.56402e-12</wgt>
  <wgt id="574">5.60665e-12</wgt>
  <wgt id="575">6.35114e-12</wgt>
  <wgt id="576">6.33661e-12</wgt>
  <wgt id="577">6.56003e-12</wgt>
  <wgt id="578">6.50847e-12</wgt>
  <wgt id="579">6.46142e-12</wgt>
  <wgt id="580">6.50216e-12</wgt>
  <wgt id="581">6.77686e-12</wgt>
  <wgt id="582">6.32745e-12</wgt>
  <wgt id="583">6.40575e-12</wgt>
  <wgt id="584">6.34325e-12</wgt>
  <wgt id="585">6.31816e-12</wgt>
  <wgt id="586">6.18221e-12</wgt>
  <wgt id="587">6.43397e-12</wgt>
  <wgt id="588">6.34087e-12</wgt>
  <wgt id="589">6.48524e-12</wgt>
  <wgt id="590">6.41023e-12</wgt>
  <wgt id="591">6.59592e-12</wgt>
  <wgt id="592">6.14721e-12</wgt>
  <wgt id="593">6.30885e-12</wgt>
  <wgt id="594">6.56265e-12</wgt>
  <wgt id="595">6.346e-12</wgt>
  <wgt id="596">6.49055e-12</wgt>
  <wgt id="597">6.17949e-12</wgt>
  <wgt id="598">6.19612e-12</wgt>
  <wgt id="599">6.6039e-12</wgt>
  <wgt id="600">6.32793e-12</wgt>
  <wgt id="601">6.1707e-12</wgt>
  <wgt id="602">6.19893e-12</wgt>
  <wgt id="603">6.23174e-12</wgt>
  <wgt id="604">6.4421e-12</wgt>
  <wgt id="605">6.59626e-12</wgt>
  <wgt id="606">6.26113e-12</wgt>
  <wgt id="607">6.30648e-12</wgt>
  <wgt id="608">6.39319e-12</wgt>
  <wgt id="609">6.0353e-12</wgt>
  <wgt id="610">6.12172e-12</wgt>
  <wgt id="611">6.40007e-12</wgt>
  <wgt id="612">6.82169e-12</wgt>
  <wgt id="613">6.33321e-12</wgt>
  <wgt id="614">6.40121e-12</wgt>
  <wgt id="615">6.25356e-12</wgt>
  <wgt id="616">6.69245e-12</wgt>
  <wgt id="617">6.52119e-12</wgt>
  <wgt id="618">6.5693e-12</wgt>
  <wgt id="619">6.30289e-12</wgt>
  <wgt id="620">6.55753e-12</wgt>
  <wgt id="621">6.40136e-12</wgt>
  <wgt id="622">6.43397e-12</wgt>
  <wgt id="623">6.51017e-12</wgt>
  <wgt id="624">6.32658e-12</wgt>
  <wgt id="625">6.25682e-12</wgt>
  <wgt id="626">6.16591e-12</wgt>
  <wgt id="627">6.10057e-12</wgt>
  <wgt id="628">6.56433e-12</wgt>
  <wgt id="629">6.24807e-12</wgt>
  <wgt id="630">6.16228e-12</wgt>
  <wgt id="631">6.37234e-12</wgt>
  <wgt id="632">6.11729e-12</wgt>
  <wgt id="633">6.29443e-12</wgt>
  <wgt id="634">6.32731e-12</wgt>
  <wgt id="635">6.20246e-12</wgt>
  <wgt id="636">6.41082e-12</wgt>
  <wgt id="637">6.37079e-12</wgt>
  <wgt id="638">6.1424e-12</wgt>
  <wgt id="639">6.27339e-12</wgt>
  <wgt id="640">6.36e-12</wgt>
  <wgt id="641">6.41598e-12</wgt>
  <wgt id="642">6.13844e-12</wgt>
  <wgt id="643">6.3212e-12</wgt>
  <wgt id="644">6.04006e-12</wgt>
  <wgt id="645">6.38714e-12</wgt>
  <wgt id="646">6.39497e-12</wgt>
  <wgt id="647">6.26689e-12</wgt>
  <wgt id="648">6.41367e-12</wgt>
  <wgt id="649">6.42511e-12</wgt>
  <wgt id="650">6.21384e-12</wgt>
  <wgt id="651">6.46375e-12</wgt>
  <wgt id="652">6.31013e-12</wgt>
  <wgt id="653">6.17769e-12</wgt>
  <wgt id="654">6.28444e-12</wgt>
  <wgt id="655">6.24081e-12</wgt>
  <wgt id="656">6.33511e-12</wgt>
  <wgt id="657">6.60664e-12</wgt>
  <wgt id="658">6.39696e-12</wgt>
  <wgt id="659">6.10531e-12</wgt>
  <wgt id="660">6.44627e-12</wgt>
  <wgt id="661">6.26462e-12</wgt>
  <wgt id="662">6.32263e-12</wgt>
  <wgt id="663">6.35655e-12</wgt>
  <wgt id="664">6.27643e-12</wgt>
  <wgt id="665">6.34104e-12</wgt>
  <wgt id="666">6.31473e-12</wgt>
  <wgt id="667">6.56878e-12</wgt>
  <wgt id="668">6.33514e-12</wgt>
  <wgt id="669">6.49965e-12</wgt>
  <wgt id="670">6.47359e-12</wgt>
  <wgt id="671">6.28556e-12</wgt>
  <wgt id="672">6.09368e-12</wgt>
  <wgt id="673">6.38316e-12</wgt>
  <wgt id="674">6.21555e-12</wgt>
  <wgt id="675">6.24677e-12</wgt>
  <wgt id="676">7.9524e-12</wgt>
  <wgt id="677">8.05687e-12</wgt>
  <wgt id="678">8.34123e-12</wgt>
  <wgt id="679">7.57111e-12</wgt>
  <wgt id="680">7.75334e-12</wgt>
  <wgt id="681">8.11672e-12</wgt>
  <wgt id="682">8.12814e-12</wgt>
  <wgt id="683">7.83944e-12</wgt>
  <wgt id="684">8.28109e-12</wgt>
  <wgt id="685">7.61653e-12</wgt>
  <wgt id="686">7.85402e-12</wgt>
  <wgt id="687">8.27506e-12</wgt>
  <wgt id="688">7.86758e-12</wgt>
  <wgt id="689">8.43459e-12</wgt>
  <wgt id="690">8.33412e-12</wgt>
  <wgt id="691">8.34398e-12</wgt>
  <wgt id="692">7.90125e-12</wgt>
  <wgt id="693">9.26854e-12</wgt>
  <wgt id="694">8.42862e-12</wgt>
  <wgt id="695">7.70076e-12</wgt>
  <wgt id="696">7.63591e-12</wgt>
  <wgt id="697">7.66766e-12</wgt>
  <wgt id="698">7.3417e-12</wgt>
  <wgt id="699">7.26092e-12</wgt>
  <wgt id="700">7.05938e-12</wgt>
  <wgt id="701">7.95974e-12</wgt>
  <wgt id="702">7.72589e-12</wgt>
  <wgt id="703">9.05383e-12</wgt>
  <wgt id="704">8.64734e-12</wgt>
  <wgt id="705">8.36519e-12</wgt>
  <wgt id="706">7.49399e-12</wgt>
  <wgt id="707">7.64115e-12</wgt>
  <wgt id="708">7.83405e-12</wgt>
  <wgt id="709">7.8048e-12</wgt>
  <wgt id="710">7.23847e-12</wgt>
  <wgt id="711">7.9301e-12</wgt>
  <wgt id="712">7.79093e-12</wgt>
  <wgt id="713">8.50698e-12</wgt>
  <wgt id="714">7.81115e-12</wgt>
  <wgt id="715">7.8555e-12</wgt>
  <wgt id="716">7.67127e-12</wgt>
  <wgt id="717">7.56207e-12</wgt>
  <wgt id="718">7.9279e-12</wgt>
  <wgt id="719">7.27048e-12</wgt>
  <wgt id="720">7.59381e-12</wgt>
  <wgt id="721">7.38556e-12</wgt>
  <wgt id="722">7.10894e-12</wgt>
  <wgt id="723">8.44359e-12</wgt>
  <wgt id="724">8.30388e-12</wgt>
  <wgt id="725">8.36434e-12</wgt>
  <wgt id="726">8.00954e-12</wgt>
  <wgt id="727">7.79253e-12</wgt>
  <wgt id="728">7.81065e-12</wgt>
  <wgt id="729">7.45831e-12</wgt>
  <wgt id="730">8.45924e-12</wgt>
  <wgt id="731">7.8472e-12</wgt>
  <wgt id="732">8.71276e-12</wgt>
  <wgt id="733">7.86544e-12</wgt>
  <wgt id="734">8.12836e-12</wgt>
  <wgt id="735">7.9761e-12</wgt>
  <wgt id="736">7.79131e-12</wgt>
  <wgt id="737">8.05144e-12</wgt>
  <wgt id="738">7.6433e-12</wgt>
  <wgt id="739">8.05528e-12</wgt>
  <wgt id="740">8.80901e-12</wgt>
  <wgt id="741">7.17021e-12</wgt>
  <wgt id="742">7.85218e-12</wgt>
  <wgt id="743">7.63572e-12</wgt>
  <wgt id="744">7.78949e-12</wgt>
  <wgt id="745">8.26866e-12</wgt>
  <wgt id="746">8.39436e-12</wgt>
  <wgt id="747">7.23658e-12</wgt>
  <wgt id="748">7.84095e-12</wgt>
  <wgt id="749">8.34106e-12</wgt>
  <wgt id="750">8.15329e-12</wgt>
  <wgt id="751">8.17129e-12</wgt>
  <wgt id="752">7.33747e-12</wgt>
  <wgt id="753">7.53372e-12</wgt>
  <wgt id="754">8.19997e-12</wgt>
  <wgt id="755">7.97013e-12</wgt>
  <wgt id="756">7.95277e-12</wgt>
  <wgt id="757">7.35041e-12</wgt>
  <wgt id="758">7.99027e-12</wgt>
  <wgt id="759">8.18058e-12</wgt>
  <wgt id="760">8.02885e-12</wgt>
  <wgt id="761">8.38459e-12</wgt>
  <wgt id="762">8.39938e-12</wgt>
  <wgt id="763">7.95023e-12</wgt>
  <wgt id="764">8.24367e-12</wgt>
  <wgt id="765">8.02333e-12</wgt>
  <wgt id="766">7.93524e-12</wgt>
  <wgt id="767">8.11537e-12</wgt>
  <wgt id="768">7.52276e-12</wgt>
  <wgt id="769">8.40237e-12</wgt>
  <wgt id="770">7.80591e-12</wgt>
  <wgt id="771">9.30236e-12</wgt>
  <wgt id="772">7.53732e-12</wgt>
  <wgt id="773">7.905e-12</wgt>
  <wgt id="774">7.07028e-12</wgt>
  <wgt id="775">8.30216e-12</wgt>
  <wgt id="776">8.619e-12</wgt>
  <wgt id="777">7.60844e-12</wgt>
  <wgt id="778">5.89938e-12</wgt>
  <wgt id="779">4.87991e-12</wgt>
  <wgt id="780">4.00913e-12</wgt>
  <wgt id="781">6.21509e-12</wgt>
  <wgt id="782">6.28567e-12</wgt>
  <wgt id="783">4.94274e-12</wgt>
  <wgt id="784">5.15385e-12</wgt>
  <wgt id="785">7.20613e-12</wgt>
  <wgt id="786">4.56534e-12</wgt>
  <wgt id="787">6.68167e-12</wgt>
  <wgt id="788">3.70217e-12</wgt>
  <wgt id="789">4.88376e-12</wgt>
  <wgt id="790">4.51052e-12</wgt>
  <wgt id="791">5.64526e-12</wgt>
  <wgt id="792">7.75812e-12</wgt>
  <wgt id="793">5.79028e-12</wgt>
  <wgt id="794">4.52333e-12</wgt>
  <wgt id="795">6.85659e-12</wgt>
  <wgt id="796">7.66683e-12</wgt>
  <wgt id="797">6.84278e-12</wgt>
  <wgt id="798">5.3909e-12</wgt>
  <wgt id="799">6.66821e-12</wgt>
  <wgt id="800">4.89261e-12</wgt>
  <wgt id="801">5.51711e-12</wgt>
  <wgt id="802">4.54519e-12</wgt>
  <wgt id="803">7.85755e-12</wgt>
  <wgt id="804">6.81681e-12</wgt>
  <wgt id="805">6.89805e-12</wgt>
  <wgt id="806">6.54789e-12</wgt>
  <wgt id="807">5.65166e-12</wgt>
  <wgt id="808">5.72096e-12</wgt>
  <wgt id="809">5.47439e-12</wgt>
  <wgt id="810">6.63871e-12</wgt>
  <wgt id="811">6.37233e-12</wgt>
  <wgt id="812">4.52425e-12</wgt>
  <wgt id="813">4.60673e-12</wgt>
  <wgt id="814">4.91659e-12</wgt>
  <wgt id="815">4.89017e-12</wgt>
  <wgt id="816">4.41897e-12</wgt>
  <wgt id="817">6.15e-12</wgt>
  <wgt id="818">5.93543e-12</wgt>
  <wgt id="819">4.89999e-12</wgt>
  <wgt id="820">5.88263e-12</wgt>
  <wgt id="821">6.7018e-12</wgt>
  <wgt id="822">4.9575e-12</wgt>
  <wgt id="823">6.76651e-12</wgt>
  <wgt id="824">7.86305e-12</wgt>
  <wgt id="825">4.37366e-12</wgt>
  <wgt id="826">6.24011e-12</wgt>
  <wgt id="827">3.6716e-12</wgt>
  <wgt id="828">7.52507e-12</wgt>
  <wgt id="829">6.0818e-12</wgt>
  <wgt id="830">4.15754e-12</wgt>
  <wgt id="831">6.3389e-12</wgt>
  <wgt id="832">9.52246e-12</wgt>
  <wgt id="833">5.48198e-12</wgt>
  <wgt id="834">9.00382e-12</wgt>
  <wgt id="835">4.83638e-12</wgt>
  <wgt id="836">5.77938e-12</wgt>
  <wgt id="837">6.61997e-12</wgt>
  <wgt id="838">5.54682e-12</wgt>
  <wgt id="839">6.30547e-12</wgt>
  <wgt id="840">5.51953e-12</wgt>
  <wgt id="841">7.20195e-12</wgt>
  <wgt id="842">5.43125e-12</wgt>
  <wgt id="843">5.83576e-12</wgt>
  <wgt id="844">6.13541e-12</wgt>
  <wgt id="845">8.32941e-12</wgt>
  <wgt id="846">5.733e-12</wgt>
  <wgt id="847">5.94486e-12</wgt>
  <wgt id="848">5.07441e-12</wgt>
  <wgt id="849">6.05041e-12</wgt>
  <wgt id="850">7.61626e-12</wgt>
  <wgt id="851">6.46055e-12</wgt>
  <wgt id="852">4.94175e-12</wgt>
  <wgt id="853">6.47478e-12</wgt>
  <wgt id="854">7.16059e-12</wgt>
  <wgt id="855">6.73929e-12</wgt>
  <wgt id="856">4.24343e-12</wgt>
  <wgt id="857">5.86641e-12</wgt>
  <wgt id="858">5.72742e-12</wgt>
  <wgt id="859">5.53933e-12</wgt>
  <wgt id="860">6.36899e-12</wgt>
  <wgt id="861">5.23917e-12</wgt>
  <wgt id="862">5.97321e-12</wgt>
  <wgt id="863">6.23401e-12</wgt>
  <wgt id="864">6.20504e-12</wgt>
  <wgt id="865">8.30563e-12</wgt>
  <wgt id="866">9.11862e-12</wgt>
  <wgt id="867">5.96494e-12</wgt>
  <wgt id="868">5.80502e-12</wgt>
  <wgt id="869">4.58459e-12</wgt>
  <wgt id="870">4.83781e-12</wgt>
  <wgt id="871">4.70131e-12</wgt>
  <wgt id="872">7.01187e-12</wgt>
  <wgt id="873">4.95249e-12</wgt>
  <wgt id="874">6.19435e-12</wgt>
  <wgt id="875">5.12649e-12</wgt>
  <wgt id="876">6.98135e-12</wgt>
  <wgt id="877">6.65729e-12</wgt>
  <wgt id="878">5.0787e-12</wgt>
  <wgt id="879">7.9524e-12</wgt>
  <wgt id="880">8.05687e-12</wgt>
  <wgt id="881">8.34123e-12</wgt>
  <wgt id="882">7.57111e-12</wgt>
  <wgt id="883">7.75334e-12</wgt>
  <wgt id="884">8.11672e-12</wgt>
  <wgt id="885">8.12814e-12</wgt>
  <wgt id="886">7.83944e-12</wgt>
  <wgt id="887">8.28109e-12</wgt>
  <wgt id="888">7.61653e-12</wgt>
  <wgt id="889">7.85402e-12</wgt>
  <wgt id="890">8.27506e-12</wgt>
  <wgt id="891">7.86758e-12</wgt>
  <wgt id="892">8.43459e-12</wgt>
  <wgt id="893">8.33412e-12</wgt>
  <wgt id="894">8.34398e-12</wgt>
  <wgt id="895">7.90125e-12</wgt>
  <wgt id="896">9.26854e-12</wgt>
  <wgt id="897">8.42862e-12</wgt>
  <wgt id="898">7.70076e-12</wgt>
  <wgt id="899">7.63591e-12</wgt>
  <wgt id="900">7.66766e-12</wgt>
  <wgt id="901">7.3417e-12</wgt>
  <wgt id="902">7.26092e-12</wgt>
  <wgt id="903">7.05938e-12</wgt>
  <wgt id="904">7.95974e-12</wgt>
  <wgt id="905">7.72589e-12</wgt>
  <wgt id="906">9.05383e-12</wgt>
  <wgt id="907">8.64734e-12</wgt>
  <wgt id="908">8.36519e-12</wgt>
  <wgt id="909">7.49399e-12</wgt>
  <wgt id="910">7.64115e-12</wgt>
  <wgt id="911">7.83405e-12</wgt>
  <wgt id="912">7.8048e-12</wgt>
  <wgt id="913">7.23847e-12</wgt>
  <wgt id="914">7.9301e-12</wgt>
  <wgt id="915">7.79093e-12</wgt>
  <wgt id="916">8.50698e-12</wgt>
  <wgt id="917">7.81115e-12</wgt>
  <wgt id="918">7.8555e-12</wgt>
  <wgt id="919">7.67127e-12</wgt>
  <wgt id="920">7.56207e-12</wgt>
  <wgt id="921">7.9279e-12</wgt>
  <wgt id="922">7.27048e-12</wgt>
  <wgt id="923">7.59381e-12</wgt>
  <wgt id="924">7.38556e-12</wgt>
  <wgt id="925">7.10894e-12</wgt>
  <wgt id="926">8.44359e-12</wgt>
  <wgt id="927">8.30388e-12</wgt>
  <wgt id="928">8.36434e-12</wgt>
  <wgt id="929">8.00954e-12</wgt>
  <wgt id="930">7.79253e-12</wgt>
  <wgt id="931">7.81065e-12</wgt>
  <wgt id="932">7.45831e-12</wgt>
  <wgt id="933">8.45924e-12</wgt>
  <wgt id="934">7.8472e-12</wgt>
  <wgt id="935">8.71276e-12</wgt>
  <wgt id="936">7.86544e-12</wgt>
  <wgt id="937">8.12836e-12</wgt>
  <wgt id="938">7.9761e-12</wgt>
  <wgt id="939">7.79131e-12</wgt>
  <wgt id="940">8.05144e-12</wgt>
  <wgt id="941">7.6433e-12</wgt>
  <wgt id="942">8.05528e-12</wgt>
  <wgt id="943">8.80901e-12</wgt>
  <wgt id="944">7.17021e-12</wgt>
  <wgt id="945">7.85218e-12</wgt>
  <wgt id="946">7.63572e-12</wgt>
  <wgt id="947">7.78949e-12</wgt>
  <wgt id="948">8.26866e-12</wgt>
  <wgt id="949">8.39436e-12</wgt>
  <wgt id="950">7.23658e-12</wgt>
  <wgt id="951">7.84095e-12</wgt>
  <wgt id="952">8.34106e-12</wgt>
  <wgt id="953">8.15329e-12</wgt>
  <wgt id="954">8.17129e-12</wgt>
  <wgt id="955">7.33747e-12</wgt>
  <wgt id="956">7.53372e-12</wgt>
  <wgt id="957">8.19997e-12</wgt>
  <wgt id="958">7.97013e-12</wgt>
  <wgt id="959">7.95277e-12</wgt>
  <wgt id="960">7.35041e-12</wgt>
  <wgt id="961">7.99027e-12</wgt>
  <wgt id="962">8.18058e-12</wgt>
  <wgt id="963">8.02885e-12</wgt>
  <wgt id="964">8.38459e-12</wgt>
  <wgt id="965">8.39938e-12</wgt>
  <wgt id="966">7.95023e-12</wgt>
  <wgt id="967">8.24367e-12</wgt>
  <wgt id="968">8.02333e-12</wgt>
  <wgt id="969">7.93524e-12</wgt>
  <wgt id="970">8.11537e-12</wgt>
  <wgt id="971">7.52276e-12</wgt>
  <wgt id="972">8.40237e-12</wgt>
  <wgt id="973">7.80591e-12</wgt>
  <wgt id="974">9.30236e-12</wgt>
  <wgt id="975">7.53732e-12</wgt>
  <wgt id="976">7.905e-12</wgt>
  <wgt id="977">7.07028e-12</wgt>
  <wgt id="978">8.30216e-12</wgt>
  <wgt id="979">8.619e-12</wgt>
  <wgt id="980">7.95212e-12</wgt>
  <wgt id="981">7.9866e-12</wgt>
  <wgt id="982">7.72068e-12</wgt>
</rwgt>
</event>
<event>
 5   1  0.5790000E-11  0.2153378E+04  0.7818608E-02  0.7766662E-01
       21   -1    0    0  502  501  0.00000000000E+00  0.00000000000E+00  0.70599234423E+03  0.70599234423E+03  0.00000000000E+00 0. -1.
       21   -1    0    0  501  502 -0.00000000000E+00 -0.00000000000E+00 -0.16420273035E+04  0.16420273035E+04  0.00000000000E+00 0.  1.
       39    2    1    2    0    0  0.00000000000E+00  0.00000000000E+00 -0.93603495923E+03  0.23480196477E+04  0.21533775380E+04 0.  0.
       25    1    3    3    0    0 -0.25160034541E+03  0.73966674057E+03  0.32820865184E+03  0.85659531872E+03  0.12500000000E+03 0.  0.
       25    1    3    3    0    0  0.25160034541E+03 -0.73966674057E+03 -0.12642436111E+04  0.14914243290E+04  0.12500000000E+03 0.  0.
<mgrwt>
<rscale>  0 0.21533775E+04</rscale>
<asrwt>0</asrwt>
<pdfrwt beam="1">  1       21 0.10861421E+00 0.21533775E+04</pdfrwt>
<pdfrwt beam="2">  1       21 0.25261958E+00 0.21533775E+04</pdfrwt>
<totfact> 0.16881037E+01</totfact>
</mgrwt>
<rwgt>
  <wgt id="1">5.79e-12</wgt>
  <wgt id="2">5.04709e-12</wgt>
  <wgt id="3">6.7106e-12</wgt>
  <wgt id="4">5.79e-12</wgt>
  <wgt id="5">5.04709e-12</wgt>
  <wgt id="6">6.7106e-12</wgt>
  <wgt id="7">5.79e-12</wgt>
  <wgt id="8">5.04709e-12</wgt>
  <wgt id="9">6.7106e-12</wgt>
  <wgt id="10">5.99671e-12</wgt>
  <wgt id="11">5.99319e-12</wgt>
  <wgt id="12">5.98755e-12</wgt>
  <wgt id="13">5.97931e-12</wgt>
  <wgt id="14">6.01851e-12</wgt>
  <wgt id="15">6.00696e-12</wgt>
  <wgt id="16">5.98802e-12</wgt>
  <wgt id="17">6.01593e-12</wgt>
  <wgt id="18">5.987e-12</wgt>
  <wgt id="19">6.01074e-12</wgt>
  <wgt id="20">5.98481e-12</wgt>
  <wgt id="21">5.95368e-12</wgt>
  <wgt id="22">5.96406e-12</wgt>
  <wgt id="23">5.9303e-12</wgt>
  <wgt id="24">5.96186e-12</wgt>
  <wgt id="25">5.97871e-12</wgt>
  <wgt id="26">6.01532e-12</wgt>
  <wgt id="27">5.99216e-12</wgt>
  <wgt id="28">5.96491e-12</wgt>
  <wgt id="29">6.00042e-12</wgt>
  <wgt id="30">5.96532e-12</wgt>
  <wgt id="31">6.0205e-12</wgt>
  <wgt id="32">5.9744e-12</wgt>
  <wgt id="33">6.00782e-12</wgt>
  <wgt id="34">5.96902e-12</wgt>
  <wgt id="35">5.97994e-12</wgt>
  <wgt id="36">6.01771e-12</wgt>
  <wgt id="37">5.98037e-12</wgt>
  <wgt id="38">5.9783e-12</wgt>
  <wgt id="39">6.07445e-12</wgt>
  <wgt id="40">6.00204e-12</wgt>
  <wgt id="41">5.99397e-12</wgt>
  <wgt id="42">6.00537e-12</wgt>
  <wgt id="43">5.99558e-12</wgt>
  <wgt id="44">5.99894e-12</wgt>
  <wgt id="45">6.00729e-12</wgt>
  <wgt id="46">5.99356e-12</wgt>
  <wgt id="47">6.00392e-12</wgt>
  <wgt id="48">6.00029e-12</wgt>
  <wgt id="49">5.97974e-12</wgt>
  <wgt id="50">5.9925e-12</wgt>
  <wgt id="51">5.99526e-12</wgt>
  <wgt id="52">6.00703e-12</wgt>
  <wgt id="53">5.97943e-12</wgt>
  <wgt id="54">5.99834e-12</wgt>
  <wgt id="55">5.99611e-12</wgt>
  <wgt id="56">6.01768e-12</wgt>
  <wgt id="57">6.00501e-12</wgt>
  <wgt id="58">5.97471e-12</wgt>
  <wgt id="59">5.9853e-12</wgt>
  <wgt id="60">5.99754e-12</wgt>
  <wgt id="61">5.96393e-12</wgt>
  <wgt id="62">5.9771e-12</wgt>
  <wgt id="63">5.98875e-12</wgt>
  <wgt id="64">5.99824e-12</wgt>
  <wgt id="65">6.00319e-12</wgt>
  <wgt id="66">5.99049e-12</wgt>
  <wgt id="67">5.96836e-12</wgt>
  <wgt id="68">5.99479e-12</wgt>
  <wgt id="69">5.99745e-12</wgt>
  <wgt id="70">5.99778e-12</wgt>
  <wgt id="71">5.99414e-12</wgt>
  <wgt id="72">5.97932e-12</wgt>
  <wgt id="73">6.00541e-12</wgt>
  <wgt id="74">6.00015e-12</wgt>
  <wgt id="75">5.99027e-12</wgt>
  <wgt id="76">6.0131e-12</wgt>
  <wgt id="77">5.99359e-12</wgt>
  <wgt id="78">5.99454e-12</wgt>
  <wgt id="79">6.01226e-12</wgt>
  <wgt id="80">5.97145e-12</wgt>
  <wgt id="81">5.99416e-12</wgt>
  <wgt id="82">5.99745e-12</wgt>
  <wgt id="83">5.97391e-12</wgt>
  <wgt id="84">5.98944e-12</wgt>
  <wgt id="85">5.98166e-12</wgt>
  <wgt id="86">6.0154e-12</wgt>
  <wgt id="87">5.9625e-12</wgt>
  <wgt id="88">6.00342e-12</wgt>
  <wgt id="89">6.00137e-12</wgt>
  <wgt id="90">6.01167e-12</wgt>
  <wgt id="91">6.00344e-12</wgt>
  <wgt id="92">6.00897e-12</wgt>
  <wgt id="93">6.00168e-12</wgt>
  <wgt id="94">5.99053e-12</wgt>
  <wgt id="95">6.00933e-12</wgt>
  <wgt id="96">6.0026e-12</wgt>
  <wgt id="97">5.98312e-12</wgt>
  <wgt id="98">5.99892e-12</wgt>
  <wgt id="99">5.98465e-12</wgt>
  <wgt id="100">6.00535e-12</wgt>
  <wgt id="101">5.99853e-12</wgt>
  <wgt id="102">5.99291e-12</wgt>
  <wgt id="103">6.00657e-12</wgt>
  <wgt id="104">5.99318e-12</wgt>
  <wgt id="105">6.00598e-12</wgt>
  <wgt id="106">5.98681e-12</wgt>
  <wgt id="107">6.01641e-12</wgt>
  <wgt id="108">5.98931e-12</wgt>
  <wgt id="109">5.99921e-12</wgt>
  <wgt id="110">5.99645e-12</wgt>
  <wgt id="111">6.04008e-12</wgt>
  <wgt id="112">6.02049e-12</wgt>
  <wgt id="113">8.11066e-12</wgt>
  <wgt id="114">8.15918e-12</wgt>
  <wgt id="115">8.02714e-12</wgt>
  <wgt id="116">1.089e-11</wgt>
  <wgt id="117">6.59103e-12</wgt>
  <wgt id="118">6.61258e-12</wgt>
  <wgt id="119">6.5787e-12</wgt>
  <wgt id="120">6.59166e-12</wgt>
  <wgt id="121">6.59064e-12</wgt>
  <wgt id="122">6.57951e-12</wgt>
  <wgt id="123">6.60678e-12</wgt>
  <wgt id="124">6.5816e-12</wgt>
  <wgt id="125">6.59702e-12</wgt>
  <wgt id="126">6.60108e-12</wgt>
  <wgt id="127">6.58425e-12</wgt>
  <wgt id="128">6.61144e-12</wgt>
  <wgt id="129">6.5707e-12</wgt>
  <wgt id="130">6.62655e-12</wgt>
  <wgt id="131">6.55428e-12</wgt>
  <wgt id="132">6.4213e-12</wgt>
  <wgt id="133">6.79135e-12</wgt>
  <wgt id="134">6.52285e-12</wgt>
  <wgt id="135">6.64424e-12</wgt>
  <wgt id="136">6.67625e-12</wgt>
  <wgt id="137">6.4881e-12</wgt>
  <wgt id="138">6.84743e-12</wgt>
  <wgt id="139">6.34377e-12</wgt>
  <wgt id="140">6.55023e-12</wgt>
  <wgt id="141">6.62271e-12</wgt>
  <wgt id="142">6.59106e-12</wgt>
  <wgt id="143">6.60311e-12</wgt>
  <wgt id="144">6.3979e-12</wgt>
  <wgt id="145">6.77132e-12</wgt>
  <wgt id="146">6.65158e-12</wgt>
  <wgt id="147">6.54271e-12</wgt>
  <wgt id="148">6.61157e-12</wgt>
  <wgt id="149">6.58955e-12</wgt>
  <wgt id="150">6.64603e-12</wgt>
  <wgt id="151">6.56523e-12</wgt>
  <wgt id="152">6.59329e-12</wgt>
  <wgt id="153">6.59022e-12</wgt>
  <wgt id="154">6.6357e-12</wgt>
  <wgt id="155">6.53432e-12</wgt>
  <wgt id="156">6.7316e-12</wgt>
  <wgt id="157">6.44634e-12</wgt>
  <wgt id="158">7.92768e-12</wgt>
  <wgt id="159">7.96079e-12</wgt>
  <wgt id="160">7.901e-12</wgt>
  <wgt id="161">7.90892e-12</wgt>
  <wgt id="162">7.94797e-12</wgt>
  <wgt id="163">7.91917e-12</wgt>
  <wgt id="164">7.93921e-12</wgt>
  <wgt id="165">7.93057e-12</wgt>
  <wgt id="166">7.92508e-12</wgt>
  <wgt id="167">7.92181e-12</wgt>
  <wgt id="168">7.93552e-12</wgt>
  <wgt id="169">7.89359e-12</wgt>
  <wgt id="170">7.94872e-12</wgt>
  <wgt id="171">7.92014e-12</wgt>
  <wgt id="172">7.93735e-12</wgt>
  <wgt id="173">7.92338e-12</wgt>
  <wgt id="174">7.92885e-12</wgt>
  <wgt id="175">7.71136e-12</wgt>
  <wgt id="176">8.2084e-12</wgt>
  <wgt id="177">7.96604e-12</wgt>
  <wgt id="178">7.89222e-12</wgt>
  <wgt id="179">8.26269e-12</wgt>
  <wgt id="180">7.3999e-12</wgt>
  <wgt id="181">7.69805e-12</wgt>
  <wgt id="182">8.07939e-12</wgt>
  <wgt id="183">7.78753e-12</wgt>
  <wgt id="184">7.9967e-12</wgt>
  <wgt id="185">7.85805e-12</wgt>
  <wgt id="186">8.00992e-12</wgt>
  <wgt id="187">7.85248e-12</wgt>
  <wgt id="188">8.06125e-12</wgt>
  <wgt id="189">7.87566e-12</wgt>
  <wgt id="190">7.94849e-12</wgt>
  <wgt id="191">7.95013e-12</wgt>
  <wgt id="192">7.91369e-12</wgt>
  <wgt id="193">8.03933e-12</wgt>
  <wgt id="194">7.8718e-12</wgt>
  <wgt id="195">7.73228e-12</wgt>
  <wgt id="196">8.27361e-12</wgt>
  <wgt id="197">7.96642e-12</wgt>
  <wgt id="198">7.91823e-12</wgt>
  <wgt id="199">7.92768e-12</wgt>
  <wgt id="200">7.99572e-12</wgt>
  <wgt id="201">7.97118e-12</wgt>
  <wgt id="202">7.94795e-12</wgt>
  <wgt id="203">7.91249e-12</wgt>
  <wgt id="204">7.89568e-12</wgt>
  <wgt id="205">7.88147e-12</wgt>
  <wgt id="206">7.73794e-12</wgt>
  <wgt id="207">7.78327e-12</wgt>
  <wgt id="208">7.69348e-12</wgt>
  <wgt id="209">7.75893e-12</wgt>
  <wgt id="210">7.72273e-12</wgt>
  <wgt id="211">7.73567e-12</wgt>
  <wgt id="212">7.7396e-12</wgt>
  <wgt id="213">7.73714e-12</wgt>
  <wgt id="214">7.73901e-12</wgt>
  <wgt id="215">7.74291e-12</wgt>
  <wgt id="216">7.73429e-12</wgt>
  <wgt id="217">7.75763e-12</wgt>
  <wgt id="218">7.72295e-12</wgt>
  <wgt id="219">7.72733e-12</wgt>
  <wgt id="220">7.74425e-12</wgt>
  <wgt id="221">7.73665e-12</wgt>
  <wgt id="222">7.74032e-12</wgt>
  <wgt id="223">7.33725e-12</wgt>
  <wgt id="224">8.10321e-12</wgt>
  <wgt id="225">7.64903e-12</wgt>
  <wgt id="226">7.85021e-12</wgt>
  <wgt id="227">7.66755e-12</wgt>
  <wgt id="228">7.76899e-12</wgt>
  <wgt id="229">7.63384e-12</wgt>
  <wgt id="230">7.78964e-12</wgt>
  <wgt id="231">7.96169e-12</wgt>
  <wgt id="232">7.55384e-12</wgt>
  <wgt id="233">7.69736e-12</wgt>
  <wgt id="234">7.8029e-12</wgt>
  <wgt id="235">7.55415e-12</wgt>
  <wgt id="236">7.90235e-12</wgt>
  <wgt id="237">7.61928e-12</wgt>
  <wgt id="238">7.77815e-12</wgt>
  <wgt id="239">7.68727e-12</wgt>
  <wgt id="240">7.82926e-12</wgt>
  <wgt id="241">7.6592e-12</wgt>
  <wgt id="242">7.83212e-12</wgt>
  <wgt id="243">7.82816e-12</wgt>
  <wgt id="244">7.7712e-12</wgt>
  <wgt id="245">7.73259e-12</wgt>
  <wgt id="246">7.79139e-12</wgt>
  <wgt id="247">7.73794e-12</wgt>
  <wgt id="248">7.80731e-12</wgt>
  <wgt id="249">7.78206e-12</wgt>
  <wgt id="250">7.75727e-12</wgt>
  <wgt id="251">7.72121e-12</wgt>
  <wgt id="252">7.70399e-12</wgt>
  <wgt id="253">7.69135e-12</wgt>
  <wgt id="254">7.53754e-12</wgt>
  <wgt id="255">7.54442e-12</wgt>
  <wgt id="256">7.5299e-12</wgt>
  <wgt id="257">7.54345e-12</wgt>
  <wgt id="258">7.53317e-12</wgt>
  <wgt id="259">7.58751e-12</wgt>
  <wgt id="260">7.48916e-12</wgt>
  <wgt id="261">7.54625e-12</wgt>
  <wgt id="262">7.52711e-12</wgt>
  <wgt id="263">7.53384e-12</wgt>
  <wgt id="264">7.54155e-12</wgt>
  <wgt id="265">7.52946e-12</wgt>
  <wgt id="266">7.55352e-12</wgt>
  <wgt id="267">7.53977e-12</wgt>
  <wgt id="268">7.53417e-12</wgt>
  <wgt id="269">7.55937e-12</wgt>
  <wgt id="270">7.52273e-12</wgt>
  <wgt id="271">7.52228e-12</wgt>
  <wgt id="272">7.55424e-12</wgt>
  <wgt id="273">7.51644e-12</wgt>
  <wgt id="274">7.55336e-12</wgt>
  <wgt id="275">7.50392e-12</wgt>
  <wgt id="276">7.57213e-12</wgt>
  <wgt id="277">7.49537e-12</wgt>
  <wgt id="278">7.57631e-12</wgt>
  <wgt id="279">7.40265e-12</wgt>
  <wgt id="280">7.70674e-12</wgt>
  <wgt id="281">7.50627e-12</wgt>
  <wgt id="282">7.54021e-12</wgt>
  <wgt id="283">7.32492e-12</wgt>
  <wgt id="284">7.79927e-12</wgt>
  <wgt id="285">7.18284e-12</wgt>
  <wgt id="286">7.83132e-12</wgt>
  <wgt id="287">7.56116e-12</wgt>
  <wgt id="288">7.50723e-12</wgt>
  <wgt id="289">7.59e-12</wgt>
  <wgt id="290">7.41683e-12</wgt>
  <wgt id="291">7.51599e-12</wgt>
  <wgt id="292">7.54129e-12</wgt>
  <wgt id="293">7.48003e-12</wgt>
  <wgt id="294">7.59437e-12</wgt>
  <wgt id="295">7.39651e-12</wgt>
  <wgt id="296">7.70959e-12</wgt>
  <wgt id="297">7.53498e-12</wgt>
  <wgt id="298">7.56481e-12</wgt>
  <wgt id="299">7.51429e-12</wgt>
  <wgt id="300">7.59862e-12</wgt>
  <wgt id="301">7.43715e-12</wgt>
  <wgt id="302">7.79282e-12</wgt>
  <wgt id="303">7.48057e-12</wgt>
  <wgt id="304">7.56999e-12</wgt>
  <wgt id="305">7.54352e-12</wgt>
  <wgt id="306">7.55063e-12</wgt>
  <wgt id="307">7.53545e-12</wgt>
  <wgt id="308">7.54994e-12</wgt>
  <wgt id="309">7.53878e-12</wgt>
  <wgt id="310">7.59497e-12</wgt>
  <wgt id="311">7.49532e-12</wgt>
  <wgt id="312">7.55e-12</wgt>
  <wgt id="313">7.5363e-12</wgt>
  <wgt id="314">7.53968e-12</wgt>
  <wgt id="315">7.54666e-12</wgt>
  <wgt id="316">7.53568e-12</wgt>
  <wgt id="317">7.56029e-12</wgt>
  <wgt id="318">7.54822e-12</wgt>
  <wgt id="319">7.53447e-12</wgt>
  <wgt id="320">7.5663e-12</wgt>
  <wgt id="321">7.53049e-12</wgt>
  <wgt id="322">7.52472e-12</wgt>
  <wgt id="323">7.56497e-12</wgt>
  <wgt id="324">7.52632e-12</wgt>
  <wgt id="325">7.55797e-12</wgt>
  <wgt id="326">7.51606e-12</wgt>
  <wgt id="327">7.57811e-12</wgt>
  <wgt id="328">7.50445e-12</wgt>
  <wgt id="329">7.56562e-12</wgt>
  <wgt id="330">7.75302e-12</wgt>
  <wgt id="331">7.34326e-12</wgt>
  <wgt id="332">7.51744e-12</wgt>
  <wgt id="333">7.54434e-12</wgt>
  <wgt id="334">7.37766e-12</wgt>
  <wgt id="335">7.74938e-12</wgt>
  <wgt id="336">7.28708e-12</wgt>
  <wgt id="337">7.85558e-12</wgt>
  <wgt id="338">7.62618e-12</wgt>
  <wgt id="339">7.46653e-12</wgt>
  <wgt id="340">7.59241e-12</wgt>
  <wgt id="341">7.41804e-12</wgt>
  <wgt id="342">7.52813e-12</wgt>
  <wgt id="343">7.53526e-12</wgt>
  <wgt id="344">7.49156e-12</wgt>
  <wgt id="345">7.6032e-12</wgt>
  <wgt id="346">7.39717e-12</wgt>
  <wgt id="347">7.71108e-12</wgt>
  <wgt id="348">7.5441e-12</wgt>
  <wgt id="349">7.56567e-12</wgt>
  <wgt id="350">7.51416e-12</wgt>
  <wgt id="351">7.61721e-12</wgt>
  <wgt id="352">7.43599e-12</wgt>
  <wgt id="353">7.80529e-12</wgt>
  <wgt id="354">7.45851e-12</wgt>
  <wgt id="355">7.59516e-12</wgt>
  <wgt id="356">7.53754e-12</wgt>
  <wgt id="357">7.56931e-12</wgt>
  <wgt id="358">7.54352e-12</wgt>
  <wgt id="359">7.55857e-12</wgt>
  <wgt id="360">7.60118e-12</wgt>
  <wgt id="361">7.56343e-12</wgt>
  <wgt id="362">7.69214e-12</wgt>
  <wgt id="363">7.67472e-12</wgt>
  <wgt id="364">7.64734e-12</wgt>
  <wgt id="365">7.62218e-12</wgt>
  <wgt id="366">7.59472e-12</wgt>
  <wgt id="367">7.53855e-12</wgt>
  <wgt id="368">7.50649e-12</wgt>
  <wgt id="369">7.47202e-12</wgt>
  <wgt id="370">7.56343e-12</wgt>
  <wgt id="371">7.59592e-12</wgt>
  <wgt id="372">7.57796e-12</wgt>
  <wgt id="373">7.55155e-12</wgt>
  <wgt id="374">7.55185e-12</wgt>
  <wgt id="375">8.17674e-12</wgt>
  <wgt id="376">8.1773e-12</wgt>
  <wgt id="377">8.17574e-12</wgt>
  <wgt id="378">8.20641e-12</wgt>
  <wgt id="379">8.14761e-12</wgt>
  <wgt id="380">8.19959e-12</wgt>
  <wgt id="381">8.1679e-12</wgt>
  <wgt id="382">8.21528e-12</wgt>
  <wgt id="383">8.13879e-12</wgt>
  <wgt id="384">8.18185e-12</wgt>
  <wgt id="385">8.17149e-12</wgt>
  <wgt id="386">8.20542e-12</wgt>
  <wgt id="387">8.16475e-12</wgt>
  <wgt id="388">8.16955e-12</wgt>
  <wgt id="389">8.18568e-12</wgt>
  <wgt id="390">8.19703e-12</wgt>
  <wgt id="391">8.1555e-12</wgt>
  <wgt id="392">8.11667e-12</wgt>
  <wgt id="393">8.2112e-12</wgt>
  <wgt id="394">8.18625e-12</wgt>
  <wgt id="395">8.16402e-12</wgt>
  <wgt id="396">8.18306e-12</wgt>
  <wgt id="397">8.17246e-12</wgt>
  <wgt id="398">8.15271e-12</wgt>
  <wgt id="399">8.20033e-12</wgt>
  <wgt id="400">8.16549e-12</wgt>
  <wgt id="401">8.20279e-12</wgt>
  <wgt id="402">8.11288e-12</wgt>
  <wgt id="403">8.20771e-12</wgt>
  <wgt id="404">8.36651e-12</wgt>
  <wgt id="405">7.71974e-12</wgt>
  <wgt id="406">8.03941e-12</wgt>
  <wgt id="407">8.47656e-12</wgt>
  <wgt id="408">8.2475e-12</wgt>
  <wgt id="409">8.04246e-12</wgt>
  <wgt id="410">7.95168e-12</wgt>
  <wgt id="411">8.28181e-12</wgt>
  <wgt id="412">8.16201e-12</wgt>
  <wgt id="413">8.19874e-12</wgt>
  <wgt id="414">8.08685e-12</wgt>
  <wgt id="415">8.24653e-12</wgt>
  <wgt id="416">8.39334e-12</wgt>
  <wgt id="417">7.87735e-12</wgt>
  <wgt id="418">8.18863e-12</wgt>
  <wgt id="419">8.1115e-12</wgt>
  <wgt id="420">8.29863e-12</wgt>
  <wgt id="421">8.10446e-12</wgt>
  <wgt id="422">8.16094e-12</wgt>
  <wgt id="423">8.1857e-12</wgt>
  <wgt id="424">8.34309e-12</wgt>
  <wgt id="425">8.06975e-12</wgt>
  <wgt id="426">8.17674e-12</wgt>
  <wgt id="427">8.08981e-12</wgt>
  <wgt id="428">8.40814e-12</wgt>
  <wgt id="429">8.25271e-12</wgt>
  <wgt id="430">8.48106e-12</wgt>
  <wgt id="431">8.43584e-12</wgt>
  <wgt id="432">8.39285e-12</wgt>
  <wgt id="433">8.35136e-12</wgt>
  <wgt id="434">8.30017e-12</wgt>
  <wgt id="435">8.19402e-12</wgt>
  <wgt id="436">8.13982e-12</wgt>
  <wgt id="437">8.08797e-12</wgt>
  <wgt id="438">8.25271e-12</wgt>
  <wgt id="439">8.27909e-12</wgt>
  <wgt id="440">8.2633e-12</wgt>
  <wgt id="441">8.24476e-12</wgt>
  <wgt id="442">8.23851e-12</wgt>
  <wgt id="443">7.88616e-12</wgt>
  <wgt id="444">7.93896e-12</wgt>
  <wgt id="445">7.8976e-12</wgt>
  <wgt id="446">7.83235e-12</wgt>
  <wgt id="447">7.87589e-12</wgt>
  <wgt id="448">7.6937e-12</wgt>
  <wgt id="449">8.01203e-12</wgt>
  <wgt id="450">7.90604e-12</wgt>
  <wgt id="451">7.87084e-12</wgt>
  <wgt id="452">8.05079e-12</wgt>
  <wgt id="453">7.95514e-12</wgt>
  <wgt id="454">7.55583e-12</wgt>
  <wgt id="455">7.91461e-12</wgt>
  <wgt id="456">7.88672e-12</wgt>
  <wgt id="457">7.91139e-12</wgt>
  <wgt id="458">7.99289e-12</wgt>
  <wgt id="459">7.94644e-12</wgt>
  <wgt id="460">7.96858e-12</wgt>
  <wgt id="461">7.73678e-12</wgt>
  <wgt id="462">7.83493e-12</wgt>
  <wgt id="463">7.78976e-12</wgt>
  <wgt id="464">7.84968e-12</wgt>
  <wgt id="465">7.96346e-12</wgt>
  <wgt id="466">7.77718e-12</wgt>
  <wgt id="467">7.81958e-12</wgt>
  <wgt id="468">7.86972e-12</wgt>
  <wgt id="469">7.87174e-12</wgt>
  <wgt id="470">7.80247e-12</wgt>
  <wgt id="471">7.81523e-12</wgt>
  <wgt id="472">7.92214e-12</wgt>
  <wgt id="473">7.66331e-12</wgt>
  <wgt id="474">5.79e-12</wgt>
  <wgt id="475">5.94821e-12</wgt>
  <wgt id="476">5.69975e-12</wgt>
  <wgt id="477">5.65729e-12</wgt>
  <wgt id="478">5.84088e-12</wgt>
  <wgt id="479">5.66464e-12</wgt>
  <wgt id="480">6.02711e-12</wgt>
  <wgt id="481">5.75775e-12</wgt>
  <wgt id="482">5.69531e-12</wgt>
  <wgt id="483">5.66232e-12</wgt>
  <wgt id="484">5.98969e-12</wgt>
  <wgt id="485">5.63518e-12</wgt>
  <wgt id="486">6.03512e-12</wgt>
  <wgt id="487">5.78893e-12</wgt>
  <wgt id="488">5.90027e-12</wgt>
  <wgt id="489">5.4797e-12</wgt>
  <wgt id="490">5.58127e-12</wgt>
  <wgt id="491">5.76522e-12</wgt>
  <wgt id="492">5.68695e-12</wgt>
  <wgt id="493">5.53988e-12</wgt>
  <wgt id="494">5.5867e-12</wgt>
  <wgt id="495">5.80838e-12</wgt>
  <wgt id="496">5.59853e-12</wgt>
  <wgt id="497">5.54363e-12</wgt>
  <wgt id="498">5.94047e-12</wgt>
  <wgt id="499">5.72974e-12</wgt>
  <wgt id="500">5.66476e-12</wgt>
  <wgt id="501">6.00486e-12</wgt>
  <wgt id="502">5.76991e-12</wgt>
  <wgt id="503">5.7912e-12</wgt>
  <wgt id="504">5.90294e-12</wgt>
  <wgt id="505">5.737e-12</wgt>
  <wgt id="506">5.72659e-12</wgt>
  <wgt id="507">5.79166e-12</wgt>
  <wgt id="508">5.99161e-12</wgt>
  <wgt id="509">5.41907e-12</wgt>
  <wgt id="510">5.89778e-12</wgt>
  <wgt id="511">5.59852e-12</wgt>
  <wgt id="512">5.97062e-12</wgt>
  <wgt id="513">5.96967e-12</wgt>
  <wgt id="514">5.87353e-12</wgt>
  <wgt id="515">5.78323e-12</wgt>
  <wgt id="516">6.11297e-12</wgt>
  <wgt id="517">5.92664e-12</wgt>
  <wgt id="518">5.95504e-12</wgt>
  <wgt id="519">5.62916e-12</wgt>
  <wgt id="520">5.90515e-12</wgt>
  <wgt id="521">5.90664e-12</wgt>
  <wgt id="522">6.03973e-12</wgt>
  <wgt id="523">5.71816e-12</wgt>
  <wgt id="524">5.757e-12</wgt>
  <wgt id="525">5.91784e-12</wgt>
  <wgt id="526">5.8802e-12</wgt>
  <wgt id="527">5.82212e-12</wgt>
  <wgt id="528">5.81871e-12</wgt>
  <wgt id="529">5.71118e-12</wgt>
  <wgt id="530">5.9426e-12</wgt>
  <wgt id="531">5.67844e-12</wgt>
  <wgt id="532">6.15571e-12</wgt>
  <wgt id="533">5.56858e-12</wgt>
  <wgt id="534">5.74885e-12</wgt>
  <wgt id="535">5.79839e-12</wgt>
  <wgt id="536">5.77532e-12</wgt>
  <wgt id="537">5.74693e-12</wgt>
  <wgt id="538">5.84321e-12</wgt>
  <wgt id="539">5.68928e-12</wgt>
  <wgt id="540">5.81445e-12</wgt>
  <wgt id="541">5.6356e-12</wgt>
  <wgt id="542">5.72707e-12</wgt>
  <wgt id="543">5.75978e-12</wgt>
  <wgt id="544">6.0114e-12</wgt>
  <wgt id="545">5.6523e-12</wgt>
  <wgt id="546">5.57644e-12</wgt>
  <wgt id="547">5.65845e-12</wgt>
  <wgt id="548">5.56008e-12</wgt>
  <wgt id="549">5.7034e-12</wgt>
  <wgt id="550">5.6701e-12</wgt>
  <wgt id="551">5.8726e-12</wgt>
  <wgt id="552">5.56394e-12</wgt>
  <wgt id="553">5.69924e-12</wgt>
  <wgt id="554">6.17554e-12</wgt>
  <wgt id="555">5.95032e-12</wgt>
  <wgt id="556">5.58127e-12</wgt>
  <wgt id="557">5.94e-12</wgt>
  <wgt id="558">5.66977e-12</wgt>
  <wgt id="559">5.65419e-12</wgt>
  <wgt id="560">6.34411e-12</wgt>
  <wgt id="561">5.74795e-12</wgt>
  <wgt id="562">5.9661e-12</wgt>
  <wgt id="563">5.88084e-12</wgt>
  <wgt id="564">5.96333e-12</wgt>
  <wgt id="565">5.69634e-12</wgt>
  <wgt id="566">5.84471e-12</wgt>
  <wgt id="567">5.75023e-12</wgt>
  <wgt id="568">5.75288e-12</wgt>
  <wgt id="569">5.88747e-12</wgt>
  <wgt id="570">5.55776e-12</wgt>
  <wgt id="571">6.38708e-12</wgt>
  <wgt id="572">5.69654e-12</wgt>
  <wgt id="573">5.60244e-12</wgt>
  <wgt id="574">5.62851e-12</wgt>
  <wgt id="575">6.36092e-12</wgt>
  <wgt id="576">6.5026e-12</wgt>
  <wgt id="577">6.57127e-12</wgt>
  <wgt id="578">6.55569e-12</wgt>
  <wgt id="579">6.53993e-12</wgt>
  <wgt id="580">6.60667e-12</wgt>
  <wgt id="581">6.87054e-12</wgt>
  <wgt id="582">6.49039e-12</wgt>
  <wgt id="583">6.41552e-12</wgt>
  <wgt id="584">6.32846e-12</wgt>
  <wgt id="585">6.19583e-12</wgt>
  <wgt id="586">6.13973e-12</wgt>
  <wgt id="587">6.46382e-12</wgt>
  <wgt id="588">6.44959e-12</wgt>
  <wgt id="589">6.60578e-12</wgt>
  <wgt id="590">6.35851e-12</wgt>
  <wgt id="591">6.58888e-12</wgt>
  <wgt id="592">6.00015e-12</wgt>
  <wgt id="593">6.28517e-12</wgt>
  <wgt id="594">6.4881e-12</wgt>
  <wgt id="595">6.4295e-12</wgt>
  <wgt id="596">6.68163e-12</wgt>
  <wgt id="597">6.28239e-12</wgt>
  <wgt id="598">6.13954e-12</wgt>
  <wgt id="599">6.62959e-12</wgt>
  <wgt id="600">6.42096e-12</wgt>
  <wgt id="601">6.16898e-12</wgt>
  <wgt id="602">6.17018e-12</wgt>
  <wgt id="603">6.16826e-12</wgt>
  <wgt id="604">6.46707e-12</wgt>
  <wgt id="605">6.57137e-12</wgt>
  <wgt id="606">6.37347e-12</wgt>
  <wgt id="607">6.39816e-12</wgt>
  <wgt id="608">6.48979e-12</wgt>
  <wgt id="609">6.13566e-12</wgt>
  <wgt id="610">6.1379e-12</wgt>
  <wgt id="611">6.30495e-12</wgt>
  <wgt id="612">6.75655e-12</wgt>
  <wgt id="613">6.28133e-12</wgt>
  <wgt id="614">6.36444e-12</wgt>
  <wgt id="615">6.3153e-12</wgt>
  <wgt id="616">6.55468e-12</wgt>
  <wgt id="617">6.52214e-12</wgt>
  <wgt id="618">6.80002e-12</wgt>
  <wgt id="619">6.28746e-12</wgt>
  <wgt id="620">6.5781e-12</wgt>
  <wgt id="621">6.35356e-12</wgt>
  <wgt id="622">6.46382e-12</wgt>
  <wgt id="623">6.50338e-12</wgt>
  <wgt id="624">6.37136e-12</wgt>
  <wgt id="625">6.21839e-12</wgt>
  <wgt id="626">6.06339e-12</wgt>
  <wgt id="627">6.03697e-12</wgt>
  <wgt id="628">6.44431e-12</wgt>
  <wgt id="629">6.30477e-12</wgt>
  <wgt id="630">6.14093e-12</wgt>
  <wgt id="631">6.41559e-12</wgt>
  <wgt id="632">6.03137e-12</wgt>
  <wgt id="633">6.33059e-12</wgt>
  <wgt id="634">6.24615e-12</wgt>
  <wgt id="635">6.06652e-12</wgt>
  <wgt id="636">6.44851e-12</wgt>
  <wgt id="637">6.36431e-12</wgt>
  <wgt id="638">6.1519e-12</wgt>
  <wgt id="639">6.24856e-12</wgt>
  <wgt id="640">6.34487e-12</wgt>
  <wgt id="641">6.51008e-12</wgt>
  <wgt id="642">6.06454e-12</wgt>
  <wgt id="643">6.30359e-12</wgt>
  <wgt id="644">5.88477e-12</wgt>
  <wgt id="645">6.3859e-12</wgt>
  <wgt id="646">6.24156e-12</wgt>
  <wgt id="647">6.31382e-12</wgt>
  <wgt id="648">6.48863e-12</wgt>
  <wgt id="649">6.40882e-12</wgt>
  <wgt id="650">6.17269e-12</wgt>
  <wgt id="651">6.58506e-12</wgt>
  <wgt id="652">6.25579e-12</wgt>
  <wgt id="653">6.16277e-12</wgt>
  <wgt id="654">6.25801e-12</wgt>
  <wgt id="655">6.2632e-12</wgt>
  <wgt id="656">6.35774e-12</wgt>
  <wgt id="657">6.77918e-12</wgt>
  <wgt id="658">6.36737e-12</wgt>
  <wgt id="659">6.10109e-12</wgt>
  <wgt id="660">6.39776e-12</wgt>
  <wgt id="661">6.27102e-12</wgt>
  <wgt id="662">6.32041e-12</wgt>
  <wgt id="663">6.40523e-12</wgt>
  <wgt id="664">6.33128e-12</wgt>
  <wgt id="665">6.35814e-12</wgt>
  <wgt id="666">6.28949e-12</wgt>
  <wgt id="667">6.61501e-12</wgt>
  <wgt id="668">6.34795e-12</wgt>
  <wgt id="669">6.48106e-12</wgt>
  <wgt id="670">6.55306e-12</wgt>
  <wgt id="671">6.34812e-12</wgt>
  <wgt id="672">6.114e-12</wgt>
  <wgt id="673">6.49176e-12</wgt>
  <wgt id="674">6.20855e-12</wgt>
  <wgt id="675">6.27369e-12</wgt>
  <wgt id="676">8.04308e-12</wgt>
  <wgt id="677">8.14863e-12</wgt>
  <wgt id="678">8.51183e-12</wgt>
  <wgt id="679">7.73282e-12</wgt>
  <wgt id="680">7.95045e-12</wgt>
  <wgt id="681">8.10399e-12</wgt>
  <wgt id="682">8.30921e-12</wgt>
  <wgt id="683">7.82377e-12</wgt>
  <wgt id="684">8.36848e-12</wgt>
  <wgt id="685">7.82563e-12</wgt>
  <wgt id="686">7.83606e-12</wgt>
  <wgt id="687">8.32617e-12</wgt>
  <wgt id="688">7.91198e-12</wgt>
  <wgt id="689">8.42943e-12</wgt>
  <wgt id="690">8.33314e-12</wgt>
  <wgt id="691">8.39628e-12</wgt>
  <wgt id="692">7.95667e-12</wgt>
  <wgt id="693">9.64017e-12</wgt>
  <wgt id="694">8.59789e-12</wgt>
  <wgt id="695">7.76953e-12</wgt>
  <wgt id="696">7.79009e-12</wgt>
  <wgt id="697">7.67447e-12</wgt>
  <wgt id="698">7.20633e-12</wgt>
  <wgt id="699">7.17049e-12</wgt>
  <wgt id="700">7.12338e-12</wgt>
  <wgt id="701">8.03795e-12</wgt>
  <wgt id="702">7.91132e-12</wgt>
  <wgt id="703">9.30331e-12</wgt>
  <wgt id="704">8.85254e-12</wgt>
  <wgt id="705">8.66087e-12</wgt>
  <wgt id="706">7.64542e-12</wgt>
  <wgt id="707">7.69061e-12</wgt>
  <wgt id="708">7.8719e-12</wgt>
  <wgt id="709">7.86131e-12</wgt>
  <wgt id="710">7.34212e-12</wgt>
  <wgt id="711">8.05429e-12</wgt>
  <wgt id="712">7.77229e-12</wgt>
  <wgt id="713">8.63818e-12</wgt>
  <wgt id="714">7.71185e-12</wgt>
  <wgt id="715">7.89894e-12</wgt>
  <wgt id="716">7.76343e-12</wgt>
  <wgt id="717">7.49663e-12</wgt>
  <wgt id="718">8.13464e-12</wgt>
  <wgt id="719">7.33379e-12</wgt>
  <wgt id="720">7.80459e-12</wgt>
  <wgt id="721">7.23337e-12</wgt>
  <wgt id="722">6.9999e-12</wgt>
  <wgt id="723">8.64236e-12</wgt>
  <wgt id="724">8.47856e-12</wgt>
  <wgt id="725">8.411e-12</wgt>
  <wgt id="726">8.05472e-12</wgt>
  <wgt id="727">7.92536e-12</wgt>
  <wgt id="728">7.82181e-12</wgt>
  <wgt id="729">7.75861e-12</wgt>
  <wgt id="730">8.61151e-12</wgt>
  <wgt id="731">7.89872e-12</wgt>
  <wgt id="732">8.93381e-12</wgt>
  <wgt id="733">7.81832e-12</wgt>
  <wgt id="734">8.22214e-12</wgt>
  <wgt id="735">8.14036e-12</wgt>
  <wgt id="736">7.76688e-12</wgt>
  <wgt id="737">8.0492e-12</wgt>
  <wgt id="738">7.72052e-12</wgt>
  <wgt id="739">8.34373e-12</wgt>
  <wgt id="740">9.00487e-12</wgt>
  <wgt id="741">7.46614e-12</wgt>
  <wgt id="742">7.94913e-12</wgt>
  <wgt id="743">7.60572e-12</wgt>
  <wgt id="744">7.87587e-12</wgt>
  <wgt id="745">8.42959e-12</wgt>
  <wgt id="746">8.60057e-12</wgt>
  <wgt id="747">7.12876e-12</wgt>
  <wgt id="748">7.92975e-12</wgt>
  <wgt id="749">8.36327e-12</wgt>
  <wgt id="750">8.47525e-12</wgt>
  <wgt id="751">8.17446e-12</wgt>
  <wgt id="752">7.38171e-12</wgt>
  <wgt id="753">7.51771e-12</wgt>
  <wgt id="754">8.3503e-12</wgt>
  <wgt id="755">8.00572e-12</wgt>
  <wgt id="756">7.97392e-12</wgt>
  <wgt id="757">7.32705e-12</wgt>
  <wgt id="758">7.97923e-12</wgt>
  <wgt id="759">8.58968e-12</wgt>
  <wgt id="760">7.99957e-12</wgt>
  <wgt id="761">8.54478e-12</wgt>
  <wgt id="762">8.57065e-12</wgt>
  <wgt id="763">8.03556e-12</wgt>
  <wgt id="764">8.37901e-12</wgt>
  <wgt id="765">8.14761e-12</wgt>
  <wgt id="766">8.04727e-12</wgt>
  <wgt id="767">8.19084e-12</wgt>
  <wgt id="768">7.52898e-12</wgt>
  <wgt id="769">8.50092e-12</wgt>
  <wgt id="770">7.88967e-12</wgt>
  <wgt id="771">9.47051e-12</wgt>
  <wgt id="772">7.7021e-12</wgt>
  <wgt id="773">7.98637e-12</wgt>
  <wgt id="774">6.90644e-12</wgt>
  <wgt id="775">8.40362e-12</wgt>
  <wgt id="776">8.71788e-12</wgt>
  <wgt id="777">7.54098e-12</wgt>
  <wgt id="778">5.81379e-12</wgt>
  <wgt id="779">4.50621e-12</wgt>
  <wgt id="780">3.4705e-12</wgt>
  <wgt id="781">6.54021e-12</wgt>
  <wgt id="782">6.38802e-12</wgt>
  <wgt id="783">4.48694e-12</wgt>
  <wgt id="784">4.86207e-12</wgt>
  <wgt id="785">7.49153e-12</wgt>
  <wgt id="786">4.30924e-12</wgt>
  <wgt id="787">6.78267e-12</wgt>
  <wgt id="788">3.10339e-12</wgt>
  <wgt id="789">4.79155e-12</wgt>
  <wgt id="790">4.21375e-12</wgt>
  <wgt id="791">5.87962e-12</wgt>
  <wgt id="792">7.75018e-12</wgt>
  <wgt id="793">5.7374e-12</wgt>
  <wgt id="794">4.10882e-12</wgt>
  <wgt id="795">7.03549e-12</wgt>
  <wgt id="796">7.67411e-12</wgt>
  <wgt id="797">7.02838e-12</wgt>
  <wgt id="798">5.07484e-12</wgt>
  <wgt id="799">6.69702e-12</wgt>
  <wgt id="800">4.83085e-12</wgt>
  <wgt id="801">5.37199e-12</wgt>
  <wgt id="802">4.08933e-12</wgt>
  <wgt id="803">8.33427e-12</wgt>
  <wgt id="804">7.02324e-12</wgt>
  <wgt id="805">6.99799e-12</wgt>
  <wgt id="806">6.362e-12</wgt>
  <wgt id="807">5.56593e-12</wgt>
  <wgt id="808">5.567e-12</wgt>
  <wgt id="809">5.40081e-12</wgt>
  <wgt id="810">6.42434e-12</wgt>
  <wgt id="811">6.22167e-12</wgt>
  <wgt id="812">4.20385e-12</wgt>
  <wgt id="813">4.35401e-12</wgt>
  <wgt id="814">4.66646e-12</wgt>
  <wgt id="815">4.47659e-12</wgt>
  <wgt id="816">4.21456e-12</wgt>
  <wgt id="817">5.95897e-12</wgt>
  <wgt id="818">6.27475e-12</wgt>
  <wgt id="819">4.51505e-12</wgt>
  <wgt id="820">5.71739e-12</wgt>
  <wgt id="821">6.68133e-12</wgt>
  <wgt id="822">4.73324e-12</wgt>
  <wgt id="823">6.84188e-12</wgt>
  <wgt id="824">8.05291e-12</wgt>
  <wgt id="825">3.97748e-12</wgt>
  <wgt id="826">6.40665e-12</wgt>
  <wgt id="827">3.35422e-12</wgt>
  <wgt id="828">7.41423e-12</wgt>
  <wgt id="829">5.98665e-12</wgt>
  <wgt id="830">3.77725e-12</wgt>
  <wgt id="831">6.37702e-12</wgt>
  <wgt id="832">9.62842e-12</wgt>
  <wgt id="833">5.18487e-12</wgt>
  <wgt id="834">9.20589e-12</wgt>
  <wgt id="835">4.66357e-12</wgt>
  <wgt id="836">5.43058e-12</wgt>
  <wgt id="837">6.58954e-12</wgt>
  <wgt id="838">5.25038e-12</wgt>
  <wgt id="839">6.33388e-12</wgt>
  <wgt id="840">5.28736e-12</wgt>
  <wgt id="841">7.38744e-12</wgt>
  <wgt id="842">5.41003e-12</wgt>
  <wgt id="843">5.93384e-12</wgt>
  <wgt id="844">6.13217e-12</wgt>
  <wgt id="845">8.8378e-12</wgt>
  <wgt id="846">6.0008e-12</wgt>
  <wgt id="847">5.9861e-12</wgt>
  <wgt id="848">4.64664e-12</wgt>
  <wgt id="849">6.02723e-12</wgt>
  <wgt id="850">7.8227e-12</wgt>
  <wgt id="851">6.47813e-12</wgt>
  <wgt id="852">4.40088e-12</wgt>
  <wgt id="853">6.57924e-12</wgt>
  <wgt id="854">7.29522e-12</wgt>
  <wgt id="855">6.7408e-12</wgt>
  <wgt id="856">3.82116e-12</wgt>
  <wgt id="857">5.59403e-12</wgt>
  <wgt id="858">5.48376e-12</wgt>
  <wgt id="859">5.50826e-12</wgt>
  <wgt id="860">6.60429e-12</wgt>
  <wgt id="861">5.06964e-12</wgt>
  <wgt id="862">5.86701e-12</wgt>
  <wgt id="863">6.29031e-12</wgt>
  <wgt id="864">6.11273e-12</wgt>
  <wgt id="865">8.43373e-12</wgt>
  <wgt id="866">9.33616e-12</wgt>
  <wgt id="867">5.89843e-12</wgt>
  <wgt id="868">5.74621e-12</wgt>
  <wgt id="869">4.24044e-12</wgt>
  <wgt id="870">4.54585e-12</wgt>
  <wgt id="871">4.42003e-12</wgt>
  <wgt id="872">7.24021e-12</wgt>
  <wgt id="873">4.86824e-12</wgt>
  <wgt id="874">6.19212e-12</wgt>
  <wgt id="875">4.93969e-12</wgt>
  <wgt id="876">7.12486e-12</wgt>
  <wgt id="877">6.56777e-12</wgt>
  <wgt id="878">4.82312e-12</wgt>
  <wgt id="879">8.04308e-12</wgt>
  <wgt id="880">8.14863e-12</wgt>
  <wgt id="881">8.51183e-12</wgt>
  <wgt id="882">7.73282e-12</wgt>
  <wgt id="883">7.95045e-12</wgt>
  <wgt id="884">8.10399e-12</wgt>
  <wgt id="885">8.30921e-12</wgt>
  <wgt id="886">7.82377e-12</wgt>
  <wgt id="887">8.36848e-12</wgt>
  <wgt id="888">7.82563e-12</wgt>
  <wgt id="889">7.83606e-12</wgt>
  <wgt id="890">8.32617e-12</wgt>
  <wgt id="891">7.91198e-12</wgt>
  <wgt id="892">8.42943e-12</wgt>
  <wgt id="893">8.33314e-12</wgt>
  <wgt id="894">8.39628e-12</wgt>
  <wgt id="895">7.95667e-12</wgt>
  <wgt id="896">9.64017e-12</wgt>
  <wgt id="897">8.59789e-12</wgt>
  <wgt id="898">7.76953e-12</wgt>
  <wgt id="899">7.79009e-12</wgt>
  <wgt id="900">7.67447e-12</wgt>
  <wgt id="901">7.20633e-12</wgt>
  <wgt id="902">7.17049e-12</wgt>
  <wgt id="903">7.12338e-12</wgt>
  <wgt id="904">8.03795e-12</wgt>
  <wgt id="905">7.91132e-12</wgt>
  <wgt id="906">9.30331e-12</wgt>
  <wgt id="907">8.85254e-12</wgt>
  <wgt id="908">8.66087e-12</wgt>
  <wgt id="909">7.64542e-12</wgt>
  <wgt id="910">7.69061e-12</wgt>
  <wgt id="911">7.8719e-12</wgt>
  <wgt id="912">7.86131e-12</wgt>
  <wgt id="913">7.34212e-12</wgt>
  <wgt id="914">8.05429e-12</wgt>
  <wgt id="915">7.77229e-12</wgt>
  <wgt id="916">8.63818e-12</wgt>
  <wgt id="917">7.71185e-12</wgt>
  <wgt id="918">7.89894e-12</wgt>
  <wgt id="919">7.76343e-12</wgt>
  <wgt id="920">7.49663e-12</wgt>
  <wgt id="921">8.13464e-12</wgt>
  <wgt id="922">7.33379e-12</wgt>
  <wgt id="923">7.80459e-12</wgt>
  <wgt id="924">7.23337e-12</wgt>
  <wgt id="925">6.9999e-12</wgt>
  <wgt id="926">8.64236e-12</wgt>
  <wgt id="927">8.47856e-12</wgt>
  <wgt id="928">8.411e-12</wgt>
  <wgt id="929">8.05472e-12</wgt>
  <wgt id="930">7.92536e-12</wgt>
  <wgt id="931">7.82181e-12</wgt>
  <wgt id="932">7.75861e-12</wgt>
  <wgt id="933">8.61151e-12</wgt>
  <wgt id="934">7.89872e-12</wgt>
  <wgt id="935">8.93381e-12</wgt>
  <wgt id="936">7.81832e-12</wgt>
  <wgt id="937">8.22214e-12</wgt>
  <wgt id="938">8.14036e-12</wgt>
  <wgt id="939">7.76688e-12</wgt>
  <wgt id="940">8.0492e-12</wgt>
  <wgt id="941">7.72052e-12</wgt>
  <wgt id="942">8.34373e-12</wgt>
  <wgt id="943">9.00487e-12</wgt>
  <wgt id="944">7.46614e-12</wgt>
  <wgt id="945">7.94913e-12</wgt>
  <wgt id="946">7.60572e-12</wgt>
  <wgt id="947">7.87587e-12</wgt>
  <wgt id="948">8.42959e-12</wgt>
  <wgt id="949">8.60057e-12</wgt>
  <wgt id="950">7.12876e-12</wgt>
  <wgt id="951">7.92975e-12</wgt>
  <wgt id="952">8.36327e-12</wgt>
  <wgt id="953">8.47525e-12</wgt>
  <wgt id="954">8.17446e-12</wgt>
  <wgt id="955">7.38171e-12</wgt>
  <wgt id="956">7.51771e-12</wgt>
  <wgt id="957">8.3503e-12</wgt>
  <wgt id="958">8.00572e-12</wgt>
  <wgt id="959">7.97392e-12</wgt>
  <wgt id="960">7.32705e-12</wgt>
  <wgt id="961">7.97923e-12</wgt>
  <wgt id="962">8.58968e-12</wgt>
  <wgt id="963">7.99957e-12</wgt>
  <wgt id="964">8.54478e-12</wgt>
  <wgt id="965">8.57065e-12</wgt>
  <wgt id="966">8.03556e-12</wgt>
  <wgt id="967">8.37901e-12</wgt>
  <wgt id="968">8.14761e-12</wgt>
  <wgt id="969">8.04727e-12</wgt>
  <wgt id="970">8.19084e-12</wgt>
  <wgt id="971">7.52898e-12</wgt>
  <wgt id="972">8.50092e-12</wgt>
  <wgt id="973">7.88967e-12</wgt>
  <wgt id="974">9.47051e-12</wgt>
  <wgt id="975">7.7021e-12</wgt>
  <wgt id="976">7.98637e-12</wgt>
  <wgt id="977">6.90644e-12</wgt>
  <wgt id="978">8.40362e-12</wgt>
  <wgt id="979">8.71788e-12</wgt>
  <wgt id="980">8.02041e-12</wgt>
  <wgt id="981">8.10294e-12</wgt>
  <wgt id="982">7.79343e-12</wgt>
</rwgt>
</event>
<event>
 5   1  0.5790000E-11  0.2138541E+04  0.7818608E-02  0.7772423E-01
       21   -1    0    0  502  501  0.00000000000E+00  0.00000000000E+00  0.26738554892E+04  0.26738554892E+04  0.00000000000E+00 0. -1.
       21   -1    0    0  501  502 -0.00000000000E+00 -0.00000000000E+00 -0.42759971531E+03  0.42759971531E+03  0.00000000000E+00 0.  1.
       39    2    1    2    0    0  0.00000000000E+00  0.00000000000E+00  0.22462557739E+04  0.31014552045E+04  0.21385414150E+04 0.  0.
       25    1    3    3    0    0  0.29298973448E+03  0.48889976163E+03  0.24225933811E+04  0.24918767328E+04  0.12500000000E+03 0.  0.
       25    1    3    3    0    0 -0.29298973448E+03 -0.48889976163E+03 -0.17633760720E+03  0.60957847169E+03  0.12500000000E+03 0.  0.
<mgrwt>
<rscale>  0 0.21385414E+04</rscale>
<asrwt>0</asrwt>
<pdfrwt beam="1">  1       21 0.41136237E+00 0.21385414E+04</pdfrwt>
<pdfrwt beam="2">  1       21 0.65784573E-01 0.21385414E+04</pdfrwt>
<totfact> 0.56136492E+00</totfact>
</mgrwt>
<rwgt>
  <wgt id="1">5.79e-12</wgt>
  <wgt id="2">4.9479e-12</wgt>
  <wgt id="3">6.86027e-12</wgt>
  <wgt id="4">5.79e-12</wgt>
  <wgt id="5">4.9479e-12</wgt>
  <wgt id="6">6.86027e-12</wgt>
  <wgt id="7">5.79e-12</wgt>
  <wgt id="8">4.9479e-12</wgt>
  <wgt id="9">6.86027e-12</wgt>
  <wgt id="10">6.18354e-12</wgt>
  <wgt id="11">6.19042e-12</wgt>
  <wgt id="12">6.1605e-12</wgt>
  <wgt id="13">6.18212e-12</wgt>
  <wgt id="14">6.18197e-12</wgt>
  <wgt id="15">6.18603e-12</wgt>
  <wgt id="16">6.14552e-12</wgt>
  <wgt id="17">6.23771e-12</wgt>
  <wgt id="18">6.1823e-12</wgt>
  <wgt id="19">6.22101e-12</wgt>
  <wgt id="20">6.19805e-12</wgt>
  <wgt id="21">6.11175e-12</wgt>
  <wgt id="22">6.12409e-12</wgt>
  <wgt id="23">6.06894e-12</wgt>
  <wgt id="24">6.13144e-12</wgt>
  <wgt id="25">6.17227e-12</wgt>
  <wgt id="26">6.19781e-12</wgt>
  <wgt id="27">6.17005e-12</wgt>
  <wgt id="28">6.14499e-12</wgt>
  <wgt id="29">6.18256e-12</wgt>
  <wgt id="30">6.12078e-12</wgt>
  <wgt id="31">6.20643e-12</wgt>
  <wgt id="32">6.10741e-12</wgt>
  <wgt id="33">6.18808e-12</wgt>
  <wgt id="34">6.123e-12</wgt>
  <wgt id="35">6.10993e-12</wgt>
  <wgt id="36">6.22217e-12</wgt>
  <wgt id="37">6.16498e-12</wgt>
  <wgt id="38">6.1446e-12</wgt>
  <wgt id="39">6.32975e-12</wgt>
  <wgt id="40">6.20632e-12</wgt>
  <wgt id="41">6.17586e-12</wgt>
  <wgt id="42">6.18878e-12</wgt>
  <wgt id="43">6.19567e-12</wgt>
  <wgt id="44">6.24216e-12</wgt>
  <wgt id="45">6.19934e-12</wgt>
  <wgt id="46">6.12839e-12</wgt>
  <wgt id="47">6.31626e-12</wgt>
  <wgt id="48">6.27056e-12</wgt>
  <wgt id="49">6.15467e-12</wgt>
  <wgt id="50">6.0896e-12</wgt>
  <wgt id="51">6.11919e-12</wgt>
  <wgt id="52">6.19461e-12</wgt>
  <wgt id="53">6.36433e-12</wgt>
  <wgt id="54">6.24586e-12</wgt>
  <wgt id="55">6.15457e-12</wgt>
  <wgt id="56">6.03832e-12</wgt>
  <wgt id="57">6.06611e-12</wgt>
  <wgt id="58">6.1833e-12</wgt>
  <wgt id="59">6.22257e-12</wgt>
  <wgt id="60">6.05638e-12</wgt>
  <wgt id="61">6.20436e-12</wgt>
  <wgt id="62">6.24184e-12</wgt>
  <wgt id="63">6.16659e-12</wgt>
  <wgt id="64">6.17104e-12</wgt>
  <wgt id="65">6.12347e-12</wgt>
  <wgt id="66">6.2508e-12</wgt>
  <wgt id="67">6.27838e-12</wgt>
  <wgt id="68">6.1817e-12</wgt>
  <wgt id="69">6.17326e-12</wgt>
  <wgt id="70">6.10404e-12</wgt>
  <wgt id="71">6.24423e-12</wgt>
  <wgt id="72">6.2359e-12</wgt>
  <wgt id="73">6.13648e-12</wgt>
  <wgt id="74">6.24152e-12</wgt>
  <wgt id="75">6.07711e-12</wgt>
  <wgt id="76">6.23294e-12</wgt>
  <wgt id="77">6.1593e-12</wgt>
  <wgt id="78">6.17469e-12</wgt>
  <wgt id="79">6.19427e-12</wgt>
  <wgt id="80">6.13923e-12</wgt>
  <wgt id="81">6.16895e-12</wgt>
  <wgt id="82">6.18554e-12</wgt>
  <wgt id="83">6.121e-12</wgt>
  <wgt id="84">6.12615e-12</wgt>
  <wgt id="85">6.11844e-12</wgt>
  <wgt id="86">6.2667e-12</wgt>
  <wgt id="87">6.06805e-12</wgt>
  <wgt id="88">6.21404e-12</wgt>
  <wgt id="89">6.20985e-12</wgt>
  <wgt id="90">6.23708e-12</wgt>
  <wgt id="91">6.1875e-12</wgt>
  <wgt id="92">6.21923e-12</wgt>
  <wgt id="93">6.19748e-12</wgt>
  <wgt id="94">6.14039e-12</wgt>
  <wgt id="95">6.23595e-12</wgt>
  <wgt id="96">6.23253e-12</wgt>
  <wgt id="97">6.1176e-12</wgt>
  <wgt id="98">6.18669e-12</wgt>
  <wgt id="99">6.16599e-12</wgt>
  <wgt id="100">6.20292e-12</wgt>
  <wgt id="101">6.15454e-12</wgt>
  <wgt id="102">6.16562e-12</wgt>
  <wgt id="103">6.22823e-12</wgt>
  <wgt id="104">6.17682e-12</wgt>
  <wgt id="105">6.23616e-12</wgt>
  <wgt id="106">6.13933e-12</wgt>
  <wgt id="107">6.26331e-12</wgt>
  <wgt id="108">6.15967e-12</wgt>
  <wgt id="109">6.17655e-12</wgt>
  <wgt id="110">6.18673e-12</wgt>
  <wgt id="111">6.08544e-12</wgt>
  <wgt id="112">6.31932e-12</wgt>
  <wgt id="113">9.63361e-12</wgt>
  <wgt id="114">7.75129e-12</wgt>
  <wgt id="115">7.59135e-12</wgt>
  <wgt id="116">1.01972e-11</wgt>
  <wgt id="117">6.71583e-12</wgt>
  <wgt id="118">6.74081e-12</wgt>
  <wgt id="119">6.70152e-12</wgt>
  <wgt id="120">6.71574e-12</wgt>
  <wgt id="121">6.71574e-12</wgt>
  <wgt id="122">6.70641e-12</wgt>
  <wgt id="123">6.72919e-12</wgt>
  <wgt id="124">6.70746e-12</wgt>
  <wgt id="125">6.72102e-12</wgt>
  <wgt id="126">6.72174e-12</wgt>
  <wgt id="127">6.71201e-12</wgt>
  <wgt id="128">6.73558e-12</wgt>
  <wgt id="129">6.69621e-12</wgt>
  <wgt id="130">6.74065e-12</wgt>
  <wgt id="131">6.68947e-12</wgt>
  <wgt id="132">6.51813e-12</wgt>
  <wgt id="133">6.95264e-12</wgt>
  <wgt id="134">6.64672e-12</wgt>
  <wgt id="135">6.76992e-12</wgt>
  <wgt id="136">6.83856e-12</wgt>
  <wgt id="137">6.569e-12</wgt>
  <wgt id="138">7.07483e-12</wgt>
  <wgt id="139">6.382e-12</wgt>
  <wgt id="140">6.69951e-12</wgt>
  <wgt id="141">6.72653e-12</wgt>
  <wgt id="142">6.71174e-12</wgt>
  <wgt id="143">6.74676e-12</wgt>
  <wgt id="144">6.3372e-12</wgt>
  <wgt id="145">7.1015e-12</wgt>
  <wgt id="146">6.84454e-12</wgt>
  <wgt id="147">6.60813e-12</wgt>
  <wgt id="148">6.74219e-12</wgt>
  <wgt id="149">6.71393e-12</wgt>
  <wgt id="150">6.76929e-12</wgt>
  <wgt id="151">6.69056e-12</wgt>
  <wgt id="152">6.71534e-12</wgt>
  <wgt id="153">6.71587e-12</wgt>
  <wgt id="154">6.68288e-12</wgt>
  <wgt id="155">6.7271e-12</wgt>
  <wgt id="156">7.06049e-12</wgt>
  <wgt id="157">6.42887e-12</wgt>
  <wgt id="158">7.98135e-12</wgt>
  <wgt id="159">8.01624e-12</wgt>
  <wgt id="160">7.95309e-12</wgt>
  <wgt id="161">7.9615e-12</wgt>
  <wgt id="162">8.0033e-12</wgt>
  <wgt id="163">7.97265e-12</wgt>
  <wgt id="164">7.99445e-12</wgt>
  <wgt id="165">7.98439e-12</wgt>
  <wgt id="166">7.97932e-12</wgt>
  <wgt id="167">7.97623e-12</wgt>
  <wgt id="168">7.98879e-12</wgt>
  <wgt id="169">7.94957e-12</wgt>
  <wgt id="170">8.00107e-12</wgt>
  <wgt id="171">7.9797e-12</wgt>
  <wgt id="172">7.98401e-12</wgt>
  <wgt id="173">7.95069e-12</wgt>
  <wgt id="174">7.99243e-12</wgt>
  <wgt id="175">7.74353e-12</wgt>
  <wgt id="176">8.29403e-12</wgt>
  <wgt id="177">8.00702e-12</wgt>
  <wgt id="178">7.95888e-12</wgt>
  <wgt id="179">8.47357e-12</wgt>
  <wgt id="180">7.24348e-12</wgt>
  <wgt id="181">7.67726e-12</wgt>
  <wgt id="182">8.18671e-12</wgt>
  <wgt id="183">7.79709e-12</wgt>
  <wgt id="184">8.07297e-12</wgt>
  <wgt id="185">7.8693e-12</wgt>
  <wgt id="186">8.11613e-12</wgt>
  <wgt id="187">7.86647e-12</wgt>
  <wgt id="188">8.18042e-12</wgt>
  <wgt id="189">7.90726e-12</wgt>
  <wgt id="190">8.01166e-12</wgt>
  <wgt id="191">8.01846e-12</wgt>
  <wgt id="192">7.95915e-12</wgt>
  <wgt id="193">8.13638e-12</wgt>
  <wgt id="194">7.90219e-12</wgt>
  <wgt id="195">7.58569e-12</wgt>
  <wgt id="196">8.60099e-12</wgt>
  <wgt id="197">8.02486e-12</wgt>
  <wgt id="198">7.97093e-12</wgt>
  <wgt id="199">7.98135e-12</wgt>
  <wgt id="200">8.06805e-12</wgt>
  <wgt id="201">8.04131e-12</wgt>
  <wgt id="202">8.01369e-12</wgt>
  <wgt id="203">7.97884e-12</wgt>
  <wgt id="204">7.95885e-12</wgt>
  <wgt id="205">7.94287e-12</wgt>
  <wgt id="206">7.89749e-12</wgt>
  <wgt id="207">7.94565e-12</wgt>
  <wgt id="208">7.84943e-12</wgt>
  <wgt id="209">7.91818e-12</wgt>
  <wgt id="210">7.88208e-12</wgt>
  <wgt id="211">7.89496e-12</wgt>
  <wgt id="212">7.89898e-12</wgt>
  <wgt id="213">7.89649e-12</wgt>
  <wgt id="214">7.89784e-12</wgt>
  <wgt id="215">7.9026e-12</wgt>
  <wgt id="216">7.89353e-12</wgt>
  <wgt id="217">7.9091e-12</wgt>
  <wgt id="218">7.88801e-12</wgt>
  <wgt id="219">7.88364e-12</wgt>
  <wgt id="220">7.90576e-12</wgt>
  <wgt id="221">7.90749e-12</wgt>
  <wgt id="222">7.8693e-12</wgt>
  <wgt id="223">7.40588e-12</wgt>
  <wgt id="224">8.35067e-12</wgt>
  <wgt id="225">7.79843e-12</wgt>
  <wgt id="226">8.02405e-12</wgt>
  <wgt id="227">7.82047e-12</wgt>
  <wgt id="228">7.93103e-12</wgt>
  <wgt id="229">7.77844e-12</wgt>
  <wgt id="230">7.95612e-12</wgt>
  <wgt id="231">8.2201e-12</wgt>
  <wgt id="232">7.63547e-12</wgt>
  <wgt id="233">7.83105e-12</wgt>
  <wgt id="234">8.01121e-12</wgt>
  <wgt id="235">7.36784e-12</wgt>
  <wgt id="236">8.31897e-12</wgt>
  <wgt id="237">7.60732e-12</wgt>
  <wgt id="238">7.99394e-12</wgt>
  <wgt id="239">7.78355e-12</wgt>
  <wgt id="240">8.10113e-12</wgt>
  <wgt id="241">7.77998e-12</wgt>
  <wgt id="242">8.03186e-12</wgt>
  <wgt id="243">8.08864e-12</wgt>
  <wgt id="244">7.84998e-12</wgt>
  <wgt id="245">7.89781e-12</wgt>
  <wgt id="246">7.92101e-12</wgt>
  <wgt id="247">7.89749e-12</wgt>
  <wgt id="248">7.99913e-12</wgt>
  <wgt id="249">7.96714e-12</wgt>
  <wgt id="250">7.92747e-12</wgt>
  <wgt id="251">7.88252e-12</wgt>
  <wgt id="252">7.85571e-12</wgt>
  <wgt id="253">7.839e-12</wgt>
  <wgt id="254">7.48666e-12</wgt>
  <wgt id="255">7.49248e-12</wgt>
  <wgt id="256">7.48016e-12</wgt>
  <wgt id="257">7.49244e-12</wgt>
  <wgt id="258">7.48178e-12</wgt>
  <wgt id="259">7.53664e-12</wgt>
  <wgt id="260">7.43805e-12</wgt>
  <wgt id="261">7.49771e-12</wgt>
  <wgt id="262">7.47291e-12</wgt>
  <wgt id="263">7.47939e-12</wgt>
  <wgt id="264">7.4948e-12</wgt>
  <wgt id="265">7.47764e-12</wgt>
  <wgt id="266">7.50381e-12</wgt>
  <wgt id="267">7.48899e-12</wgt>
  <wgt id="268">7.48356e-12</wgt>
  <wgt id="269">7.50693e-12</wgt>
  <wgt id="270">7.47249e-12</wgt>
  <wgt id="271">7.45596e-12</wgt>
  <wgt id="272">7.52062e-12</wgt>
  <wgt id="273">7.47052e-12</wgt>
  <wgt id="274">7.49843e-12</wgt>
  <wgt id="275">7.42388e-12</wgt>
  <wgt id="276">7.55114e-12</wgt>
  <wgt id="277">7.44655e-12</wgt>
  <wgt id="278">7.52305e-12</wgt>
  <wgt id="279">7.35259e-12</wgt>
  <wgt id="280">7.65595e-12</wgt>
  <wgt id="281">7.44167e-12</wgt>
  <wgt id="282">7.51792e-12</wgt>
  <wgt id="283">7.20149e-12</wgt>
  <wgt id="284">7.84862e-12</wgt>
  <wgt id="285">7.01682e-12</wgt>
  <wgt id="286">7.89413e-12</wgt>
  <wgt id="287">7.51682e-12</wgt>
  <wgt id="288">7.44779e-12</wgt>
  <wgt id="289">7.55665e-12</wgt>
  <wgt id="290">7.33858e-12</wgt>
  <wgt id="291">7.45249e-12</wgt>
  <wgt id="292">7.47539e-12</wgt>
  <wgt id="293">7.40977e-12</wgt>
  <wgt id="294">7.56301e-12</wgt>
  <wgt id="295">7.29972e-12</wgt>
  <wgt id="296">7.71525e-12</wgt>
  <wgt id="297">7.44336e-12</wgt>
  <wgt id="298">7.53636e-12</wgt>
  <wgt id="299">7.45887e-12</wgt>
  <wgt id="300">7.55971e-12</wgt>
  <wgt id="301">7.26663e-12</wgt>
  <wgt id="302">7.96452e-12</wgt>
  <wgt id="303">7.36694e-12</wgt>
  <wgt id="304">7.55222e-12</wgt>
  <wgt id="305">7.30215e-12</wgt>
  <wgt id="306">7.30802e-12</wgt>
  <wgt id="307">7.2959e-12</wgt>
  <wgt id="308">7.30879e-12</wgt>
  <wgt id="309">7.29804e-12</wgt>
  <wgt id="310">7.35197e-12</wgt>
  <wgt id="311">7.25615e-12</wgt>
  <wgt id="312">7.31395e-12</wgt>
  <wgt id="313">7.2898e-12</wgt>
  <wgt id="314">7.2943e-12</wgt>
  <wgt id="315">7.3102e-12</wgt>
  <wgt id="316">7.29293e-12</wgt>
  <wgt id="317">7.32241e-12</wgt>
  <wgt id="318">7.30746e-12</wgt>
  <wgt id="319">7.29321e-12</wgt>
  <wgt id="320">7.32471e-12</wgt>
  <wgt id="321">7.29017e-12</wgt>
  <wgt id="322">7.2725e-12</wgt>
  <wgt id="323">7.33743e-12</wgt>
  <wgt id="324">7.29422e-12</wgt>
  <wgt id="325">7.30964e-12</wgt>
  <wgt id="326">7.25021e-12</wgt>
  <wgt id="327">7.3696e-12</wgt>
  <wgt id="328">7.26972e-12</wgt>
  <wgt id="329">7.3199e-12</wgt>
  <wgt id="330">7.50148e-12</wgt>
  <wgt id="331">7.11373e-12</wgt>
  <wgt id="332">7.26465e-12</wgt>
  <wgt id="333">7.32465e-12</wgt>
  <wgt id="334">7.09454e-12</wgt>
  <wgt id="335">7.56653e-12</wgt>
  <wgt id="336">6.98113e-12</wgt>
  <wgt id="337">7.70962e-12</wgt>
  <wgt id="338">7.40457e-12</wgt>
  <wgt id="339">7.2095e-12</wgt>
  <wgt id="340">7.36192e-12</wgt>
  <wgt id="341">7.16205e-12</wgt>
  <wgt id="342">7.28095e-12</wgt>
  <wgt id="343">7.27198e-12</wgt>
  <wgt id="344">7.23839e-12</wgt>
  <wgt id="345">7.37674e-12</wgt>
  <wgt id="346">7.11754e-12</wgt>
  <wgt id="347">7.5125e-12</wgt>
  <wgt id="348">7.25912e-12</wgt>
  <wgt id="349">7.34928e-12</wgt>
  <wgt id="350">7.2695e-12</wgt>
  <wgt id="351">7.38662e-12</wgt>
  <wgt id="352">7.0943e-12</wgt>
  <wgt id="353">7.7357e-12</wgt>
  <wgt id="354">7.14461e-12</wgt>
  <wgt id="355">7.39368e-12</wgt>
  <wgt id="356">7.48666e-12</wgt>
  <wgt id="357">7.27662e-12</wgt>
  <wgt id="358">7.30215e-12</wgt>
  <wgt id="359">7.44711e-12</wgt>
  <wgt id="360">7.72499e-12</wgt>
  <wgt id="361">7.545e-12</wgt>
  <wgt id="362">7.72515e-12</wgt>
  <wgt id="363">7.70295e-12</wgt>
  <wgt id="364">7.64976e-12</wgt>
  <wgt id="365">7.61603e-12</wgt>
  <wgt id="366">7.58413e-12</wgt>
  <wgt id="367">7.52979e-12</wgt>
  <wgt id="368">7.48852e-12</wgt>
  <wgt id="369">7.44414e-12</wgt>
  <wgt id="370">7.545e-12</wgt>
  <wgt id="371">7.57252e-12</wgt>
  <wgt id="372">7.5567e-12</wgt>
  <wgt id="373">7.53654e-12</wgt>
  <wgt id="374">7.56116e-12</wgt>
  <wgt id="375">9.54495e-12</wgt>
  <wgt id="376">9.54475e-12</wgt>
  <wgt id="377">9.54581e-12</wgt>
  <wgt id="378">9.58426e-12</wgt>
  <wgt id="379">9.50651e-12</wgt>
  <wgt id="380">9.57456e-12</wgt>
  <wgt id="381">9.53297e-12</wgt>
  <wgt id="382">9.57955e-12</wgt>
  <wgt id="383">9.5113e-12</wgt>
  <wgt id="384">9.55151e-12</wgt>
  <wgt id="385">9.53915e-12</wgt>
  <wgt id="386">9.56173e-12</wgt>
  <wgt id="387">9.53821e-12</wgt>
  <wgt id="388">9.53861e-12</wgt>
  <wgt id="389">9.55309e-12</wgt>
  <wgt id="390">9.55952e-12</wgt>
  <wgt id="391">9.52985e-12</wgt>
  <wgt id="392">9.44919e-12</wgt>
  <wgt id="393">9.5996e-12</wgt>
  <wgt id="394">9.54343e-12</wgt>
  <wgt id="395">9.54746e-12</wgt>
  <wgt id="396">9.57074e-12</wgt>
  <wgt id="397">9.52677e-12</wgt>
  <wgt id="398">9.55625e-12</wgt>
  <wgt id="399">9.53454e-12</wgt>
  <wgt id="400">9.53095e-12</wgt>
  <wgt id="401">9.57693e-12</wgt>
  <wgt id="402">9.43364e-12</wgt>
  <wgt id="403">9.64109e-12</wgt>
  <wgt id="404">9.90803e-12</wgt>
  <wgt id="405">8.69768e-12</wgt>
  <wgt id="406">9.28143e-12</wgt>
  <wgt id="407">1.01433e-11</wgt>
  <wgt id="408">9.68279e-12</wgt>
  <wgt id="409">9.29729e-12</wgt>
  <wgt id="410">9.12457e-12</wgt>
  <wgt id="411">9.75413e-12</wgt>
  <wgt id="412">9.51692e-12</wgt>
  <wgt id="413">9.584e-12</wgt>
  <wgt id="414">9.3794e-12</wgt>
  <wgt id="415">9.67377e-12</wgt>
  <wgt id="416">9.9895e-12</wgt>
  <wgt id="417">8.94407e-12</wgt>
  <wgt id="418">9.5735e-12</wgt>
  <wgt id="419">9.39106e-12</wgt>
  <wgt id="420">9.91906e-12</wgt>
  <wgt id="421">9.28024e-12</wgt>
  <wgt id="422">9.41732e-12</wgt>
  <wgt id="423">9.60157e-12</wgt>
  <wgt id="424">9.97906e-12</wgt>
  <wgt id="425">9.23875e-12</wgt>
  <wgt id="426">9.54495e-12</wgt>
  <wgt id="427">9.19501e-12</wgt>
  <wgt id="428">1.02719e-11</wgt>
  <wgt id="429">9.74372e-12</wgt>
  <wgt id="430">1.0157e-11</wgt>
  <wgt id="431">1.00686e-11</wgt>
  <wgt id="432">9.99495e-12</wgt>
  <wgt id="433">9.92112e-12</wgt>
  <wgt id="434">9.82214e-12</wgt>
  <wgt id="435">9.6468e-12</wgt>
  <wgt id="436">9.56086e-12</wgt>
  <wgt id="437">9.47377e-12</wgt>
  <wgt id="438">9.74372e-12</wgt>
  <wgt id="439">9.76999e-12</wgt>
  <wgt id="440">9.75191e-12</wgt>
  <wgt id="441">9.73969e-12</wgt>
  <wgt id="442">9.73708e-12</wgt>
  <wgt id="443">7.796e-12</wgt>
  <wgt id="444">7.92423e-12</wgt>
  <wgt id="445">8.00257e-12</wgt>
  <wgt id="446">7.74398e-12</wgt>
  <wgt id="447">7.79323e-12</wgt>
  <wgt id="448">7.6383e-12</wgt>
  <wgt id="449">8.04315e-12</wgt>
  <wgt id="450">8.00678e-12</wgt>
  <wgt id="451">7.77044e-12</wgt>
  <wgt id="452">7.95227e-12</wgt>
  <wgt id="453">7.98008e-12</wgt>
  <wgt id="454">7.28379e-12</wgt>
  <wgt id="455">7.92768e-12</wgt>
  <wgt id="456">8.08169e-12</wgt>
  <wgt id="457">7.81671e-12</wgt>
  <wgt id="458">7.9827e-12</wgt>
  <wgt id="459">7.86971e-12</wgt>
  <wgt id="460">8.09296e-12</wgt>
  <wgt id="461">7.55633e-12</wgt>
  <wgt id="462">7.73737e-12</wgt>
  <wgt id="463">7.63401e-12</wgt>
  <wgt id="464">7.76746e-12</wgt>
  <wgt id="465">7.87318e-12</wgt>
  <wgt id="466">7.45325e-12</wgt>
  <wgt id="467">7.75786e-12</wgt>
  <wgt id="468">7.82129e-12</wgt>
  <wgt id="469">7.76459e-12</wgt>
  <wgt id="470">7.61379e-12</wgt>
  <wgt id="471">7.65047e-12</wgt>
  <wgt id="472">7.87304e-12</wgt>
  <wgt id="473">7.50418e-12</wgt>
  <wgt id="474">5.79e-12</wgt>
  <wgt id="475">5.87602e-12</wgt>
  <wgt id="476">5.95013e-12</wgt>
  <wgt id="477">6.22606e-12</wgt>
  <wgt id="478">6.14525e-12</wgt>
  <wgt id="479">5.06312e-12</wgt>
  <wgt id="480">6.35339e-12</wgt>
  <wgt id="481">5.9356e-12</wgt>
  <wgt id="482">6.20392e-12</wgt>
  <wgt id="483">6.50601e-12</wgt>
  <wgt id="484">6.22692e-12</wgt>
  <wgt id="485">5.09645e-12</wgt>
  <wgt id="486">6.12651e-12</wgt>
  <wgt id="487">5.4055e-12</wgt>
  <wgt id="488">5.55681e-12</wgt>
  <wgt id="489">4.59555e-12</wgt>
  <wgt id="490">5.93549e-12</wgt>
  <wgt id="491">5.658e-12</wgt>
  <wgt id="492">5.71211e-12</wgt>
  <wgt id="493">4.85342e-12</wgt>
  <wgt id="494">4.81227e-12</wgt>
  <wgt id="495">6.10866e-12</wgt>
  <wgt id="496">5.06614e-12</wgt>
  <wgt id="497">5.26002e-12</wgt>
  <wgt id="498">5.89495e-12</wgt>
  <wgt id="499">6.0027e-12</wgt>
  <wgt id="500">6.17792e-12</wgt>
  <wgt id="501">6.21591e-12</wgt>
  <wgt id="502">6.67795e-12</wgt>
  <wgt id="503">5.56586e-12</wgt>
  <wgt id="504">6.06483e-12</wgt>
  <wgt id="505">6.37914e-12</wgt>
  <wgt id="506">4.77904e-12</wgt>
  <wgt id="507">5.27231e-12</wgt>
  <wgt id="508">6.18205e-12</wgt>
  <wgt id="509">5.89772e-12</wgt>
  <wgt id="510">5.60027e-12</wgt>
  <wgt id="511">5.41181e-12</wgt>
  <wgt id="512">6.47031e-12</wgt>
  <wgt id="513">6.43662e-12</wgt>
  <wgt id="514">6.63654e-12</wgt>
  <wgt id="515">6.54897e-12</wgt>
  <wgt id="516">6.80244e-12</wgt>
  <wgt id="517">5.91929e-12</wgt>
  <wgt id="518">6.33734e-12</wgt>
  <wgt id="519">5.63244e-12</wgt>
  <wgt id="520">5.48879e-12</wgt>
  <wgt id="521">5.26671e-12</wgt>
  <wgt id="522">5.77334e-12</wgt>
  <wgt id="523">5.55318e-12</wgt>
  <wgt id="524">6.16145e-12</wgt>
  <wgt id="525">5.52559e-12</wgt>
  <wgt id="526">6.48255e-12</wgt>
  <wgt id="527">5.70363e-12</wgt>
  <wgt id="528">5.45205e-12</wgt>
  <wgt id="529">4.83704e-12</wgt>
  <wgt id="530">6.36877e-12</wgt>
  <wgt id="531">5.39764e-12</wgt>
  <wgt id="532">6.27452e-12</wgt>
  <wgt id="533">6.15173e-12</wgt>
  <wgt id="534">5.14227e-12</wgt>
  <wgt id="535">6.20599e-12</wgt>
  <wgt id="536">6.31198e-12</wgt>
  <wgt id="537">5.066e-12</wgt>
  <wgt id="538">5.6531e-12</wgt>
  <wgt id="539">5.66013e-12</wgt>
  <wgt id="540">5.66018e-12</wgt>
  <wgt id="541">5.74369e-12</wgt>
  <wgt id="542">5.28908e-12</wgt>
  <wgt id="543">5.21536e-12</wgt>
  <wgt id="544">5.64597e-12</wgt>
  <wgt id="545">5.16945e-12</wgt>
  <wgt id="546">5.05376e-12</wgt>
  <wgt id="547">5.34212e-12</wgt>
  <wgt id="548">5.96906e-12</wgt>
  <wgt id="549">5.6792e-12</wgt>
  <wgt id="550">4.94215e-12</wgt>
  <wgt id="551">5.48415e-12</wgt>
  <wgt id="552">5.81471e-12</wgt>
  <wgt id="553">4.94392e-12</wgt>
  <wgt id="554">5.857e-12</wgt>
  <wgt id="555">5.77771e-12</wgt>
  <wgt id="556">5.93549e-12</wgt>
  <wgt id="557">5.60406e-12</wgt>
  <wgt id="558">5.78781e-12</wgt>
  <wgt id="559">6.15044e-12</wgt>
  <wgt id="560">6.32747e-12</wgt>
  <wgt id="561">6.50006e-12</wgt>
  <wgt id="562">6.10319e-12</wgt>
  <wgt id="563">6.23423e-12</wgt>
  <wgt id="564">6.45502e-12</wgt>
  <wgt id="565">6.69485e-12</wgt>
  <wgt id="566">4.96148e-12</wgt>
  <wgt id="567">6.04542e-12</wgt>
  <wgt id="568">5.11227e-12</wgt>
  <wgt id="569">5.95848e-12</wgt>
  <wgt id="570">6.31512e-12</wgt>
  <wgt id="571">6.55695e-12</wgt>
  <wgt id="572">5.24847e-12</wgt>
  <wgt id="573">5.64806e-12</wgt>
  <wgt id="574">5.8097e-12</wgt>
  <wgt id="575">6.26758e-12</wgt>
  <wgt id="576">7.24013e-12</wgt>
  <wgt id="577">6.20389e-12</wgt>
  <wgt id="578">5.74301e-12</wgt>
  <wgt id="579">6.54146e-12</wgt>
  <wgt id="580">6.4219e-12</wgt>
  <wgt id="581">6.94845e-12</wgt>
  <wgt id="582">6.94441e-12</wgt>
  <wgt id="583">6.77989e-12</wgt>
  <wgt id="584">6.30865e-12</wgt>
  <wgt id="585">5.52627e-12</wgt>
  <wgt id="586">5.76561e-12</wgt>
  <wgt id="587">6.44557e-12</wgt>
  <wgt id="588">7.84151e-12</wgt>
  <wgt id="589">7.46719e-12</wgt>
  <wgt id="590">6.50017e-12</wgt>
  <wgt id="591">6.51526e-12</wgt>
  <wgt id="592">6.16406e-12</wgt>
  <wgt id="593">5.97069e-12</wgt>
  <wgt id="594">5.7401e-12</wgt>
  <wgt id="595">7.23759e-12</wgt>
  <wgt id="596">7.11705e-12</wgt>
  <wgt id="597">6.41549e-12</wgt>
  <wgt id="598">6.88227e-12</wgt>
  <wgt id="599">7.07782e-12</wgt>
  <wgt id="600">7.6366e-12</wgt>
  <wgt id="601">5.91949e-12</wgt>
  <wgt id="602">5.6649e-12</wgt>
  <wgt id="603">5.38097e-12</wgt>
  <wgt id="604">6.81932e-12</wgt>
  <wgt id="605">5.98856e-12</wgt>
  <wgt id="606">5.8916e-12</wgt>
  <wgt id="607">6.94991e-12</wgt>
  <wgt id="608">6.45808e-12</wgt>
  <wgt id="609">5.99906e-12</wgt>
  <wgt id="610">5.69118e-12</wgt>
  <wgt id="611">5.63101e-12</wgt>
  <wgt id="612">6.09601e-12</wgt>
  <wgt id="613">5.67972e-12</wgt>
  <wgt id="614">6.4139e-12</wgt>
  <wgt id="615">6.87283e-12</wgt>
  <wgt id="616">5.16845e-12</wgt>
  <wgt id="617">6.63777e-12</wgt>
  <wgt id="618">7.05247e-12</wgt>
  <wgt id="619">6.12505e-12</wgt>
  <wgt id="620">6.34962e-12</wgt>
  <wgt id="621">6.21547e-12</wgt>
  <wgt id="622">6.44557e-12</wgt>
  <wgt id="623">6.10225e-12</wgt>
  <wgt id="624">6.09557e-12</wgt>
  <wgt id="625">5.81655e-12</wgt>
  <wgt id="626">4.34328e-12</wgt>
  <wgt id="627">5.26292e-12</wgt>
  <wgt id="628">6.24982e-12</wgt>
  <wgt id="629">7.73867e-12</wgt>
  <wgt id="630">6.35417e-12</wgt>
  <wgt id="631">6.90957e-12</wgt>
  <wgt id="632">5.59556e-12</wgt>
  <wgt id="633">6.20891e-12</wgt>
  <wgt id="634">5.66129e-12</wgt>
  <wgt id="635">5.81276e-12</wgt>
  <wgt id="636">5.98266e-12</wgt>
  <wgt id="637">6.54736e-12</wgt>
  <wgt id="638">5.77681e-12</wgt>
  <wgt id="639">5.60382e-12</wgt>
  <wgt id="640">5.70514e-12</wgt>
  <wgt id="641">6.86506e-12</wgt>
  <wgt id="642">5.05842e-12</wgt>
  <wgt id="643">5.92863e-12</wgt>
  <wgt id="644">5.79096e-12</wgt>
  <wgt id="645">6.41025e-12</wgt>
  <wgt id="646">4.98946e-12</wgt>
  <wgt id="647">6.89197e-12</wgt>
  <wgt id="648">7.03261e-12</wgt>
  <wgt id="649">6.49879e-12</wgt>
  <wgt id="650">6.33888e-12</wgt>
  <wgt id="651">6.57998e-12</wgt>
  <wgt id="652">5.77956e-12</wgt>
  <wgt id="653">5.90582e-12</wgt>
  <wgt id="654">6.18349e-12</wgt>
  <wgt id="655">5.48661e-12</wgt>
  <wgt id="656">6.53444e-12</wgt>
  <wgt id="657">7.15086e-12</wgt>
  <wgt id="658">5.96267e-12</wgt>
  <wgt id="659">6.13849e-12</wgt>
  <wgt id="660">5.52674e-12</wgt>
  <wgt id="661">5.91212e-12</wgt>
  <wgt id="662">6.28313e-12</wgt>
  <wgt id="663">6.65093e-12</wgt>
  <wgt id="664">6.8346e-12</wgt>
  <wgt id="665">5.94133e-12</wgt>
  <wgt id="666">5.98579e-12</wgt>
  <wgt id="667">6.61321e-12</wgt>
  <wgt id="668">6.07301e-12</wgt>
  <wgt id="669">5.92076e-12</wgt>
  <wgt id="670">6.82939e-12</wgt>
  <wgt id="671">6.51864e-12</wgt>
  <wgt id="672">6.79308e-12</wgt>
  <wgt id="673">7.18598e-12</wgt>
  <wgt id="674">5.92453e-12</wgt>
  <wgt id="675">5.71151e-12</wgt>
  <wgt id="676">8.31941e-12</wgt>
  <wgt id="677">8.25767e-12</wgt>
  <wgt id="678">9.72963e-12</wgt>
  <wgt id="679">9.69479e-12</wgt>
  <wgt id="680">8.58517e-12</wgt>
  <wgt id="681">7.82198e-12</wgt>
  <wgt id="682">9.12075e-12</wgt>
  <wgt id="683">7.03164e-12</wgt>
  <wgt id="684">9.3422e-12</wgt>
  <wgt id="685">8.71501e-12</wgt>
  <wgt id="686">9.00599e-12</wgt>
  <wgt id="687">8.13324e-12</wgt>
  <wgt id="688">8.18099e-12</wgt>
  <wgt id="689">9.40301e-12</wgt>
  <wgt id="690">8.78534e-12</wgt>
  <wgt id="691">8.68209e-12</wgt>
  <wgt id="692">7.80577e-12</wgt>
  <wgt id="693">1.32385e-11</wgt>
  <wgt id="694">9.83192e-12</wgt>
  <wgt id="695">7.05314e-12</wgt>
  <wgt id="696">7.28302e-12</wgt>
  <wgt id="697">6.52046e-12</wgt>
  <wgt id="698">5.75621e-12</wgt>
  <wgt id="699">6.77167e-12</wgt>
  <wgt id="700">7.01795e-12</wgt>
  <wgt id="701">8.39708e-12</wgt>
  <wgt id="702">7.46898e-12</wgt>
  <wgt id="703">1.20444e-11</wgt>
  <wgt id="704">9.76524e-12</wgt>
  <wgt id="705">9.36145e-12</wgt>
  <wgt id="706">6.98517e-12</wgt>
  <wgt id="707">7.39021e-12</wgt>
  <wgt id="708">7.26153e-12</wgt>
  <wgt id="709">7.59932e-12</wgt>
  <wgt id="710">4.93667e-12</wgt>
  <wgt id="711">9.66813e-12</wgt>
  <wgt id="712">7.57022e-12</wgt>
  <wgt id="713">9.04851e-12</wgt>
  <wgt id="714">6.56002e-12</wgt>
  <wgt id="715">7.32758e-12</wgt>
  <wgt id="716">7.73875e-12</wgt>
  <wgt id="717">6.11716e-12</wgt>
  <wgt id="718">8.51066e-12</wgt>
  <wgt id="719">7.72455e-12</wgt>
  <wgt id="720">9.01886e-12</wgt>
  <wgt id="721">6.71069e-12</wgt>
  <wgt id="722">4.79696e-12</wgt>
  <wgt id="723">1.04795e-11</wgt>
  <wgt id="724">9.50614e-12</wgt>
  <wgt id="725">8.94718e-12</wgt>
  <wgt id="726">8.17302e-12</wgt>
  <wgt id="727">8.64854e-12</wgt>
  <wgt id="728">9.14573e-12</wgt>
  <wgt id="729">6.1497e-12</wgt>
  <wgt id="730">9.95664e-12</wgt>
  <wgt id="731">8.28791e-12</wgt>
  <wgt id="732">1.02418e-11</wgt>
  <wgt id="733">7.2679e-12</wgt>
  <wgt id="734">8.78773e-12</wgt>
  <wgt id="735">7.66247e-12</wgt>
  <wgt id="736">7.14564e-12</wgt>
  <wgt id="737">5.63299e-12</wgt>
  <wgt id="738">7.62767e-12</wgt>
  <wgt id="739">8.35104e-12</wgt>
  <wgt id="740">1.1111e-11</wgt>
  <wgt id="741">9.88422e-12</wgt>
  <wgt id="742">6.76156e-12</wgt>
  <wgt id="743">7.35838e-12</wgt>
  <wgt id="744">7.76767e-12</wgt>
  <wgt id="745">9.98772e-12</wgt>
  <wgt id="746">1.03854e-11</wgt>
  <wgt id="747">6.30785e-12</wgt>
  <wgt id="748">7.71373e-12</wgt>
  <wgt id="749">9.13626e-12</wgt>
  <wgt id="750">9.43924e-12</wgt>
  <wgt id="751">8.58565e-12</wgt>
  <wgt id="752">7.09005e-12</wgt>
  <wgt id="753">6.89995e-12</wgt>
  <wgt id="754">8.73196e-12</wgt>
  <wgt id="755">7.67311e-12</wgt>
  <wgt id="756">7.67901e-12</wgt>
  <wgt id="757">6.57644e-12</wgt>
  <wgt id="758">8.03792e-12</wgt>
  <wgt id="759">9.02444e-12</wgt>
  <wgt id="760">7.25382e-12</wgt>
  <wgt id="761">1.01168e-11</wgt>
  <wgt id="762">1.02608e-11</wgt>
  <wgt id="763">9.78197e-12</wgt>
  <wgt id="764">9.66631e-12</wgt>
  <wgt id="765">8.76792e-12</wgt>
  <wgt id="766">8.96298e-12</wgt>
  <wgt id="767">8.82025e-12</wgt>
  <wgt id="768">7.07558e-12</wgt>
  <wgt id="769">8.59835e-12</wgt>
  <wgt id="770">6.39524e-12</wgt>
  <wgt id="771">1.14885e-11</wgt>
  <wgt id="772">7.79263e-12</wgt>
  <wgt id="773">8.85817e-12</wgt>
  <wgt id="774">6.07052e-12</wgt>
  <wgt id="775">9.02033e-12</wgt>
  <wgt id="776">1.1542e-11</wgt>
  <wgt id="777">5.86596e-12</wgt>
  <wgt id="778">4.12282e-12</wgt>
  <wgt id="779">4.74393e-13</wgt>
  <wgt id="780">4.59888e-20</wgt>
  <wgt id="781">3.97945e-12</wgt>
  <wgt id="782">5.00596e-12</wgt>
  <wgt id="783">4.63709e-20</wgt>
  <wgt id="784">2.90537e-13</wgt>
  <wgt id="785">7.99649e-12</wgt>
  <wgt id="786">4.57704e-20</wgt>
  <wgt id="787">6.98541e-12</wgt>
  <wgt id="788">4.47189e-20</wgt>
  <wgt id="789">4.8741e-20</wgt>
  <wgt id="790">4.57698e-20</wgt>
  <wgt id="791">4.75754e-12</wgt>
  <wgt id="792">5.9806e-12</wgt>
  <wgt id="793">2.01411e-12</wgt>
  <wgt id="794">4.56205e-20</wgt>
  <wgt id="795">7.67911e-12</wgt>
  <wgt id="796">7.94297e-12</wgt>
  <wgt id="797">6.40737e-12</wgt>
  <wgt id="798">1.37948e-12</wgt>
  <wgt id="799">7.44736e-12</wgt>
  <wgt id="800">1.42146e-12</wgt>
  <wgt id="801">6.01845e-12</wgt>
  <wgt id="802">4.66175e-20</wgt>
  <wgt id="803">7.72205e-12</wgt>
  <wgt id="804">8.05344e-12</wgt>
  <wgt id="805">7.5448e-12</wgt>
  <wgt id="806">5.56252e-12</wgt>
  <wgt id="807">4.12782e-12</wgt>
  <wgt id="808">4.70531e-12</wgt>
  <wgt id="809">2.74239e-12</wgt>
  <wgt id="810">9.40742e-12</wgt>
  <wgt id="811">4.84681e-12</wgt>
  <wgt id="812">4.6418e-20</wgt>
  <wgt id="813">4.59562e-20</wgt>
  <wgt id="814">1.29066e-12</wgt>
  <wgt id="815">4.61694e-20</wgt>
  <wgt id="816">4.68248e-20</wgt>
  <wgt id="817">4.8457e-12</wgt>
  <wgt id="818">7.22573e-12</wgt>
  <wgt id="819">2.88024e-13</wgt>
  <wgt id="820">2.95519e-12</wgt>
  <wgt id="821">6.16603e-12</wgt>
  <wgt id="822">1.78532e-12</wgt>
  <wgt id="823">7.26643e-12</wgt>
  <wgt id="824">6.98268e-12</wgt>
  <wgt id="825">4.56356e-20</wgt>
  <wgt id="826">7.75612e-12</wgt>
  <wgt id="827">4.61319e-20</wgt>
  <wgt id="828">6.02699e-12</wgt>
  <wgt id="829">4.54299e-12</wgt>
  <wgt id="830">4.58861e-20</wgt>
  <wgt id="831">6.42241e-12</wgt>
  <wgt id="832">1.0428e-11</wgt>
  <wgt id="833">2.04535e-12</wgt>
  <wgt id="834">1.06182e-11</wgt>
  <wgt id="835">4.3421e-13</wgt>
  <wgt id="836">1.39823e-12</wgt>
  <wgt id="837">6.07194e-12</wgt>
  <wgt id="838">1.22548e-12</wgt>
  <wgt id="839">6.9945e-12</wgt>
  <wgt id="840">2.99327e-12</wgt>
  <wgt id="841">7.34437e-12</wgt>
  <wgt id="842">4.43783e-12</wgt>
  <wgt id="843">4.01724e-12</wgt>
  <wgt id="844">5.95668e-12</wgt>
  <wgt id="845">1.09579e-11</wgt>
  <wgt id="846">1.91386e-12</wgt>
  <wgt id="847">5.35784e-12</wgt>
  <wgt id="848">4.70299e-20</wgt>
  <wgt id="849">5.97083e-12</wgt>
  <wgt id="850">9.59796e-12</wgt>
  <wgt id="851">6.29318e-12</wgt>
  <wgt id="852">4.66178e-20</wgt>
  <wgt id="853">6.59829e-12</wgt>
  <wgt id="854">8.53991e-12</wgt>
  <wgt id="855">5.93478e-12</wgt>
  <wgt id="856">4.57335e-20</wgt>
  <wgt id="857">1.78662e-12</wgt>
  <wgt id="858">4.91669e-12</wgt>
  <wgt id="859">3.82723e-12</wgt>
  <wgt id="860">5.33976e-12</wgt>
  <wgt id="861">1.70954e-12</wgt>
  <wgt id="862">4.95236e-12</wgt>
  <wgt id="863">6.2493e-12</wgt>
  <wgt id="864">4.15023e-12</wgt>
  <wgt id="865">9.5431e-12</wgt>
  <wgt id="866">1.00409e-11</wgt>
  <wgt id="867">4.21007e-12</wgt>
  <wgt id="868">5.61326e-12</wgt>
  <wgt id="869">4.60467e-20</wgt>
  <wgt id="870">1.08084e-12</wgt>
  <wgt id="871">2.3908e-12</wgt>
  <wgt id="872">9.48629e-12</wgt>
  <wgt id="873">2.05891e-12</wgt>
  <wgt id="874">5.78143e-12</wgt>
  <wgt id="875">9.72805e-13</wgt>
  <wgt id="876">8.51921e-12</wgt>
  <wgt id="877">5.78077e-12</wgt>
  <wgt id="878">1.74542e-12</wgt>
  <wgt id="879">8.31941e-12</wgt>
  <wgt id="880">8.25767e-12</wgt>
  <wgt id="881">9.72963e-12</wgt>
  <wgt id="882">9.69479e-12</wgt>
  <wgt id="883">8.58517e-12</wgt>
  <wgt id="884">7.82198e-12</wgt>
  <wgt id="885">9.12075e-12</wgt>
  <wgt id="886">7.03164e-12</wgt>
  <wgt id="887">9.3422e-12</wgt>
  <wgt id="888">8.71501e-12</wgt>
  <wgt id="889">9.00599e-12</wgt>
  <wgt id="890">8.13324e-12</wgt>
  <wgt id="891">8.18099e-12</wgt>
  <wgt id="892">9.40301e-12</wgt>
  <wgt id="893">8.78534e-12</wgt>
  <wgt id="894">8.68209e-12</wgt>
  <wgt id="895">7.80577e-12</wgt>
  <wgt id="896">1.32385e-11</wgt>
  <wgt id="897">9.83192e-12</wgt>
  <wgt id="898">7.05314e-12</wgt>
  <wgt id="899">7.28302e-12</wgt>
  <wgt id="900">6.52046e-12</wgt>
  <wgt id="901">5.75621e-12</wgt>
  <wgt id="902">6.77167e-12</wgt>
  <wgt id="903">7.01795e-12</wgt>
  <wgt id="904">8.39708e-12</wgt>
  <wgt id="905">7.46898e-12</wgt>
  <wgt id="906">1.20444e-11</wgt>
  <wgt id="907">9.76524e-12</wgt>
  <wgt id="908">9.36145e-12</wgt>
  <wgt id="909">6.98517e-12</wgt>
  <wgt id="910">7.39021e-12</wgt>
  <wgt id="911">7.26153e-12</wgt>
  <wgt id="912">7.59932e-12</wgt>
  <wgt id="913">4.93667e-12</wgt>
  <wgt id="914">9.66813e-12</wgt>
  <wgt id="915">7.57022e-12</wgt>
  <wgt id="916">9.04851e-12</wgt>
  <wgt id="917">6.56002e-12</wgt>
  <wgt id="918">7.32758e-12</wgt>
  <wgt id="919">7.73875e-12</wgt>
  <wgt id="920">6.11716e-12</wgt>
  <wgt id="921">8.51066e-12</wgt>
  <wgt id="922">7.72455e-12</wgt>
  <wgt id="923">9.01886e-12</wgt>
  <wgt id="924">6.71069e-12</wgt>
  <wgt id="925">4.79696e-12</wgt>
  <wgt id="926">1.04795e-11</wgt>
  <wgt id="927">9.50614e-12</wgt>
  <wgt id="928">8.94718e-12</wgt>
  <wgt id="929">8.17302e-12</wgt>
  <wgt id="930">8.64854e-12</wgt>
  <wgt id="931">9.14573e-12</wgt>
  <wgt id="932">6.1497e-12</wgt>
  <wgt id="933">9.95664e-12</wgt>
  <wgt id="934">8.28791e-12</wgt>
  <wgt id="935">1.02418e-11</wgt>
  <wgt id="936">7.2679e-12</wgt>
  <wgt id="937">8.78773e-12</wgt>
  <wgt id="938">7.66247e-12</wgt>
  <wgt id="939">7.14564e-12</wgt>
  <wgt id="940">5.63299e-12</wgt>
  <wgt id="941">7.62767e-12</wgt>
  <wgt id="942">8.35104e-12</wgt>
  <wgt id="943">1.1111e-11</wgt>
  <wgt id="944">9.88422e-12</wgt>
  <wgt id="945">6.76156e-12</wgt>
  <wgt id="946">7.35838e-12</wgt>
  <wgt id="947">7.76767e-12</wgt>
  <wgt id="948">9.98772e-12</wgt>
  <wgt id="949">1.03854e-11</wgt>
  <wgt id="950">6.30785e-12</wgt>
  <wgt id="951">7.71373e-12</wgt>
  <wgt id="952">9.13626e-12</wgt>
  <wgt id="953">9.43924e-12</wgt>
  <wgt id="954">8.58565e-12</wgt>
  <wgt id="955">7.09005e-12</wgt>
  <wgt id="956">6.89995e-12</wgt>
  <wgt id="957">8.73196e-12</wgt>
  <wgt id="958">7.67311e-12</wgt>
  <wgt id="959">7.67901e-12</wgt>
  <wgt id="960">6.57644e-12</wgt>
  <wgt id="961">8.03792e-12</wgt>
  <wgt id="962">9.02444e-12</wgt>
  <wgt id="963">7.25382e-12</wgt>
  <wgt id="964">1.01168e-11</wgt>
  <wgt id="965">1.02608e-11</wgt>
  <wgt id="966">9.78197e-12</wgt>
  <wgt id="967">9.66631e-12</wgt>
  <wgt id="968">8.76792e-12</wgt>
  <wgt id="969">8.96298e-12</wgt>
  <wgt id="970">8.82025e-12</wgt>
  <wgt id="971">7.07558e-12</wgt>
  <wgt id="972">8.59835e-12</wgt>
  <wgt id="973">6.39524e-12</wgt>
  <wgt id="974">1.14885e-11</wgt>
  <wgt id="975">7.79263e-12</wgt>
  <wgt id="976">8.85817e-12</wgt>
  <wgt id="977">6.07052e-12</wgt>
  <wgt id="978">9.02033e-12</wgt>
  <wgt id="979">1.1542e-11</wgt>
  <wgt id="980">8.22473e-12</wgt>
  <wgt id="981">8.84755e-12</wgt>
  <wgt id="982">8.24881e-12</wgt>
</rwgt>
</event>
<event>
 5   1  0.5790000E-11  0.2161700E+04  0.7818608E-02  0.7763451E-01
       21   -1    0    0  502  501  0.00000000000E+00  0.00000000000E+00  0.55618288409E+03  0.55618288409E+03  0.00000000000E+00 0.  1.
       21   -1    0    0  501  502 -0.00000000000E+00 -0.00000000000E+00 -0.21004544146E+04  0.21004544146E+04  0.00000000000E+00 0. -1.
       39    2    1    2    0    0  0.00000000000E+00  0.00000000000E+00 -0.15442715305E+04  0.26566372987E+04  0.21617000664E+04 0.  0.
       25    1    3    3    0    0  0.92589156073E+01  0.99035713619E+03 -0.12814030339E+04  0.16243496299E+04  0.12500000000E+03 0.  0.
       25    1    3    3    0    0 -0.92589156073E+01 -0.99035713619E+03 -0.26286849660E+03  0.10322876688E+04  0.12500000000E+03 0.  0.
<mgrwt>
<rscale>  0 0.21617001E+04</rscale>
<asrwt>0</asrwt>
<pdfrwt beam="1">  1       21 0.85566598E-01 0.21617001E+04</pdfrwt>
<pdfrwt beam="2">  1       21 0.32314683E+00 0.21617001E+04</pdfrwt>
<totfact> 0.10799798E+01</totfact>
</mgrwt>
<rwgt>
  <wgt id="1">5.79e-12</wgt>
  <wgt id="2">5.01143e-12</wgt>
  <wgt id="3">6.76269e-12</wgt>
  <wgt id="4">5.79e-12</wgt>
  <wgt id="5">5.01143e-12</wgt>
  <wgt id="6">6.76269e-12</wgt>
  <wgt id="7">5.79e-12</wgt>
  <wgt id="8">5.01143e-12</wgt>
  <wgt id="9">6.76269e-12</wgt>
  <wgt id="10">6.06995e-12</wgt>
  <wgt id="11">6.06815e-12</wgt>
  <wgt id="12">6.05556e-12</wgt>
  <wgt id="13">6.05843e-12</wgt>
  <wgt id="14">6.09e-12</wgt>
  <wgt id="15">6.07949e-12</wgt>
  <wgt id="16">6.05571e-12</wgt>
  <wgt id="17">6.10212e-12</wgt>
  <wgt id="18">6.06361e-12</wgt>
  <wgt id="19">6.0944e-12</wgt>
  <wgt id="20">6.0686e-12</wgt>
  <wgt id="21">6.02027e-12</wgt>
  <wgt id="22">6.02445e-12</wgt>
  <wgt id="23">5.9742e-12</wgt>
  <wgt id="24">6.02258e-12</wgt>
  <wgt id="25">6.04642e-12</wgt>
  <wgt id="26">6.08667e-12</wgt>
  <wgt id="27">6.05739e-12</wgt>
  <wgt id="28">6.02985e-12</wgt>
  <wgt id="29">6.07174e-12</wgt>
  <wgt id="30">6.01856e-12</wgt>
  <wgt id="31">6.09724e-12</wgt>
  <wgt id="32">6.02313e-12</wgt>
  <wgt id="33">6.07776e-12</wgt>
  <wgt id="34">6.0281e-12</wgt>
  <wgt id="35">6.02831e-12</wgt>
  <wgt id="36">6.10175e-12</wgt>
  <wgt id="37">6.04908e-12</wgt>
  <wgt id="38">6.0421e-12</wgt>
  <wgt id="39">6.17995e-12</wgt>
  <wgt id="40">6.07519e-12</wgt>
  <wgt id="41">6.06691e-12</wgt>
  <wgt id="42">6.0797e-12</wgt>
  <wgt id="43">6.07387e-12</wgt>
  <wgt id="44">6.10829e-12</wgt>
  <wgt id="45">6.07761e-12</wgt>
  <wgt id="46">6.04551e-12</wgt>
  <wgt id="47">6.13358e-12</wgt>
  <wgt id="48">6.10452e-12</wgt>
  <wgt id="49">6.02913e-12</wgt>
  <wgt id="50">6.01365e-12</wgt>
  <wgt id="51">6.02969e-12</wgt>
  <wgt id="52">6.09002e-12</wgt>
  <wgt id="53">6.12573e-12</wgt>
  <wgt id="54">6.10245e-12</wgt>
  <wgt id="55">6.06603e-12</wgt>
  <wgt id="56">6.04116e-12</wgt>
  <wgt id="57">6.03285e-12</wgt>
  <wgt id="58">6.06703e-12</wgt>
  <wgt id="59">6.08065e-12</wgt>
  <wgt id="60">6.02076e-12</wgt>
  <wgt id="61">6.03614e-12</wgt>
  <wgt id="62">6.05742e-12</wgt>
  <wgt id="63">6.0649e-12</wgt>
  <wgt id="64">6.06495e-12</wgt>
  <wgt id="65">6.0444e-12</wgt>
  <wgt id="66">6.07615e-12</wgt>
  <wgt id="67">6.06326e-12</wgt>
  <wgt id="68">6.06817e-12</wgt>
  <wgt id="69">6.0581e-12</wgt>
  <wgt id="70">6.05113e-12</wgt>
  <wgt id="71">6.06785e-12</wgt>
  <wgt id="72">6.03738e-12</wgt>
  <wgt id="73">6.0934e-12</wgt>
  <wgt id="74">6.09386e-12</wgt>
  <wgt id="75">6.06823e-12</wgt>
  <wgt id="76">6.11071e-12</wgt>
  <wgt id="77">6.05878e-12</wgt>
  <wgt id="78">6.06434e-12</wgt>
  <wgt id="79">6.08515e-12</wgt>
  <wgt id="80">6.01863e-12</wgt>
  <wgt id="81">6.068e-12</wgt>
  <wgt id="82">6.07592e-12</wgt>
  <wgt id="83">6.03151e-12</wgt>
  <wgt id="84">6.04861e-12</wgt>
  <wgt id="85">6.04604e-12</wgt>
  <wgt id="86">6.09386e-12</wgt>
  <wgt id="87">6.01305e-12</wgt>
  <wgt id="88">6.08787e-12</wgt>
  <wgt id="89">6.08126e-12</wgt>
  <wgt id="90">6.09126e-12</wgt>
  <wgt id="91">6.07752e-12</wgt>
  <wgt id="92">6.08704e-12</wgt>
  <wgt id="93">6.0773e-12</wgt>
  <wgt id="94">6.05307e-12</wgt>
  <wgt id="95">6.09019e-12</wgt>
  <wgt id="96">6.08591e-12</wgt>
  <wgt id="97">6.04597e-12</wgt>
  <wgt id="98">6.06966e-12</wgt>
  <wgt id="99">6.06176e-12</wgt>
  <wgt id="100">6.08453e-12</wgt>
  <wgt id="101">6.06176e-12</wgt>
  <wgt id="102">6.05907e-12</wgt>
  <wgt id="103">6.09211e-12</wgt>
  <wgt id="104">6.0579e-12</wgt>
  <wgt id="105">6.08308e-12</wgt>
  <wgt id="106">6.05405e-12</wgt>
  <wgt id="107">6.10624e-12</wgt>
  <wgt id="108">6.05778e-12</wgt>
  <wgt id="109">6.07594e-12</wgt>
  <wgt id="110">6.06729e-12</wgt>
  <wgt id="111">6.06864e-12</wgt>
  <wgt id="112">6.14827e-12</wgt>
  <wgt id="113">8.62002e-12</wgt>
  <wgt id="114">8.02929e-12</wgt>
  <wgt id="115">7.87423e-12</wgt>
  <wgt id="116">1.06511e-11</wgt>
  <wgt id="117">6.61292e-12</wgt>
  <wgt id="118">6.63602e-12</wgt>
  <wgt id="119">6.59971e-12</wgt>
  <wgt id="120">6.61317e-12</wgt>
  <wgt id="121">6.61272e-12</wgt>
  <wgt id="122">6.60231e-12</wgt>
  <wgt id="123">6.62759e-12</wgt>
  <wgt id="124">6.60399e-12</wgt>
  <wgt id="125">6.61873e-12</wgt>
  <wgt id="126">6.62146e-12</wgt>
  <wgt id="127">6.60726e-12</wgt>
  <wgt id="128">6.63305e-12</wgt>
  <wgt id="129">6.59291e-12</wgt>
  <wgt id="130">6.64457e-12</wgt>
  <wgt id="131">6.58009e-12</wgt>
  <wgt id="132">6.43323e-12</wgt>
  <wgt id="133">6.82651e-12</wgt>
  <wgt id="134">6.54386e-12</wgt>
  <wgt id="135">6.66709e-12</wgt>
  <wgt id="136">6.71174e-12</wgt>
  <wgt id="137">6.49416e-12</wgt>
  <wgt id="138">6.90635e-12</wgt>
  <wgt id="139">6.33402e-12</wgt>
  <wgt id="140">6.581e-12</wgt>
  <wgt id="141">6.63693e-12</wgt>
  <wgt id="142">6.61121e-12</wgt>
  <wgt id="143">6.63298e-12</wgt>
  <wgt id="144">6.34923e-12</wgt>
  <wgt id="145">6.86808e-12</wgt>
  <wgt id="146">6.69693e-12</wgt>
  <wgt id="147">6.5441e-12</wgt>
  <wgt id="148">6.6365e-12</wgt>
  <wgt id="149">6.61121e-12</wgt>
  <wgt id="150">6.66753e-12</wgt>
  <wgt id="151">6.58725e-12</wgt>
  <wgt id="152">6.61448e-12</wgt>
  <wgt id="153">6.61235e-12</wgt>
  <wgt id="154">6.62932e-12</wgt>
  <wgt id="155">6.58064e-12</wgt>
  <wgt id="156">6.82685e-12</wgt>
  <wgt id="157">6.41562e-12</wgt>
  <wgt id="158">7.92804e-12</wgt>
  <wgt id="159">7.9621e-12</wgt>
  <wgt id="160">7.90091e-12</wgt>
  <wgt id="161">7.90916e-12</wgt>
  <wgt id="162">7.94947e-12</wgt>
  <wgt id="163">7.91977e-12</wgt>
  <wgt id="164">7.94065e-12</wgt>
  <wgt id="165">7.93117e-12</wgt>
  <wgt id="166">7.9261e-12</wgt>
  <wgt id="167">7.92265e-12</wgt>
  <wgt id="168">7.93598e-12</wgt>
  <wgt id="169">7.89512e-12</wgt>
  <wgt id="170">7.94861e-12</wgt>
  <wgt id="171">7.92318e-12</wgt>
  <wgt id="172">7.93523e-12</wgt>
  <wgt id="173">7.91406e-12</wgt>
  <wgt id="174">7.9333e-12</wgt>
  <wgt id="175">7.70429e-12</wgt>
  <wgt id="176">8.22118e-12</wgt>
  <wgt id="177">7.96318e-12</wgt>
  <wgt id="178">7.89639e-12</wgt>
  <wgt id="179">8.32104e-12</wgt>
  <wgt id="180">7.32134e-12</wgt>
  <wgt id="181">7.67036e-12</wgt>
  <wgt id="182">8.10016e-12</wgt>
  <wgt id="183">7.77171e-12</wgt>
  <wgt id="184">8.00597e-12</wgt>
  <wgt id="185">7.84141e-12</wgt>
  <wgt id="186">8.0323e-12</wgt>
  <wgt id="187">7.83943e-12</wgt>
  <wgt id="188">8.08489e-12</wgt>
  <wgt id="189">7.86773e-12</wgt>
  <wgt id="190">7.95297e-12</wgt>
  <wgt id="191">7.95632e-12</wgt>
  <wgt id="192">7.91153e-12</wgt>
  <wgt id="193">8.05739e-12</wgt>
  <wgt id="194">7.86298e-12</wgt>
  <wgt id="195">7.65667e-12</wgt>
  <wgt id="196">8.37358e-12</wgt>
  <wgt id="197">7.96942e-12</wgt>
  <wgt id="198">7.9181e-12</wgt>
  <wgt id="199">7.92804e-12</wgt>
  <wgt id="200">8.00389e-12</wgt>
  <wgt id="201">7.97822e-12</wgt>
  <wgt id="202">7.95322e-12</wgt>
  <wgt id="203">7.91791e-12</wgt>
  <wgt id="204">7.89997e-12</wgt>
  <wgt id="205">7.88471e-12</wgt>
  <wgt id="206">7.77162e-12</wgt>
  <wgt id="207">7.81735e-12</wgt>
  <wgt id="208">7.72569e-12</wgt>
  <wgt id="209">7.79267e-12</wgt>
  <wgt id="210">7.7561e-12</wgt>
  <wgt id="211">7.76937e-12</wgt>
  <wgt id="212">7.7733e-12</wgt>
  <wgt id="213">7.77072e-12</wgt>
  <wgt id="214">7.77243e-12</wgt>
  <wgt id="215">7.7769e-12</wgt>
  <wgt id="216">7.76789e-12</wgt>
  <wgt id="217">7.78824e-12</wgt>
  <wgt id="218">7.75819e-12</wgt>
  <wgt id="219">7.75993e-12</wgt>
  <wgt id="220">7.77862e-12</wgt>
  <wgt id="221">7.77459e-12</wgt>
  <wgt id="222">7.76204e-12</wgt>
  <wgt id="223">7.33924e-12</wgt>
  <wgt id="224">8.16724e-12</wgt>
  <wgt id="225">7.67783e-12</wgt>
  <wgt id="226">7.89054e-12</wgt>
  <wgt id="227">7.6987e-12</wgt>
  <wgt id="228">7.80356e-12</wgt>
  <wgt id="229">7.66254e-12</wgt>
  <wgt id="230">7.8254e-12</wgt>
  <wgt id="231">8.03043e-12</wgt>
  <wgt id="232">7.55938e-12</wgt>
  <wgt id="233">7.72316e-12</wgt>
  <wgt id="234">7.85231e-12</wgt>
  <wgt id="235">7.4612e-12</wgt>
  <wgt id="236">8.02555e-12</wgt>
  <wgt id="237">7.59053e-12</wgt>
  <wgt id="238">7.83152e-12</wgt>
  <wgt id="239">7.69839e-12</wgt>
  <wgt id="240">7.90294e-12</wgt>
  <wgt id="241">7.67878e-12</wgt>
  <wgt id="242">7.88054e-12</wgt>
  <wgt id="243">7.89885e-12</wgt>
  <wgt id="244">7.77268e-12</wgt>
  <wgt id="245">7.76855e-12</wgt>
  <wgt id="246">7.81328e-12</wgt>
  <wgt id="247">7.77162e-12</wgt>
  <wgt id="248">7.85354e-12</wgt>
  <wgt id="249">7.8256e-12</wgt>
  <wgt id="250">7.79603e-12</wgt>
  <wgt id="251">7.75622e-12</wgt>
  <wgt id="252">7.73587e-12</wgt>
  <wgt id="253">7.72203e-12</wgt>
  <wgt id="254">7.4907e-12</wgt>
  <wgt id="255">7.49699e-12</wgt>
  <wgt id="256">7.48352e-12</wgt>
  <wgt id="257">7.49683e-12</wgt>
  <wgt id="258">7.48626e-12</wgt>
  <wgt id="259">7.54079e-12</wgt>
  <wgt id="260">7.44251e-12</wgt>
  <wgt id="261">7.50113e-12</wgt>
  <wgt id="262">7.47881e-12</wgt>
  <wgt id="263">7.48547e-12</wgt>
  <wgt id="264">7.49651e-12</wgt>
  <wgt id="265">7.48222e-12</wgt>
  <wgt id="266">7.5077e-12</wgt>
  <wgt id="267">7.49345e-12</wgt>
  <wgt id="268">7.48737e-12</wgt>
  <wgt id="269">7.5127e-12</wgt>
  <wgt id="270">7.47583e-12</wgt>
  <wgt id="271">7.47022e-12</wgt>
  <wgt id="272">7.51377e-12</wgt>
  <wgt id="273">7.47173e-12</wgt>
  <wgt id="274">7.50501e-12</wgt>
  <wgt id="275">7.44633e-12</wgt>
  <wgt id="276">7.53713e-12</wgt>
  <wgt id="277">7.4477e-12</wgt>
  <wgt id="278">7.53031e-12</wgt>
  <wgt id="279">7.35701e-12</wgt>
  <wgt id="280">7.65901e-12</wgt>
  <wgt id="281">7.4569e-12</wgt>
  <wgt id="282">7.50065e-12</wgt>
  <wgt id="283">7.25183e-12</wgt>
  <wgt id="284">7.7887e-12</wgt>
  <wgt id="285">7.0945e-12</wgt>
  <wgt id="286">7.82579e-12</wgt>
  <wgt id="287">7.51709e-12</wgt>
  <wgt id="288">7.45699e-12</wgt>
  <wgt id="289">7.55043e-12</wgt>
  <wgt id="290">7.35949e-12</wgt>
  <wgt id="291">7.46253e-12</wgt>
  <wgt id="292">7.49126e-12</wgt>
  <wgt id="293">7.42623e-12</wgt>
  <wgt id="294">7.55519e-12</wgt>
  <wgt id="295">7.33344e-12</wgt>
  <wgt id="296">7.68331e-12</wgt>
  <wgt id="297">7.47391e-12</wgt>
  <wgt id="298">7.52681e-12</wgt>
  <wgt id="299">7.46576e-12</wgt>
  <wgt id="300">7.55675e-12</wgt>
  <wgt id="301">7.34613e-12</wgt>
  <wgt id="302">7.82582e-12</wgt>
  <wgt id="303">7.4111e-12</wgt>
  <wgt id="304">7.53547e-12</wgt>
  <wgt id="305">7.4261e-12</wgt>
  <wgt id="306">7.43306e-12</wgt>
  <wgt id="307">7.41906e-12</wgt>
  <wgt id="308">7.43281e-12</wgt>
  <wgt id="309">7.42219e-12</wgt>
  <wgt id="310">7.47743e-12</wgt>
  <wgt id="311">7.37964e-12</wgt>
  <wgt id="312">7.43525e-12</wgt>
  <wgt id="313">7.41676e-12</wgt>
  <wgt id="314">7.42106e-12</wgt>
  <wgt id="315">7.43156e-12</wgt>
  <wgt id="316">7.41787e-12</wgt>
  <wgt id="317">7.44479e-12</wgt>
  <wgt id="318">7.43193e-12</wgt>
  <wgt id="319">7.41683e-12</wgt>
  <wgt id="320">7.44985e-12</wgt>
  <wgt id="321">7.41343e-12</wgt>
  <wgt id="322">7.40394e-12</wgt>
  <wgt id="323">7.45276e-12</wgt>
  <wgt id="324">7.41269e-12</wgt>
  <wgt id="325">7.43804e-12</wgt>
  <wgt id="326">7.38951e-12</wgt>
  <wgt id="327">7.47364e-12</wgt>
  <wgt id="328">7.38732e-12</wgt>
  <wgt id="329">7.44792e-12</wgt>
  <wgt id="330">7.63183e-12</wgt>
  <wgt id="331">7.23123e-12</wgt>
  <wgt id="332">7.39842e-12</wgt>
  <wgt id="333">7.43283e-12</wgt>
  <wgt id="334">7.24451e-12</wgt>
  <wgt id="335">7.6545e-12</wgt>
  <wgt id="336">7.1455e-12</wgt>
  <wgt id="337">7.77405e-12</wgt>
  <wgt id="338">7.51726e-12</wgt>
  <wgt id="339">7.3428e-12</wgt>
  <wgt id="340">7.48001e-12</wgt>
  <wgt id="341">7.29446e-12</wgt>
  <wgt id="342">7.40661e-12</wgt>
  <wgt id="343">7.412e-12</wgt>
  <wgt id="344">7.36979e-12</wgt>
  <wgt id="345">7.4924e-12</wgt>
  <wgt id="346">7.26637e-12</wgt>
  <wgt id="347">7.60994e-12</wgt>
  <wgt id="348">7.41155e-12</wgt>
  <wgt id="349">7.45855e-12</wgt>
  <wgt id="350">7.39542e-12</wgt>
  <wgt id="351">7.50452e-12</wgt>
  <wgt id="352">7.28049e-12</wgt>
  <wgt id="353">7.75232e-12</wgt>
  <wgt id="354">7.31376e-12</wgt>
  <wgt id="355">7.49291e-12</wgt>
  <wgt id="356">7.4907e-12</wgt>
  <wgt id="357">7.43265e-12</wgt>
  <wgt id="358">7.4261e-12</wgt>
  <wgt id="359">7.49039e-12</wgt>
  <wgt id="360">7.61744e-12</wgt>
  <wgt id="361">7.52921e-12</wgt>
  <wgt id="362">7.67551e-12</wgt>
  <wgt id="363">7.65658e-12</wgt>
  <wgt id="364">7.61979e-12</wgt>
  <wgt id="365">7.59145e-12</wgt>
  <wgt id="366">7.56298e-12</wgt>
  <wgt id="367">7.50779e-12</wgt>
  <wgt id="368">7.47259e-12</wgt>
  <wgt id="369">7.43466e-12</wgt>
  <wgt id="370">7.52921e-12</wgt>
  <wgt id="371">7.55948e-12</wgt>
  <wgt id="372">7.54209e-12</wgt>
  <wgt id="373">7.51796e-12</wgt>
  <wgt id="374">7.52748e-12</wgt>
  <wgt id="375">8.58792e-12</wgt>
  <wgt id="376">8.58804e-12</wgt>
  <wgt id="377">8.58743e-12</wgt>
  <wgt id="378">8.62047e-12</wgt>
  <wgt id="379">8.5555e-12</wgt>
  <wgt id="380">8.61266e-12</wgt>
  <wgt id="381">8.57789e-12</wgt>
  <wgt id="382">8.62557e-12</wgt>
  <wgt id="383">8.55053e-12</wgt>
  <wgt id="384">8.59328e-12</wgt>
  <wgt id="385">8.58264e-12</wgt>
  <wgt id="386">8.61343e-12</wgt>
  <wgt id="387">8.57685e-12</wgt>
  <wgt id="388">8.58076e-12</wgt>
  <wgt id="389">8.59632e-12</wgt>
  <wgt id="390">8.60651e-12</wgt>
  <wgt id="391">8.56836e-12</wgt>
  <wgt id="392">8.5143e-12</wgt>
  <wgt id="393">8.6293e-12</wgt>
  <wgt id="394">8.5935e-12</wgt>
  <wgt id="395">8.57982e-12</wgt>
  <wgt id="396">8.60231e-12</wgt>
  <wgt id="397">8.57767e-12</wgt>
  <wgt id="398">8.5763e-12</wgt>
  <wgt id="399">8.59877e-12</wgt>
  <wgt id="400">8.57579e-12</wgt>
  <wgt id="401">8.61345e-12</wgt>
  <wgt id="402">8.51074e-12</wgt>
  <wgt id="403">8.63671e-12</wgt>
  <wgt id="404">8.83162e-12</wgt>
  <wgt id="405">8.00765e-12</wgt>
  <wgt id="406">8.41081e-12</wgt>
  <wgt id="407">8.98072e-12</wgt>
  <wgt id="408">8.67946e-12</wgt>
  <wgt id="409">8.41791e-12</wgt>
  <wgt id="410">8.3018e-12</wgt>
  <wgt id="411">8.72533e-12</wgt>
  <wgt id="412">8.5677e-12</wgt>
  <wgt id="413">8.61629e-12</wgt>
  <wgt id="414">8.47362e-12</wgt>
  <wgt id="415">8.67631e-12</wgt>
  <wgt id="416">8.87582e-12</wgt>
  <wgt id="417">8.19169e-12</wgt>
  <wgt id="418">8.60563e-12</wgt>
  <wgt id="419">8.49258e-12</wgt>
  <wgt id="420">8.78912e-12</wgt>
  <wgt id="421">8.45281e-12</wgt>
  <wgt id="422">8.5373e-12</wgt>
  <wgt id="423">8.61124e-12</wgt>
  <wgt id="424">8.83747e-12</wgt>
  <wgt id="425">8.41715e-12</wgt>
  <wgt id="426">8.58792e-12</wgt>
  <wgt id="427">8.41894e-12</wgt>
  <wgt id="428">8.97184e-12</wgt>
  <wgt id="429">8.70263e-12</wgt>
  <wgt id="430">8.98418e-12</wgt>
  <wgt id="431">8.92726e-12</wgt>
  <wgt id="432">8.87543e-12</wgt>
  <wgt id="433">8.82427e-12</wgt>
  <wgt id="434">8.75897e-12</wgt>
  <wgt id="435">8.63182e-12</wgt>
  <wgt id="436">8.56779e-12</wgt>
  <wgt id="437">8.50499e-12</wgt>
  <wgt id="438">8.70263e-12</wgt>
  <wgt id="439">8.72876e-12</wgt>
  <wgt id="440">8.7121e-12</wgt>
  <wgt id="441">8.69571e-12</wgt>
  <wgt id="442">8.69057e-12</wgt>
  <wgt id="443">7.85531e-12</wgt>
  <wgt id="444">7.93963e-12</wgt>
  <wgt id="445">7.94562e-12</wgt>
  <wgt id="446">7.79548e-12</wgt>
  <wgt id="447">7.86071e-12</wgt>
  <wgt id="448">7.66913e-12</wgt>
  <wgt id="449">8.01948e-12</wgt>
  <wgt id="450">7.96617e-12</wgt>
  <wgt id="451">7.83256e-12</wgt>
  <wgt id="452">8.02418e-12</wgt>
  <wgt id="453">7.9549e-12</wgt>
  <wgt id="454">7.45006e-12</wgt>
  <wgt id="455">7.92386e-12</wgt>
  <wgt id="456">8.00938e-12</wgt>
  <wgt id="457">7.87907e-12</wgt>
  <wgt id="458">8.00194e-12</wgt>
  <wgt id="459">7.92857e-12</wgt>
  <wgt id="460">8.02231e-12</wgt>
  <wgt id="461">7.6656e-12</wgt>
  <wgt id="462">7.80341e-12</wgt>
  <wgt id="463">7.7272e-12</wgt>
  <wgt id="464">7.81815e-12</wgt>
  <wgt id="465">7.93873e-12</wgt>
  <wgt id="466">7.66356e-12</wgt>
  <wgt id="467">7.79547e-12</wgt>
  <wgt id="468">7.85014e-12</wgt>
  <wgt id="469">7.8375e-12</wgt>
  <wgt id="470">7.73043e-12</wgt>
  <wgt id="471">7.75626e-12</wgt>
  <wgt id="472">7.90989e-12</wgt>
  <wgt id="473">7.60419e-12</wgt>
  <wgt id="474">5.79e-12</wgt>
  <wgt id="475">5.77636e-12</wgt>
  <wgt id="476">5.74932e-12</wgt>
  <wgt id="477">5.84781e-12</wgt>
  <wgt id="478">5.87297e-12</wgt>
  <wgt id="479">5.49265e-12</wgt>
  <wgt id="480">6.12046e-12</wgt>
  <wgt id="481">5.84785e-12</wgt>
  <wgt id="482">5.8211e-12</wgt>
  <wgt id="483">5.82666e-12</wgt>
  <wgt id="484">6.01966e-12</wgt>
  <wgt id="485">5.29252e-12</wgt>
  <wgt id="486">6.10955e-12</wgt>
  <wgt id="487">5.63105e-12</wgt>
  <wgt id="488">5.84896e-12</wgt>
  <wgt id="489">5.20471e-12</wgt>
  <wgt id="490">5.69999e-12</wgt>
  <wgt id="491">5.72138e-12</wgt>
  <wgt id="492">5.71043e-12</wgt>
  <wgt id="493">5.33702e-12</wgt>
  <wgt id="494">5.36618e-12</wgt>
  <wgt id="495">5.81389e-12</wgt>
  <wgt id="496">5.48413e-12</wgt>
  <wgt id="497">5.40169e-12</wgt>
  <wgt id="498">5.96037e-12</wgt>
  <wgt id="499">5.84801e-12</wgt>
  <wgt id="500">5.72328e-12</wgt>
  <wgt id="501">5.99025e-12</wgt>
  <wgt id="502">6.04964e-12</wgt>
  <wgt id="503">5.69345e-12</wgt>
  <wgt id="504">5.99994e-12</wgt>
  <wgt id="505">6.01494e-12</wgt>
  <wgt id="506">5.41086e-12</wgt>
  <wgt id="507">5.68595e-12</wgt>
  <wgt id="508">6.11258e-12</wgt>
  <wgt id="509">5.54981e-12</wgt>
  <wgt id="510">5.83865e-12</wgt>
  <wgt id="511">5.48263e-12</wgt>
  <wgt id="512">6.19468e-12</wgt>
  <wgt id="513">6.04951e-12</wgt>
  <wgt id="514">6.13002e-12</wgt>
  <wgt id="515">5.95973e-12</wgt>
  <wgt id="516">6.41851e-12</wgt>
  <wgt id="517">5.92413e-12</wgt>
  <wgt id="518">6.00663e-12</wgt>
  <wgt id="519">5.5548e-12</wgt>
  <wgt id="520">5.88534e-12</wgt>
  <wgt id="521">5.63954e-12</wgt>
  <wgt id="522">6.01346e-12</wgt>
  <wgt id="523">5.48894e-12</wgt>
  <wgt id="524">5.9042e-12</wgt>
  <wgt id="525">5.66884e-12</wgt>
  <wgt id="526">6.09732e-12</wgt>
  <wgt id="527">5.69765e-12</wgt>
  <wgt id="528">5.77439e-12</wgt>
  <wgt id="529">5.51869e-12</wgt>
  <wgt id="530">6.09718e-12</wgt>
  <wgt id="531">5.54776e-12</wgt>
  <wgt id="532">6.26661e-12</wgt>
  <wgt id="533">5.78847e-12</wgt>
  <wgt id="534">5.56097e-12</wgt>
  <wgt id="535">5.87694e-12</wgt>
  <wgt id="536">5.98642e-12</wgt>
  <wgt id="537">5.48585e-12</wgt>
  <wgt id="538">5.73592e-12</wgt>
  <wgt id="539">5.66222e-12</wgt>
  <wgt id="540">6.12719e-12</wgt>
  <wgt id="541">5.75741e-12</wgt>
  <wgt id="542">5.67353e-12</wgt>
  <wgt id="543">5.59211e-12</wgt>
  <wgt id="544">5.82885e-12</wgt>
  <wgt id="545">5.46673e-12</wgt>
  <wgt id="546">5.29713e-12</wgt>
  <wgt id="547">5.59348e-12</wgt>
  <wgt id="548">5.59762e-12</wgt>
  <wgt id="549">5.68716e-12</wgt>
  <wgt id="550">5.60804e-12</wgt>
  <wgt id="551">5.80317e-12</wgt>
  <wgt id="552">5.31848e-12</wgt>
  <wgt id="553">5.41824e-12</wgt>
  <wgt id="554">6.06722e-12</wgt>
  <wgt id="555">5.91836e-12</wgt>
  <wgt id="556">5.69999e-12</wgt>
  <wgt id="557">5.91468e-12</wgt>
  <wgt id="558">5.74211e-12</wgt>
  <wgt id="559">5.82022e-12</wgt>
  <wgt id="560">6.39406e-12</wgt>
  <wgt id="561">5.95737e-12</wgt>
  <wgt id="562">6.02948e-12</wgt>
  <wgt id="563">6.41133e-12</wgt>
  <wgt id="564">6.1601e-12</wgt>
  <wgt id="565">6.01359e-12</wgt>
  <wgt id="566">5.60507e-12</wgt>
  <wgt id="567">5.79673e-12</wgt>
  <wgt id="568">5.57074e-12</wgt>
  <wgt id="569">5.88148e-12</wgt>
  <wgt id="570">5.78864e-12</wgt>
  <wgt id="571">6.38132e-12</wgt>
  <wgt id="572">5.60182e-12</wgt>
  <wgt id="573">5.63479e-12</wgt>
  <wgt id="574">5.66652e-12</wgt>
  <wgt id="575">6.37501e-12</wgt>
  <wgt id="576">6.98629e-12</wgt>
  <wgt id="577">6.65183e-12</wgt>
  <wgt id="578">6.47149e-12</wgt>
  <wgt id="579">6.64535e-12</wgt>
  <wgt id="580">6.81315e-12</wgt>
  <wgt id="581">7.04963e-12</wgt>
  <wgt id="582">6.86661e-12</wgt>
  <wgt id="583">6.52304e-12</wgt>
  <wgt id="584">6.30001e-12</wgt>
  <wgt id="585">5.88734e-12</wgt>
  <wgt id="586">5.98927e-12</wgt>
  <wgt id="587">6.5147e-12</wgt>
  <wgt id="588">7.01374e-12</wgt>
  <wgt id="589">6.99635e-12</wgt>
  <wgt id="590">6.32257e-12</wgt>
  <wgt id="591">6.55012e-12</wgt>
  <wgt id="592">5.91689e-12</wgt>
  <wgt id="593">6.16331e-12</wgt>
  <wgt id="594">6.20711e-12</wgt>
  <wgt id="595">6.72753e-12</wgt>
  <wgt id="596">7.55264e-12</wgt>
  <wgt id="597">6.49424e-12</wgt>
  <wgt id="598">6.47071e-12</wgt>
  <wgt id="599">6.83224e-12</wgt>
  <wgt id="600">6.85304e-12</wgt>
  <wgt id="601">6.1098e-12</wgt>
  <wgt id="602">6.15719e-12</wgt>
  <wgt id="603">5.93607e-12</wgt>
  <wgt id="604">6.54859e-12</wgt>
  <wgt id="605">6.41284e-12</wgt>
  <wgt id="606">6.52042e-12</wgt>
  <wgt id="607">6.69169e-12</wgt>
  <wgt id="608">6.6381e-12</wgt>
  <wgt id="609">6.3337e-12</wgt>
  <wgt id="610">6.07281e-12</wgt>
  <wgt id="611">6.02425e-12</wgt>
  <wgt id="612">6.5071e-12</wgt>
  <wgt id="613">6.07033e-12</wgt>
  <wgt id="614">6.32393e-12</wgt>
  <wgt id="615">6.51283e-12</wgt>
  <wgt id="616">6.06054e-12</wgt>
  <wgt id="617">6.6459e-12</wgt>
  <wgt id="618">7.0573e-12</wgt>
  <wgt id="619">6.24067e-12</wgt>
  <wgt id="620">6.59345e-12</wgt>
  <wgt id="621">6.2863e-12</wgt>
  <wgt id="622">6.5147e-12</wgt>
  <wgt id="623">6.39469e-12</wgt>
  <wgt id="624">6.42411e-12</wgt>
  <wgt id="625">6.0664e-12</wgt>
  <wgt id="626">5.6202e-12</wgt>
  <wgt id="627">5.74004e-12</wgt>
  <wgt id="628">6.33457e-12</wgt>
  <wgt id="629">6.55331e-12</wgt>
  <wgt id="630">6.12269e-12</wgt>
  <wgt id="631">6.55881e-12</wgt>
  <wgt id="632">5.7989e-12</wgt>
  <wgt id="633">6.34423e-12</wgt>
  <wgt id="634">6.05529e-12</wgt>
  <wgt id="635">5.84677e-12</wgt>
  <wgt id="636">6.45013e-12</wgt>
  <wgt id="637">6.29012e-12</wgt>
  <wgt id="638">6.06996e-12</wgt>
  <wgt id="639">6.08062e-12</wgt>
  <wgt id="640">6.2037e-12</wgt>
  <wgt id="641">6.71019e-12</wgt>
  <wgt id="642">5.70619e-12</wgt>
  <wgt id="643">6.18751e-12</wgt>
  <wgt id="644">5.69464e-12</wgt>
  <wgt id="645">6.35931e-12</wgt>
  <wgt id="646">5.77219e-12</wgt>
  <wgt id="647">6.48488e-12</wgt>
  <wgt id="648">6.70508e-12</wgt>
  <wgt id="649">6.39243e-12</wgt>
  <wgt id="650">6.0856e-12</wgt>
  <wgt id="651">6.84936e-12</wgt>
  <wgt id="652">6.06793e-12</wgt>
  <wgt id="653">6.08916e-12</wgt>
  <wgt id="654">6.44802e-12</wgt>
  <wgt id="655">6.12226e-12</wgt>
  <wgt id="656">6.42071e-12</wgt>
  <wgt id="657">7.04734e-12</wgt>
  <wgt id="658">6.31164e-12</wgt>
  <wgt id="659">6.10872e-12</wgt>
  <wgt id="660">6.1474e-12</wgt>
  <wgt id="661">6.20339e-12</wgt>
  <wgt id="662">6.28323e-12</wgt>
  <wgt id="663">6.51621e-12</wgt>
  <wgt id="664">6.48861e-12</wgt>
  <wgt id="665">6.29621e-12</wgt>
  <wgt id="666">6.20799e-12</wgt>
  <wgt id="667">6.731e-12</wgt>
  <wgt id="668">6.27734e-12</wgt>
  <wgt id="669">6.34053e-12</wgt>
  <wgt id="670">6.71147e-12</wgt>
  <wgt id="671">6.47814e-12</wgt>
  <wgt id="672">6.23768e-12</wgt>
  <wgt id="673">6.82024e-12</wgt>
  <wgt id="674">6.16831e-12</wgt>
  <wgt id="675">6.14858e-12</wgt>
  <wgt id="676">8.21383e-12</wgt>
  <wgt id="677">8.31122e-12</wgt>
  <wgt id="678">9.02609e-12</wgt>
  <wgt id="679">8.49519e-12</wgt>
  <wgt id="680">8.311e-12</wgt>
  <wgt id="681">7.99753e-12</wgt>
  <wgt id="682">8.68167e-12</wgt>
  <wgt id="683">7.50369e-12</wgt>
  <wgt id="684">8.65677e-12</wgt>
  <wgt id="685">8.24713e-12</wgt>
  <wgt id="686">8.36994e-12</wgt>
  <wgt id="687">8.40491e-12</wgt>
  <wgt id="688">7.97401e-12</wgt>
  <wgt id="689">8.58503e-12</wgt>
  <wgt id="690">8.38288e-12</wgt>
  <wgt id="691">8.43087e-12</wgt>
  <wgt id="692">8.00055e-12</wgt>
  <wgt id="693">1.09406e-11</wgt>
  <wgt id="694">9.06829e-12</wgt>
  <wgt id="695">7.68803e-12</wgt>
  <wgt id="696">7.89561e-12</wgt>
  <wgt id="697">7.40851e-12</wgt>
  <wgt id="698">6.7081e-12</wgt>
  <wgt id="699">6.94749e-12</wgt>
  <wgt id="700">7.27634e-12</wgt>
  <wgt id="701">8.19485e-12</wgt>
  <wgt id="702">7.91326e-12</wgt>
  <wgt id="703">1.02204e-11</wgt>
  <wgt id="704">9.24972e-12</wgt>
  <wgt id="705">9.27565e-12</wgt>
  <wgt id="706">7.69401e-12</wgt>
  <wgt id="707">7.67346e-12</wgt>
  <wgt id="708">7.7913e-12</wgt>
  <wgt id="709">7.91745e-12</wgt>
  <wgt id="710">6.85824e-12</wgt>
  <wgt id="711">8.78574e-12</wgt>
  <wgt id="712">7.66555e-12</wgt>
  <wgt id="713">8.86598e-12</wgt>
  <wgt id="714">7.32139e-12</wgt>
  <wgt id="715">7.82913e-12</wgt>
  <wgt id="716">7.88305e-12</wgt>
  <wgt id="717">7.11027e-12</wgt>
  <wgt id="718">8.43966e-12</wgt>
  <wgt id="719">7.50146e-12</wgt>
  <wgt id="720">8.45966e-12</wgt>
  <wgt id="721">6.96048e-12</wgt>
  <wgt id="722">6.42475e-12</wgt>
  <wgt id="723">9.27505e-12</wgt>
  <wgt id="724">8.93903e-12</wgt>
  <wgt id="725">8.56266e-12</wgt>
  <wgt id="726">8.14282e-12</wgt>
  <wgt id="727">8.26067e-12</wgt>
  <wgt id="728">8.03932e-12</wgt>
  <wgt id="729">7.50993e-12</wgt>
  <wgt id="730">9.13425e-12</wgt>
  <wgt id="731">8.06224e-12</wgt>
  <wgt id="732">9.58377e-12</wgt>
  <wgt id="733">7.60672e-12</wgt>
  <wgt id="734">8.48374e-12</wgt>
  <wgt id="735">8.23834e-12</wgt>
  <wgt id="736">7.5733e-12</wgt>
  <wgt id="737">7.56677e-12</wgt>
  <wgt id="738">7.81155e-12</wgt>
  <wgt id="739">8.7434e-12</wgt>
  <wgt id="740">9.74127e-12</wgt>
  <wgt id="741">8.66407e-12</wgt>
  <wgt id="742">7.83187e-12</wgt>
  <wgt id="743">7.5023e-12</wgt>
  <wgt id="744">8.04319e-12</wgt>
  <wgt id="745">8.98777e-12</wgt>
  <wgt id="746">9.2491e-12</wgt>
  <wgt id="747">6.76962e-12</wgt>
  <wgt id="748">7.92759e-12</wgt>
  <wgt id="749">8.50624e-12</wgt>
  <wgt id="750">8.93634e-12</wgt>
  <wgt id="751">8.25037e-12</wgt>
  <wgt id="752">7.37249e-12</wgt>
  <wgt id="753">7.33178e-12</wgt>
  <wgt id="754">8.62426e-12</wgt>
  <wgt id="755">7.99822e-12</wgt>
  <wgt id="756">7.94362e-12</wgt>
  <wgt id="757">7.05188e-12</wgt>
  <wgt id="758">7.94352e-12</wgt>
  <wgt id="759">9.1026e-12</wgt>
  <wgt id="760">7.8149e-12</wgt>
  <wgt id="761">9.13029e-12</wgt>
  <wgt id="762">9.1731e-12</wgt>
  <wgt id="763">8.42895e-12</wgt>
  <wgt id="764">8.79837e-12</wgt>
  <wgt id="765">8.3891e-12</wgt>
  <wgt id="766">8.33266e-12</wgt>
  <wgt id="767">8.38216e-12</wgt>
  <wgt id="768">7.43503e-12</wgt>
  <wgt id="769">8.6365e-12</wgt>
  <wgt id="770">7.68265e-12</wgt>
  <wgt id="771">1.00798e-11</wgt>
  <wgt id="772">8.01918e-12</wgt>
  <wgt id="773">8.25728e-12</wgt>
  <wgt id="774">6.46642e-12</wgt>
  <wgt id="775">8.62165e-12</wgt>
  <wgt id="776">9.52261e-12</wgt>
  <wgt id="777">7.21214e-12</wgt>
  <wgt id="778">5.32884e-12</wgt>
  <wgt id="779">3.17416e-12</wgt>
  <wgt id="780">1.78737e-12</wgt>
  <wgt id="781">6.0975e-12</wgt>
  <wgt id="782">6.53903e-12</wgt>
  <wgt id="783">2.76552e-12</wgt>
  <wgt id="784">3.62784e-12</wgt>
  <wgt id="785">8.04688e-12</wgt>
  <wgt id="786">2.77261e-12</wgt>
  <wgt id="787">7.01426e-12</wgt>
  <wgt id="788">7.32027e-13</wgt>
  <wgt id="789">3.65026e-12</wgt>
  <wgt id="790">2.84189e-12</wgt>
  <wgt id="791">6.30377e-12</wgt>
  <wgt id="792">7.29094e-12</wgt>
  <wgt id="793">4.96386e-12</wgt>
  <wgt id="794">2.52396e-12</wgt>
  <wgt id="795">7.50393e-12</wgt>
  <wgt id="796">7.73601e-12</wgt>
  <wgt id="797">7.00113e-12</wgt>
  <wgt id="798">3.93768e-12</wgt>
  <wgt id="799">6.86654e-12</wgt>
  <wgt id="800">4.04191e-12</wgt>
  <wgt id="801">5.24221e-12</wgt>
  <wgt id="802">2.42915e-12</wgt>
  <wgt id="803">8.66491e-12</wgt>
  <wgt id="804">7.62485e-12</wgt>
  <wgt id="805">7.27689e-12</wgt>
  <wgt id="806">5.93036e-12</wgt>
  <wgt id="807">5.26708e-12</wgt>
  <wgt id="808">5.10791e-12</wgt>
  <wgt id="809">4.79235e-12</wgt>
  <wgt id="810">6.56306e-12</wgt>
  <wgt id="811">5.58343e-12</wgt>
  <wgt id="812">2.90939e-12</wgt>
  <wgt id="813">3.15267e-12</wgt>
  <wgt id="814">3.60149e-12</wgt>
  <wgt id="815">2.86586e-12</wgt>
  <wgt id="816">3.32932e-12</wgt>
  <wgt id="817">5.39644e-12</wgt>
  <wgt id="818">7.37741e-12</wgt>
  <wgt id="819">3.106e-12</wgt>
  <wgt id="820">4.96892e-12</wgt>
  <wgt id="821">6.54643e-12</wgt>
  <wgt id="822">4.26164e-12</wgt>
  <wgt id="823">6.98492e-12</wgt>
  <wgt id="824">8.12806e-12</wgt>
  <wgt id="825">2.24252e-12</wgt>
  <wgt id="826">6.92475e-12</wgt>
  <wgt id="827">2.11266e-12</wgt>
  <wgt id="828">6.94733e-12</wgt>
  <wgt id="829">5.50675e-12</wgt>
  <wgt id="830">2.15167e-12</wgt>
  <wgt id="831">6.44162e-12</wgt>
  <wgt id="832">9.84965e-12</wgt>
  <wgt id="833">4.14419e-12</wgt>
  <wgt id="834">9.68984e-12</wgt>
  <wgt id="835">3.58769e-12</wgt>
  <wgt id="836">4.24896e-12</wgt>
  <wgt id="837">6.38492e-12</wgt>
  <wgt id="838">4.128e-12</wgt>
  <wgt id="839">6.4462e-12</wgt>
  <wgt id="840">4.48011e-12</wgt>
  <wgt id="841">7.72882e-12</wgt>
  <wgt id="842">5.43327e-12</wgt>
  <wgt id="843">5.84477e-12</wgt>
  <wgt id="844">6.05531e-12</wgt>
  <wgt id="845">1.00271e-11</wgt>
  <wgt id="846">5.30712e-12</wgt>
  <wgt id="847">5.8405e-12</wgt>
  <wgt id="848">2.98824e-12</wgt>
  <wgt id="849">5.94442e-12</wgt>
  <wgt id="850">8.50306e-12</wgt>
  <wgt id="851">6.46453e-12</wgt>
  <wgt id="852">2.41498e-12</wgt>
  <wgt id="853">6.79321e-12</wgt>
  <wgt id="854">7.74153e-12</wgt>
  <wgt id="855">6.67519e-12</wgt>
  <wgt id="856">2.10877e-12</wgt>
  <wgt id="857">4.51769e-12</wgt>
  <wgt id="858">5.05299e-12</wgt>
  <wgt id="859">5.16895e-12</wgt>
  <wgt id="860">7.0725e-12</wgt>
  <wgt id="861">4.3148e-12</wgt>
  <wgt id="862">5.50043e-12</wgt>
  <wgt id="863">6.3226e-12</wgt>
  <wgt id="864">5.51671e-12</wgt>
  <wgt id="865">8.87545e-12</wgt>
  <wgt id="866">9.90768e-12</wgt>
  <wgt id="867">5.41749e-12</wgt>
  <wgt id="868">5.61251e-12</wgt>
  <wgt id="869">2.78628e-12</wgt>
  <wgt id="870">3.4964e-12</wgt>
  <wgt id="871">3.60297e-12</wgt>
  <wgt id="872">8.01167e-12</wgt>
  <wgt id="873">4.15175e-12</wgt>
  <wgt id="874">6.03302e-12</wgt>
  <wgt id="875">3.98663e-12</wgt>
  <wgt id="876">7.59544e-12</wgt>
  <wgt id="877">6.15364e-12</wgt>
  <wgt id="878">4.25954e-12</wgt>
  <wgt id="879">8.21383e-12</wgt>
  <wgt id="880">8.31122e-12</wgt>
  <wgt id="881">9.02609e-12</wgt>
  <wgt id="882">8.49519e-12</wgt>
  <wgt id="883">8.311e-12</wgt>
  <wgt id="884">7.99753e-12</wgt>
  <wgt id="885">8.68167e-12</wgt>
  <wgt id="886">7.50369e-12</wgt>
  <wgt id="887">8.65677e-12</wgt>
  <wgt id="888">8.24713e-12</wgt>
  <wgt id="889">8.36994e-12</wgt>
  <wgt id="890">8.40491e-12</wgt>
  <wgt id="891">7.97401e-12</wgt>
  <wgt id="892">8.58503e-12</wgt>
  <wgt id="893">8.38288e-12</wgt>
  <wgt id="894">8.43087e-12</wgt>
  <wgt id="895">8.00055e-12</wgt>
  <wgt id="896">1.09406e-11</wgt>
  <wgt id="897">9.06829e-12</wgt>
  <wgt id="898">7.68803e-12</wgt>
  <wgt id="899">7.89561e-12</wgt>
  <wgt id="900">7.40851e-12</wgt>
  <wgt id="901">6.7081e-12</wgt>
  <wgt id="902">6.94749e-12</wgt>
  <wgt id="903">7.27634e-12</wgt>
  <wgt id="904">8.19485e-12</wgt>
  <wgt id="905">7.91326e-12</wgt>
  <wgt id="906">1.02204e-11</wgt>
  <wgt id="907">9.24972e-12</wgt>
  <wgt id="908">9.27565e-12</wgt>
  <wgt id="909">7.69401e-12</wgt>
  <wgt id="910">7.67346e-12</wgt>
  <wgt id="911">7.7913e-12</wgt>
  <wgt id="912">7.91745e-12</wgt>
  <wgt id="913">6.85824e-12</wgt>
  <wgt id="914">8.78574e-12</wgt>
  <wgt id="915">7.66555e-12</wgt>
  <wgt id="916">8.86598e-12</wgt>
  <wgt id="917">7.32139e-12</wgt>
  <wgt id="918">7.82913e-12</wgt>
  <wgt id="919">7.88305e-12</wgt>
  <wgt id="920">7.11027e-12</wgt>
  <wgt id="921">8.43966e-12</wgt>
  <wgt id="922">7.50146e-12</wgt>
  <wgt id="923">8.45966e-12</wgt>
  <wgt id="924">6.96048e-12</wgt>
  <wgt id="925">6.42475e-12</wgt>
  <wgt id="926">9.27505e-12</wgt>
  <wgt id="927">8.93903e-12</wgt>
  <wgt id="928">8.56266e-12</wgt>
  <wgt id="929">8.14282e-12</wgt>
  <wgt id="930">8.26067e-12</wgt>
  <wgt id="931">8.03932e-12</wgt>
  <wgt id="932">7.50993e-12</wgt>
  <wgt id="933">9.13425e-12</wgt>
  <wgt id="934">8.06224e-12</wgt>
  <wgt id="935">9.58377e-12</wgt>
  <wgt id="936">7.60672e-12</wgt>
  <wgt id="937">8.48374e-12</wgt>
  <wgt id="938">8.23834e-12</wgt>
  <wgt id="939">7.5733e-12</wgt>
  <wgt id="940">7.56677e-12</wgt>
  <wgt id="941">7.81155e-12</wgt>
  <wgt id="942">8.7434e-12</wgt>
  <wgt id="943">9.74127e-12</wgt>
  <wgt id="944">8.66407e-12</wgt>
  <wgt id="945">7.83187e-12</wgt>
  <wgt id="946">7.5023e-12</wgt>
  <wgt id="947">8.04319e-12</wgt>
  <wgt id="948">8.98777e-12</wgt>
  <wgt id="949">9.2491e-12</wgt>
  <wgt id="950">6.76962e-12</wgt>
  <wgt id="951">7.92759e-12</wgt>
  <wgt id="952">8.50624e-12</wgt>
  <wgt id="953">8.93634e-12</wgt>
  <wgt id="954">8.25037e-12</wgt>
  <wgt id="955">7.37249e-12</wgt>
  <wgt id="956">7.33178e-12</wgt>
  <wgt id="957">8.62426e-12</wgt>
  <wgt id="958">7.99822e-12</wgt>
  <wgt id="959">7.94362e-12</wgt>
  <wgt id="960">7.05188e-12</wgt>
  <wgt id="961">7.94352e-12</wgt>
  <wgt id="962">9.1026e-12</wgt>
  <wgt id="963">7.8149e-12</wgt>
  <wgt id="964">9.13029e-12</wgt>
  <wgt id="965">9.1731e-12</wgt>
  <wgt id="966">8.42895e-12</wgt>
  <wgt id="967">8.79837e-12</wgt>
  <wgt id="968">8.3891e-12</wgt>
  <wgt id="969">8.33266e-12</wgt>
  <wgt id="970">8.38216e-12</wgt>
  <wgt id="971">7.43503e-12</wgt>
  <wgt id="972">8.6365e-12</wgt>
  <wgt id="973">7.68265e-12</wgt>
  <wgt id="974">1.00798e-11</wgt>
  <wgt id="975">8.01918e-12</wgt>
  <wgt id="976">8.25728e-12</wgt>
  <wgt id="977">6.46642e-12</wgt>
  <wgt id="978">8.62165e-12</wgt>
  <wgt id="979">9.52261e-12</wgt>
  <wgt id="980">8.15154e-12</wgt>
  <wgt id="981">8.40832e-12</wgt>
  <wgt id="982">7.96061e-12</wgt>
</rwgt>
</event>
<event>
 5   1  0.5790000E-11  0.2392977E+04  0.7818608E-02  0.7679854E-01
       21   -1    0    0  502  501  0.00000000000E+00  0.00000000000E+00  0.20149078649E+04  0.20149078649E+04  0.00000000000E+00 0.  1.
       21   -1    0    0  501  502 -0.00000000000E+00 -0.00000000000E+00 -0.71049608259E+03  0.71049608259E+03  0.00000000000E+00 0. -1.
       39    2    1    2    0    0  0.00000000000E+00  0.00000000000E+00  0.13044117823E+04  0.27254039475E+04  0.23929765104E+04 0.  0.
       25    1    3    3    0    0  0.78680047589E+03 -0.86051843026E+03  0.38169863830E+03  0.12332338822E+04  0.12500000000E+03 0.  0.
       25    1    3    3    0    0 -0.78680047589E+03  0.86051843026E+03  0.92271314400E+03  0.14921700653E+04  0.12500000000E+03 0.  0.
<mgrwt>
<rscale>  0 0.23929765E+04</rscale>
<asrwt>0</asrwt>
<pdfrwt beam="1">  1       21 0.30998582E+00 0.23929765E+04</pdfrwt>
<pdfrwt beam="2">  1       21 0.10930709E+00 0.23929765E+04</pdfrwt>
<totfact> 0.66665208E+00</totfact>
</mgrwt>
<rwgt>
  <wgt id="1">5.79e-12</wgt>
  <wgt id="2">5.00035e-12</wgt>
  <wgt id="3">6.77877e-12</wgt>
  <wgt id="4">5.79e-12</wgt>
  <wgt id="5">5.00035e-12</wgt>
  <wgt id="6">6.77877e-12</wgt>
  <wgt id="7">5.79e-12</wgt>
  <wgt id="8">5.00035e-12</wgt>
  <wgt id="9">6.77877e-12</wgt>
  <wgt id="10">6.09094e-12</wgt>
  <wgt id="11">6.0883e-12</wgt>
  <wgt id="12">6.07734e-12</wgt>
  <wgt id="13">6.07691e-12</wgt>
  <wgt id="14">6.11162e-12</wgt>
  <wgt id="15">6.10119e-12</wgt>
  <wgt id="16">6.07777e-12</wgt>
  <wgt id="17">6.12091e-12</wgt>
  <wgt id="18">6.08406e-12</wgt>
  <wgt id="19">6.11361e-12</wgt>
  <wgt id="20">6.08629e-12</wgt>
  <wgt id="21">6.04231e-12</wgt>
  <wgt id="22">6.04839e-12</wgt>
  <wgt id="23">6.00046e-12</wgt>
  <wgt id="24">6.04553e-12</wgt>
  <wgt id="25">6.06737e-12</wgt>
  <wgt id="26">6.10894e-12</wgt>
  <wgt id="27">6.07997e-12</wgt>
  <wgt id="28">6.05176e-12</wgt>
  <wgt id="29">6.09336e-12</wgt>
  <wgt id="30">6.04323e-12</wgt>
  <wgt id="31">6.11874e-12</wgt>
  <wgt id="32">6.04866e-12</wgt>
  <wgt id="33">6.09992e-12</wgt>
  <wgt id="34">6.05239e-12</wgt>
  <wgt id="35">6.05349e-12</wgt>
  <wgt id="36">6.1194e-12</wgt>
  <wgt id="37">6.07037e-12</wgt>
  <wgt id="38">6.06591e-12</wgt>
  <wgt id="39">6.19644e-12</wgt>
  <wgt id="40">6.09778e-12</wgt>
  <wgt id="41">6.08651e-12</wgt>
  <wgt id="42">6.10493e-12</wgt>
  <wgt id="43">6.09488e-12</wgt>
  <wgt id="44">6.11437e-12</wgt>
  <wgt id="45">6.099e-12</wgt>
  <wgt id="46">6.06978e-12</wgt>
  <wgt id="47">6.13749e-12</wgt>
  <wgt id="48">6.12014e-12</wgt>
  <wgt id="49">6.06203e-12</wgt>
  <wgt id="50">6.04894e-12</wgt>
  <wgt id="51">6.05907e-12</wgt>
  <wgt id="52">6.10389e-12</wgt>
  <wgt id="53">6.13238e-12</wgt>
  <wgt id="54">6.11593e-12</wgt>
  <wgt id="55">6.08909e-12</wgt>
  <wgt id="56">6.07377e-12</wgt>
  <wgt id="57">6.06422e-12</wgt>
  <wgt id="58">6.08333e-12</wgt>
  <wgt id="59">6.09664e-12</wgt>
  <wgt id="60">6.05255e-12</wgt>
  <wgt id="61">6.05469e-12</wgt>
  <wgt id="62">6.07439e-12</wgt>
  <wgt id="63">6.08458e-12</wgt>
  <wgt id="64">6.08685e-12</wgt>
  <wgt id="65">6.07327e-12</wgt>
  <wgt id="66">6.09356e-12</wgt>
  <wgt id="67">6.07574e-12</wgt>
  <wgt id="68">6.08942e-12</wgt>
  <wgt id="69">6.08185e-12</wgt>
  <wgt id="70">6.07805e-12</wgt>
  <wgt id="71">6.08551e-12</wgt>
  <wgt id="72">6.05652e-12</wgt>
  <wgt id="73">6.11512e-12</wgt>
  <wgt id="74">6.10945e-12</wgt>
  <wgt id="75">6.09116e-12</wgt>
  <wgt id="76">6.12799e-12</wgt>
  <wgt id="77">6.08073e-12</wgt>
  <wgt id="78">6.08527e-12</wgt>
  <wgt id="79">6.1075e-12</wgt>
  <wgt id="80">6.04346e-12</wgt>
  <wgt id="81">6.0902e-12</wgt>
  <wgt id="82">6.09591e-12</wgt>
  <wgt id="83">6.05545e-12</wgt>
  <wgt id="84">6.07461e-12</wgt>
  <wgt id="85">6.06867e-12</wgt>
  <wgt id="86">6.113e-12</wgt>
  <wgt id="87">6.03876e-12</wgt>
  <wgt id="88">6.10562e-12</wgt>
  <wgt id="89">6.0997e-12</wgt>
  <wgt id="90">6.11216e-12</wgt>
  <wgt id="91">6.09836e-12</wgt>
  <wgt id="92">6.10677e-12</wgt>
  <wgt id="93">6.09904e-12</wgt>
  <wgt id="94">6.07672e-12</wgt>
  <wgt id="95">6.11193e-12</wgt>
  <wgt id="96">6.10446e-12</wgt>
  <wgt id="97">6.06874e-12</wgt>
  <wgt id="98">6.09067e-12</wgt>
  <wgt id="99">6.07942e-12</wgt>
  <wgt id="100">6.10574e-12</wgt>
  <wgt id="101">6.0861e-12</wgt>
  <wgt id="102">6.08223e-12</wgt>
  <wgt id="103">6.11152e-12</wgt>
  <wgt id="104">6.07982e-12</wgt>
  <wgt id="105">6.10304e-12</wgt>
  <wgt id="106">6.07602e-12</wgt>
  <wgt id="107">6.12481e-12</wgt>
  <wgt id="108">6.07965e-12</wgt>
  <wgt id="109">6.09757e-12</wgt>
  <wgt id="110">6.08803e-12</wgt>
  <wgt id="111">6.11042e-12</wgt>
  <wgt id="112">6.15777e-12</wgt>
  <wgt id="113">8.70544e-12</wgt>
  <wgt id="114">8.25727e-12</wgt>
  <wgt id="115">8.10988e-12</wgt>
  <wgt id="116">1.13505e-11</wgt>
  <wgt id="117">6.75947e-12</wgt>
  <wgt id="118">6.78525e-12</wgt>
  <wgt id="119">6.7448e-12</wgt>
  <wgt id="120">6.75972e-12</wgt>
  <wgt id="121">6.75932e-12</wgt>
  <wgt id="122">6.74872e-12</wgt>
  <wgt id="123">6.77442e-12</wgt>
  <wgt id="124">6.75047e-12</wgt>
  <wgt id="125">6.76532e-12</wgt>
  <wgt id="126">6.77034e-12</wgt>
  <wgt id="127">6.75223e-12</wgt>
  <wgt id="128">6.78019e-12</wgt>
  <wgt id="129">6.73885e-12</wgt>
  <wgt id="130">6.7945e-12</wgt>
  <wgt id="131">6.72326e-12</wgt>
  <wgt id="132">6.57217e-12</wgt>
  <wgt id="133">6.98272e-12</wgt>
  <wgt id="134">6.68539e-12</wgt>
  <wgt id="135">6.81762e-12</wgt>
  <wgt id="136">6.86166e-12</wgt>
  <wgt id="137">6.63661e-12</wgt>
  <wgt id="138">7.06343e-12</wgt>
  <wgt id="139">6.47053e-12</wgt>
  <wgt id="140">6.72491e-12</wgt>
  <wgt id="141">6.78582e-12</wgt>
  <wgt id="142">6.75825e-12</wgt>
  <wgt id="143">6.77884e-12</wgt>
  <wgt id="144">6.48899e-12</wgt>
  <wgt id="145">7.02109e-12</wgt>
  <wgt id="146">6.84626e-12</wgt>
  <wgt id="147">6.68883e-12</wgt>
  <wgt id="148">6.78415e-12</wgt>
  <wgt id="149">6.75771e-12</wgt>
  <wgt id="150">6.81748e-12</wgt>
  <wgt id="151">6.73236e-12</wgt>
  <wgt id="152">6.76178e-12</wgt>
  <wgt id="153">6.75868e-12</wgt>
  <wgt id="154">6.78171e-12</wgt>
  <wgt id="155">6.72247e-12</wgt>
  <wgt id="156">6.97677e-12</wgt>
  <wgt id="157">6.55871e-12</wgt>
  <wgt id="158">8.10488e-12</wgt>
  <wgt id="159">8.13932e-12</wgt>
  <wgt id="160">8.07712e-12</wgt>
  <wgt id="161">8.08355e-12</wgt>
  <wgt id="162">8.1286e-12</wgt>
  <wgt id="163">8.0954e-12</wgt>
  <wgt id="164">8.11883e-12</wgt>
  <wgt id="165">8.10796e-12</wgt>
  <wgt id="166">8.10243e-12</wgt>
  <wgt id="167">8.09915e-12</wgt>
  <wgt id="168">8.1127e-12</wgt>
  <wgt id="169">8.07165e-12</wgt>
  <wgt id="170">8.12551e-12</wgt>
  <wgt id="171">8.09775e-12</wgt>
  <wgt id="172">8.11483e-12</wgt>
  <wgt id="173">8.09253e-12</wgt>
  <wgt id="174">8.10893e-12</wgt>
  <wgt id="175">7.86579e-12</wgt>
  <wgt id="176">8.41832e-12</wgt>
  <wgt id="177">8.14504e-12</wgt>
  <wgt id="178">8.0683e-12</wgt>
  <wgt id="179">8.51114e-12</wgt>
  <wgt id="180">7.47705e-12</wgt>
  <wgt id="181">7.83567e-12</wgt>
  <wgt id="182">8.28416e-12</wgt>
  <wgt id="183">7.94148e-12</wgt>
  <wgt id="184">8.186e-12</wgt>
  <wgt id="185">8.01803e-12</wgt>
  <wgt id="186">8.21022e-12</wgt>
  <wgt id="187">8.0163e-12</wgt>
  <wgt id="188">8.26164e-12</wgt>
  <wgt id="189">8.04214e-12</wgt>
  <wgt id="190">8.13024e-12</wgt>
  <wgt id="191">8.13296e-12</wgt>
  <wgt id="192">8.08829e-12</wgt>
  <wgt id="193">8.24005e-12</wgt>
  <wgt id="194">8.03707e-12</wgt>
  <wgt id="195">7.81962e-12</wgt>
  <wgt id="196">8.57522e-12</wgt>
  <wgt id="197">8.14888e-12</wgt>
  <wgt id="198">8.0943e-12</wgt>
  <wgt id="199">8.10488e-12</wgt>
  <wgt id="200">8.18304e-12</wgt>
  <wgt id="201">8.15613e-12</wgt>
  <wgt id="202">8.13007e-12</wgt>
  <wgt id="203">8.09225e-12</wgt>
  <wgt id="204">8.07334e-12</wgt>
  <wgt id="205">8.05794e-12</wgt>
  <wgt id="206">7.90408e-12</wgt>
  <wgt id="207">7.95156e-12</wgt>
  <wgt id="208">7.85718e-12</wgt>
  <wgt id="209">7.92924e-12</wgt>
  <wgt id="210">7.88571e-12</wgt>
  <wgt id="211">7.90107e-12</wgt>
  <wgt id="212">7.90644e-12</wgt>
  <wgt id="213">7.90339e-12</wgt>
  <wgt id="214">7.90514e-12</wgt>
  <wgt id="215">7.91029e-12</wgt>
  <wgt id="216">7.89964e-12</wgt>
  <wgt id="217">7.92379e-12</wgt>
  <wgt id="218">7.88894e-12</wgt>
  <wgt id="219">7.89553e-12</wgt>
  <wgt id="220">7.90925e-12</wgt>
  <wgt id="221">7.90562e-12</wgt>
  <wgt id="222">7.89882e-12</wgt>
  <wgt id="223">7.45238e-12</wgt>
  <wgt id="224">8.31827e-12</wgt>
  <wgt id="225">7.80427e-12</wgt>
  <wgt id="226">8.03081e-12</wgt>
  <wgt id="227">7.82679e-12</wgt>
  <wgt id="228">7.93796e-12</wgt>
  <wgt id="229">7.7893e-12</wgt>
  <wgt id="230">7.96114e-12</wgt>
  <wgt id="231">8.16856e-12</wgt>
  <wgt id="232">7.68788e-12</wgt>
  <wgt id="233">7.85517e-12</wgt>
  <wgt id="234">7.98543e-12</wgt>
  <wgt id="235">7.60355e-12</wgt>
  <wgt id="236">8.15242e-12</wgt>
  <wgt id="237">7.72602e-12</wgt>
  <wgt id="238">7.96351e-12</wgt>
  <wgt id="239">7.83163e-12</wgt>
  <wgt id="240">8.03398e-12</wgt>
  <wgt id="241">7.80893e-12</wgt>
  <wgt id="242">8.01734e-12</wgt>
  <wgt id="243">8.0402e-12</wgt>
  <wgt id="244">7.91153e-12</wgt>
  <wgt id="245">7.90052e-12</wgt>
  <wgt id="246">7.95121e-12</wgt>
  <wgt id="247">7.90408e-12</wgt>
  <wgt id="248">7.98704e-12</wgt>
  <wgt id="249">7.95809e-12</wgt>
  <wgt id="250">7.92823e-12</wgt>
  <wgt id="251">7.88741e-12</wgt>
  <wgt id="252">7.8667e-12</wgt>
  <wgt id="253">7.8524e-12</wgt>
  <wgt id="254">7.64513e-12</wgt>
  <wgt id="255">7.65212e-12</wgt>
  <wgt id="256">7.63763e-12</wgt>
  <wgt id="257">7.65105e-12</wgt>
  <wgt id="258">7.64083e-12</wgt>
  <wgt id="259">7.69653e-12</wgt>
  <wgt id="260">7.59554e-12</wgt>
  <wgt id="261">7.65811e-12</wgt>
  <wgt id="262">7.62983e-12</wgt>
  <wgt id="263">7.63973e-12</wgt>
  <wgt id="264">7.65155e-12</wgt>
  <wgt id="265">7.63557e-12</wgt>
  <wgt id="266">7.66442e-12</wgt>
  <wgt id="267">7.64776e-12</wgt>
  <wgt id="268">7.64136e-12</wgt>
  <wgt id="269">7.66994e-12</wgt>
  <wgt id="270">7.62834e-12</wgt>
  <wgt id="271">7.62588e-12</wgt>
  <wgt id="272">7.66661e-12</wgt>
  <wgt id="273">7.62357e-12</wgt>
  <wgt id="274">7.66161e-12</wgt>
  <wgt id="275">7.60076e-12</wgt>
  <wgt id="276">7.69109e-12</wgt>
  <wgt id="277">7.60018e-12</wgt>
  <wgt id="278">7.68621e-12</wgt>
  <wgt id="279">7.49809e-12</wgt>
  <wgt id="280">7.83041e-12</wgt>
  <wgt id="281">7.6085e-12</wgt>
  <wgt id="282">7.65403e-12</wgt>
  <wgt id="283">7.39634e-12</wgt>
  <wgt id="284">7.95533e-12</wgt>
  <wgt id="285">7.23526e-12</wgt>
  <wgt id="286">7.99087e-12</wgt>
  <wgt id="287">7.67209e-12</wgt>
  <wgt id="288">7.61068e-12</wgt>
  <wgt id="289">7.70666e-12</wgt>
  <wgt id="290">7.50828e-12</wgt>
  <wgt id="291">7.61649e-12</wgt>
  <wgt id="292">7.64678e-12</wgt>
  <wgt id="293">7.57823e-12</wgt>
  <wgt id="294">7.71168e-12</wgt>
  <wgt id="295">7.48343e-12</wgt>
  <wgt id="296">7.8434e-12</wgt>
  <wgt id="297">7.62878e-12</wgt>
  <wgt id="298">7.68364e-12</wgt>
  <wgt id="299">7.61875e-12</wgt>
  <wgt id="300">7.71532e-12</wgt>
  <wgt id="301">7.49268e-12</wgt>
  <wgt id="302">7.99894e-12</wgt>
  <wgt id="303">7.56272e-12</wgt>
  <wgt id="304">7.69142e-12</wgt>
  <wgt id="305">7.59211e-12</wgt>
  <wgt id="306">7.59938e-12</wgt>
  <wgt id="307">7.58434e-12</wgt>
  <wgt id="308">7.59854e-12</wgt>
  <wgt id="309">7.58777e-12</wgt>
  <wgt id="310">7.64463e-12</wgt>
  <wgt id="311">7.54354e-12</wgt>
  <wgt id="312">7.60365e-12</wgt>
  <wgt id="313">7.57984e-12</wgt>
  <wgt id="314">7.58644e-12</wgt>
  <wgt id="315">7.59744e-12</wgt>
  <wgt id="316">7.58248e-12</wgt>
  <wgt id="317">7.61289e-12</wgt>
  <wgt id="318">7.5979e-12</wgt>
  <wgt id="319">7.58187e-12</wgt>
  <wgt id="320">7.61864e-12</wgt>
  <wgt id="321">7.57728e-12</wgt>
  <wgt id="322">7.5705e-12</wgt>
  <wgt id="323">7.61717e-12</wgt>
  <wgt id="324">7.57558e-12</wgt>
  <wgt id="325">7.60649e-12</wgt>
  <wgt id="326">7.55576e-12</wgt>
  <wgt id="327">7.63869e-12</wgt>
  <wgt id="328">7.55238e-12</wgt>
  <wgt id="329">7.61427e-12</wgt>
  <wgt id="330">7.81527e-12</wgt>
  <wgt id="331">7.37995e-12</wgt>
  <wgt id="332">7.56162e-12</wgt>
  <wgt id="333">7.5975e-12</wgt>
  <wgt id="334">7.40178e-12</wgt>
  <wgt id="335">7.83071e-12</wgt>
  <wgt id="336">7.30046e-12</wgt>
  <wgt id="337">7.95307e-12</wgt>
  <wgt id="338">7.68592e-12</wgt>
  <wgt id="339">7.50562e-12</wgt>
  <wgt id="340">7.64804e-12</wgt>
  <wgt id="341">7.45359e-12</wgt>
  <wgt id="342">7.57149e-12</wgt>
  <wgt id="343">7.57881e-12</wgt>
  <wgt id="344">7.53331e-12</wgt>
  <wgt id="345">7.66049e-12</wgt>
  <wgt id="346">7.42634e-12</wgt>
  <wgt id="347">7.78248e-12</wgt>
  <wgt id="348">7.5772e-12</wgt>
  <wgt id="349">7.62648e-12</wgt>
  <wgt id="350">7.55945e-12</wgt>
  <wgt id="351">7.67503e-12</wgt>
  <wgt id="352">7.43484e-12</wgt>
  <wgt id="353">7.94148e-12</wgt>
  <wgt id="354">7.4736e-12</wgt>
  <wgt id="355">7.66273e-12</wgt>
  <wgt id="356">7.64513e-12</wgt>
  <wgt id="357">7.60212e-12</wgt>
  <wgt id="358">7.59211e-12</wgt>
  <wgt id="359">7.64865e-12</wgt>
  <wgt id="360">7.76575e-12</wgt>
  <wgt id="361">7.68295e-12</wgt>
  <wgt id="362">7.83626e-12</wgt>
  <wgt id="363">7.81594e-12</wgt>
  <wgt id="364">7.77879e-12</wgt>
  <wgt id="365">7.7491e-12</wgt>
  <wgt id="366">7.71828e-12</wgt>
  <wgt id="367">7.65917e-12</wgt>
  <wgt id="368">7.62244e-12</wgt>
  <wgt id="369">7.58283e-12</wgt>
  <wgt id="370">7.68295e-12</wgt>
  <wgt id="371">7.71573e-12</wgt>
  <wgt id="372">7.69735e-12</wgt>
  <wgt id="373">7.67132e-12</wgt>
  <wgt id="374">7.67894e-12</wgt>
  <wgt id="375">8.68332e-12</wgt>
  <wgt id="376">8.68419e-12</wgt>
  <wgt id="377">8.68227e-12</wgt>
  <wgt id="378">8.71625e-12</wgt>
  <wgt id="379">8.65075e-12</wgt>
  <wgt id="380">8.70799e-12</wgt>
  <wgt id="381">8.67354e-12</wgt>
  <wgt id="382">8.72598e-12</wgt>
  <wgt id="383">8.64121e-12</wgt>
  <wgt id="384">8.68903e-12</wgt>
  <wgt id="385">8.678e-12</wgt>
  <wgt id="386">8.71422e-12</wgt>
  <wgt id="387">8.67011e-12</wgt>
  <wgt id="388">8.67552e-12</wgt>
  <wgt id="389">8.69311e-12</wgt>
  <wgt id="390">8.70444e-12</wgt>
  <wgt id="391">8.66091e-12</wgt>
  <wgt id="392">8.60505e-12</wgt>
  <wgt id="393">8.72779e-12</wgt>
  <wgt id="394">8.69083e-12</wgt>
  <wgt id="395">8.67281e-12</wgt>
  <wgt id="396">8.69775e-12</wgt>
  <wgt id="397">8.67305e-12</wgt>
  <wgt id="398">8.66169e-12</wgt>
  <wgt id="399">8.70437e-12</wgt>
  <wgt id="400">8.66907e-12</wgt>
  <wgt id="401">8.71546e-12</wgt>
  <wgt id="402">8.60261e-12</wgt>
  <wgt id="403">8.73188e-12</wgt>
  <wgt id="404">8.93132e-12</wgt>
  <wgt id="405">8.09371e-12</wgt>
  <wgt id="406">8.50541e-12</wgt>
  <wgt id="407">9.07799e-12</wgt>
  <wgt id="408">8.77639e-12</wgt>
  <wgt id="409">8.51126e-12</wgt>
  <wgt id="410">8.39456e-12</wgt>
  <wgt id="411">8.82202e-12</wgt>
  <wgt id="412">8.66348e-12</wgt>
  <wgt id="413">8.71312e-12</wgt>
  <wgt id="414">8.56816e-12</wgt>
  <wgt id="415">8.77298e-12</wgt>
  <wgt id="416">8.97621e-12</wgt>
  <wgt id="417">8.2816e-12</wgt>
  <wgt id="418">8.7002e-12</wgt>
  <wgt id="419">8.59297e-12</wgt>
  <wgt id="420">8.88975e-12</wgt>
  <wgt id="421">8.54848e-12</wgt>
  <wgt id="422">8.63493e-12</wgt>
  <wgt id="423">8.70636e-12</wgt>
  <wgt id="424">8.93674e-12</wgt>
  <wgt id="425">8.5132e-12</wgt>
  <wgt id="426">8.68332e-12</wgt>
  <wgt id="427">8.52343e-12</wgt>
  <wgt id="428">9.0601e-12</wgt>
  <wgt id="429">8.79829e-12</wgt>
  <wgt id="430">9.08671e-12</wgt>
  <wgt id="431">9.02808e-12</wgt>
  <wgt id="432">8.97474e-12</wgt>
  <wgt id="433">8.92248e-12</wgt>
  <wgt id="434">8.85609e-12</wgt>
  <wgt id="435">8.72586e-12</wgt>
  <wgt id="436">8.66001e-12</wgt>
  <wgt id="437">8.59607e-12</wgt>
  <wgt id="438">8.79829e-12</wgt>
  <wgt id="439">8.82559e-12</wgt>
  <wgt id="440">8.80874e-12</wgt>
  <wgt id="441">8.79087e-12</wgt>
  <wgt id="442">8.78502e-12</wgt>
  <wgt id="443">8.02785e-12</wgt>
  <wgt id="444">8.10757e-12</wgt>
  <wgt id="445">8.08908e-12</wgt>
  <wgt id="446">7.96904e-12</wgt>
  <wgt id="447">8.02437e-12</wgt>
  <wgt id="448">7.82348e-12</wgt>
  <wgt id="449">8.19207e-12</wgt>
  <wgt id="450">8.10934e-12</wgt>
  <wgt id="451">8.00575e-12</wgt>
  <wgt id="452">8.21238e-12</wgt>
  <wgt id="453">8.12772e-12</wgt>
  <wgt id="454">7.61737e-12</wgt>
  <wgt id="455">8.08568e-12</wgt>
  <wgt id="456">8.14435e-12</wgt>
  <wgt id="457">8.05734e-12</wgt>
  <wgt id="458">8.16532e-12</wgt>
  <wgt id="459">8.1003e-12</wgt>
  <wgt id="460">8.17179e-12</wgt>
  <wgt id="461">7.83399e-12</wgt>
  <wgt id="462">7.96502e-12</wgt>
  <wgt id="463">7.90139e-12</wgt>
  <wgt id="464">7.98543e-12</wgt>
  <wgt id="465">8.11883e-12</wgt>
  <wgt id="466">7.84688e-12</wgt>
  <wgt id="467">7.95839e-12</wgt>
  <wgt id="468">8.01736e-12</wgt>
  <wgt id="469">8.00529e-12</wgt>
  <wgt id="470">7.90726e-12</wgt>
  <wgt id="471">7.92791e-12</wgt>
  <wgt id="472">8.08268e-12</wgt>
  <wgt id="473">7.75061e-12</wgt>
  <wgt id="474">5.79e-12</wgt>
  <wgt id="475">5.81683e-12</wgt>
  <wgt id="476">5.74736e-12</wgt>
  <wgt id="477">5.86594e-12</wgt>
  <wgt id="478">5.85829e-12</wgt>
  <wgt id="479">5.53077e-12</wgt>
  <wgt id="480">6.08334e-12</wgt>
  <wgt id="481">5.81351e-12</wgt>
  <wgt id="482">5.77206e-12</wgt>
  <wgt id="483">5.77319e-12</wgt>
  <wgt id="484">6.04371e-12</wgt>
  <wgt id="485">5.3695e-12</wgt>
  <wgt id="486">6.078e-12</wgt>
  <wgt id="487">5.66552e-12</wgt>
  <wgt id="488">5.859e-12</wgt>
  <wgt id="489">5.25311e-12</wgt>
  <wgt id="490">5.66413e-12</wgt>
  <wgt id="491">5.71821e-12</wgt>
  <wgt id="492">5.68741e-12</wgt>
  <wgt id="493">5.38447e-12</wgt>
  <wgt id="494">5.41616e-12</wgt>
  <wgt id="495">5.80924e-12</wgt>
  <wgt id="496">5.51391e-12</wgt>
  <wgt id="497">5.42763e-12</wgt>
  <wgt id="498">5.9591e-12</wgt>
  <wgt id="499">5.81249e-12</wgt>
  <wgt id="500">5.69097e-12</wgt>
  <wgt id="501">6.03136e-12</wgt>
  <wgt id="502">5.96441e-12</wgt>
  <wgt id="503">5.70372e-12</wgt>
  <wgt id="504">5.97348e-12</wgt>
  <wgt id="505">5.98193e-12</wgt>
  <wgt id="506">5.45021e-12</wgt>
  <wgt id="507">5.72135e-12</wgt>
  <wgt id="508">6.08078e-12</wgt>
  <wgt id="509">5.55119e-12</wgt>
  <wgt id="510">5.86268e-12</wgt>
  <wgt id="511">5.5083e-12</wgt>
  <wgt id="512">6.15002e-12</wgt>
  <wgt id="513">6.0329e-12</wgt>
  <wgt id="514">6.06167e-12</wgt>
  <wgt id="515">5.90815e-12</wgt>
  <wgt id="516">6.34822e-12</wgt>
  <wgt id="517">5.93127e-12</wgt>
  <wgt id="518">5.99396e-12</wgt>
  <wgt id="519">5.55877e-12</wgt>
  <wgt id="520">5.89026e-12</wgt>
  <wgt id="521">5.71288e-12</wgt>
  <wgt id="522">6.03478e-12</wgt>
  <wgt id="523">5.54635e-12</wgt>
  <wgt id="524">5.87749e-12</wgt>
  <wgt id="525">5.73242e-12</wgt>
  <wgt id="526">6.05084e-12</wgt>
  <wgt id="527">5.73834e-12</wgt>
  <wgt id="528">5.78841e-12</wgt>
  <wgt id="529">5.56257e-12</wgt>
  <wgt id="530">6.06149e-12</wgt>
  <wgt id="531">5.56977e-12</wgt>
  <wgt id="532">6.26968e-12</wgt>
  <wgt id="533">5.71289e-12</wgt>
  <wgt id="534">5.60154e-12</wgt>
  <wgt id="535">5.83645e-12</wgt>
  <wgt id="536">5.95695e-12</wgt>
  <wgt id="537">5.54694e-12</wgt>
  <wgt id="538">5.76242e-12</wgt>
  <wgt id="539">5.65327e-12</wgt>
  <wgt id="540">6.08871e-12</wgt>
  <wgt id="541">5.75883e-12</wgt>
  <wgt id="542">5.68088e-12</wgt>
  <wgt id="543">5.61652e-12</wgt>
  <wgt id="544">5.87811e-12</wgt>
  <wgt id="545">5.50992e-12</wgt>
  <wgt id="546">5.38371e-12</wgt>
  <wgt id="547">5.59589e-12</wgt>
  <wgt id="548">5.57788e-12</wgt>
  <wgt id="549">5.6758e-12</wgt>
  <wgt id="550">5.65183e-12</wgt>
  <wgt id="551">5.82759e-12</wgt>
  <wgt id="552">5.36258e-12</wgt>
  <wgt id="553">5.48587e-12</wgt>
  <wgt id="554">6.11254e-12</wgt>
  <wgt id="555">5.93589e-12</wgt>
  <wgt id="556">5.66413e-12</wgt>
  <wgt id="557">5.92713e-12</wgt>
  <wgt id="558">5.71285e-12</wgt>
  <wgt id="559">5.81388e-12</wgt>
  <wgt id="560">6.4142e-12</wgt>
  <wgt id="561">5.89436e-12</wgt>
  <wgt id="562">6.00025e-12</wgt>
  <wgt id="563">6.31589e-12</wgt>
  <wgt id="564">6.09649e-12</wgt>
  <wgt id="565">5.9197e-12</wgt>
  <wgt id="566">5.65906e-12</wgt>
  <wgt id="567">5.77629e-12</wgt>
  <wgt id="568">5.61132e-12</wgt>
  <wgt id="569">5.83848e-12</wgt>
  <wgt id="570">5.70689e-12</wgt>
  <wgt id="571">6.42214e-12</wgt>
  <wgt id="572">5.60721e-12</wgt>
  <wgt id="573">5.61445e-12</wgt>
  <wgt id="574">5.64284e-12</wgt>
  <wgt id="575">6.40909e-12</wgt>
  <wgt id="576">6.90511e-12</wgt>
  <wgt id="577">6.68516e-12</wgt>
  <wgt id="578">6.52293e-12</wgt>
  <wgt id="579">6.65353e-12</wgt>
  <wgt id="580">6.80685e-12</wgt>
  <wgt id="581">7.05772e-12</wgt>
  <wgt id="582">6.79387e-12</wgt>
  <wgt id="583">6.52189e-12</wgt>
  <wgt id="584">6.3456e-12</wgt>
  <wgt id="585">5.98937e-12</wgt>
  <wgt id="586">6.04903e-12</wgt>
  <wgt id="587">6.52896e-12</wgt>
  <wgt id="588">6.91428e-12</wgt>
  <wgt id="589">6.94998e-12</wgt>
  <wgt id="590">6.36689e-12</wgt>
  <wgt id="591">6.59852e-12</wgt>
  <wgt id="592">5.96847e-12</wgt>
  <wgt id="593">6.23381e-12</wgt>
  <wgt id="594">6.30782e-12</wgt>
  <wgt id="595">6.68473e-12</wgt>
  <wgt id="596">7.452e-12</wgt>
  <wgt id="597">6.47106e-12</wgt>
  <wgt id="598">6.46619e-12</wgt>
  <wgt id="599">6.80746e-12</wgt>
  <wgt id="600">6.76902e-12</wgt>
  <wgt id="601">6.14965e-12</wgt>
  <wgt id="602">6.21302e-12</wgt>
  <wgt id="603">6.03338e-12</wgt>
  <wgt id="604">6.56476e-12</wgt>
  <wgt id="605">6.4988e-12</wgt>
  <wgt id="606">6.50781e-12</wgt>
  <wgt id="607">6.65617e-12</wgt>
  <wgt id="608">6.64108e-12</wgt>
  <wgt id="609">6.29858e-12</wgt>
  <wgt id="610">6.13242e-12</wgt>
  <wgt id="611">6.15722e-12</wgt>
  <wgt id="612">6.66073e-12</wgt>
  <wgt id="613">6.13502e-12</wgt>
  <wgt id="614">6.36165e-12</wgt>
  <wgt id="615">6.48575e-12</wgt>
  <wgt id="616">6.22632e-12</wgt>
  <wgt id="617">6.65406e-12</wgt>
  <wgt id="618">7.018e-12</wgt>
  <wgt id="619">6.2814e-12</wgt>
  <wgt id="620">6.62429e-12</wgt>
  <wgt id="621">6.34424e-12</wgt>
  <wgt id="622">6.52896e-12</wgt>
  <wgt id="623">6.45107e-12</wgt>
  <wgt id="624">6.44538e-12</wgt>
  <wgt id="625">6.12549e-12</wgt>
  <wgt id="626">5.76989e-12</wgt>
  <wgt id="627">5.83333e-12</wgt>
  <wgt id="628">6.4025e-12</wgt>
  <wgt id="629">6.48125e-12</wgt>
  <wgt id="630">6.23206e-12</wgt>
  <wgt id="631">6.55791e-12</wgt>
  <wgt id="632">5.8763e-12</wgt>
  <wgt id="633">6.36986e-12</wgt>
  <wgt id="634">6.15368e-12</wgt>
  <wgt id="635">5.92416e-12</wgt>
  <wgt id="636">6.48551e-12</wgt>
  <wgt id="637">6.38742e-12</wgt>
  <wgt id="638">6.11454e-12</wgt>
  <wgt id="639">6.14972e-12</wgt>
  <wgt id="640">6.27091e-12</wgt>
  <wgt id="641">6.69674e-12</wgt>
  <wgt id="642">5.91656e-12</wgt>
  <wgt id="643">6.25395e-12</wgt>
  <wgt id="644">5.75716e-12</wgt>
  <wgt id="645">6.40424e-12</wgt>
  <wgt id="646">5.95221e-12</wgt>
  <wgt id="647">6.46235e-12</wgt>
  <wgt id="648">6.68515e-12</wgt>
  <wgt id="649">6.44436e-12</wgt>
  <wgt id="650">6.12257e-12</wgt>
  <wgt id="651">6.83891e-12</wgt>
  <wgt id="652">6.15888e-12</wgt>
  <wgt id="653">6.15985e-12</wgt>
  <wgt id="654">6.45787e-12</wgt>
  <wgt id="655">6.16388e-12</wgt>
  <wgt id="656">6.42058e-12</wgt>
  <wgt id="657">6.99636e-12</wgt>
  <wgt id="658">6.45038e-12</wgt>
  <wgt id="659">6.13187e-12</wgt>
  <wgt id="660">6.23761e-12</wgt>
  <wgt id="661">6.24708e-12</wgt>
  <wgt id="662">6.30417e-12</wgt>
  <wgt id="663">6.51326e-12</wgt>
  <wgt id="664">6.46722e-12</wgt>
  <wgt id="665">6.34337e-12</wgt>
  <wgt id="666">6.26504e-12</wgt>
  <wgt id="667">6.74994e-12</wgt>
  <wgt id="668">6.33452e-12</wgt>
  <wgt id="669">6.41593e-12</wgt>
  <wgt id="670">6.71293e-12</wgt>
  <wgt id="671">6.46471e-12</wgt>
  <wgt id="672">6.21765e-12</wgt>
  <wgt id="673">6.7752e-12</wgt>
  <wgt id="674">6.21236e-12</wgt>
  <wgt id="675">6.18693e-12</wgt>
  <wgt id="676">8.31876e-12</wgt>
  <wgt id="677">8.40576e-12</wgt>
  <wgt id="678">9.09038e-12</wgt>
  <wgt id="679">8.41529e-12</wgt>
  <wgt id="680">8.36281e-12</wgt>
  <wgt id="681">8.15547e-12</wgt>
  <wgt id="682">8.71754e-12</wgt>
  <wgt id="683">7.72281e-12</wgt>
  <wgt id="684">8.7664e-12</wgt>
  <wgt id="685">8.24653e-12</wgt>
  <wgt id="686">8.41426e-12</wgt>
  <wgt id="687">8.62542e-12</wgt>
  <wgt id="688">8.06145e-12</wgt>
  <wgt id="689">8.74251e-12</wgt>
  <wgt id="690">8.564e-12</wgt>
  <wgt id="691">8.5483e-12</wgt>
  <wgt id="692">8.12302e-12</wgt>
  <wgt id="693">1.09244e-11</wgt>
  <wgt id="694">9.13973e-12</wgt>
  <wgt id="695">7.81302e-12</wgt>
  <wgt id="696">7.94519e-12</wgt>
  <wgt id="697">7.55184e-12</wgt>
  <wgt id="698">6.92218e-12</wgt>
  <wgt id="699">7.05219e-12</wgt>
  <wgt id="700">7.3104e-12</wgt>
  <wgt id="701">8.3161e-12</wgt>
  <wgt id="702">8.01332e-12</wgt>
  <wgt id="703">1.02764e-11</wgt>
  <wgt id="704">9.38053e-12</wgt>
  <wgt id="705">9.30334e-12</wgt>
  <wgt id="706">7.75257e-12</wgt>
  <wgt id="707">7.7982e-12</wgt>
  <wgt id="708">7.98517e-12</wgt>
  <wgt id="709">8.06413e-12</wgt>
  <wgt id="710">7.0541e-12</wgt>
  <wgt id="711">8.77601e-12</wgt>
  <wgt id="712">7.82942e-12</wgt>
  <wgt id="713">8.97656e-12</wgt>
  <wgt id="714">7.55051e-12</wgt>
  <wgt id="715">7.96407e-12</wgt>
  <wgt id="716">8.00275e-12</wgt>
  <wgt id="717">7.29109e-12</wgt>
  <wgt id="718">8.49669e-12</wgt>
  <wgt id="719">7.5535e-12</wgt>
  <wgt id="720">8.42237e-12</wgt>
  <wgt id="721">7.12457e-12</wgt>
  <wgt id="722">6.61555e-12</wgt>
  <wgt id="723">9.32672e-12</wgt>
  <wgt id="724">9.00722e-12</wgt>
  <wgt id="725">8.7205e-12</wgt>
  <wgt id="726">8.28892e-12</wgt>
  <wgt id="727">8.32442e-12</wgt>
  <wgt id="728">8.1259e-12</wgt>
  <wgt id="729">7.6747e-12</wgt>
  <wgt id="730">9.22212e-12</wgt>
  <wgt id="731">8.18352e-12</wgt>
  <wgt id="732">9.66113e-12</wgt>
  <wgt id="733">7.78161e-12</wgt>
  <wgt id="734">8.60588e-12</wgt>
  <wgt id="735">8.33129e-12</wgt>
  <wgt id="736">7.74721e-12</wgt>
  <wgt id="737">7.86131e-12</wgt>
  <wgt id="738">7.90067e-12</wgt>
  <wgt id="739">8.87984e-12</wgt>
  <wgt id="740">9.81091e-12</wgt>
  <wgt id="741">8.50563e-12</wgt>
  <wgt id="742">8.02932e-12</wgt>
  <wgt id="743">7.58737e-12</wgt>
  <wgt id="744">8.156e-12</wgt>
  <wgt id="745">9.07356e-12</wgt>
  <wgt id="746">9.32508e-12</wgt>
  <wgt id="747">6.94869e-12</wgt>
  <wgt id="748">8.03697e-12</wgt>
  <wgt id="749">8.66921e-12</wgt>
  <wgt id="750">8.95422e-12</wgt>
  <wgt id="751">8.40212e-12</wgt>
  <wgt id="752">7.48041e-12</wgt>
  <wgt id="753">7.47531e-12</wgt>
  <wgt id="754">8.69677e-12</wgt>
  <wgt id="755">8.15394e-12</wgt>
  <wgt id="756">8.09816e-12</wgt>
  <wgt id="757">7.22245e-12</wgt>
  <wgt id="758">8.12434e-12</wgt>
  <wgt id="759">9.09322e-12</wgt>
  <wgt id="760">8.02209e-12</wgt>
  <wgt id="761">9.18642e-12</wgt>
  <wgt id="762">9.23249e-12</wgt>
  <wgt id="763">8.47961e-12</wgt>
  <wgt id="764">8.87927e-12</wgt>
  <wgt id="765">8.40932e-12</wgt>
  <wgt id="766">8.41605e-12</wgt>
  <wgt id="767">8.49689e-12</wgt>
  <wgt id="768">7.58124e-12</wgt>
  <wgt id="769">8.78735e-12</wgt>
  <wgt id="770">7.84428e-12</wgt>
  <wgt id="771">1.0236e-11</wgt>
  <wgt id="772">8.068e-12</wgt>
  <wgt id="773">8.33194e-12</wgt>
  <wgt id="774">6.62704e-12</wgt>
  <wgt id="775">8.73054e-12</wgt>
  <wgt id="776">9.53525e-12</wgt>
  <wgt id="777">7.41807e-12</wgt>
  <wgt id="778">5.50301e-12</wgt>
  <wgt id="779">3.48383e-12</wgt>
  <wgt id="780">2.13808e-12</wgt>
  <wgt id="781">6.26992e-12</wgt>
  <wgt id="782">6.67505e-12</wgt>
  <wgt id="783">3.1826e-12</wgt>
  <wgt id="784">3.94263e-12</wgt>
  <wgt id="785">8.16937e-12</wgt>
  <wgt id="786">3.13949e-12</wgt>
  <wgt id="787">7.09406e-12</wgt>
  <wgt id="788">1.27726e-12</wgt>
  <wgt id="789">3.87303e-12</wgt>
  <wgt id="790">3.1601e-12</wgt>
  <wgt id="791">6.26065e-12</wgt>
  <wgt id="792">7.47542e-12</wgt>
  <wgt id="793">5.21005e-12</wgt>
  <wgt id="794">2.90608e-12</wgt>
  <wgt id="795">7.57545e-12</wgt>
  <wgt id="796">7.79625e-12</wgt>
  <wgt id="797">7.15245e-12</wgt>
  <wgt id="798">4.26148e-12</wgt>
  <wgt id="799">6.96055e-12</wgt>
  <wgt id="800">4.21797e-12</wgt>
  <wgt id="801">5.29097e-12</wgt>
  <wgt id="802">2.80138e-12</wgt>
  <wgt id="803">8.83474e-12</wgt>
  <wgt id="804">7.55997e-12</wgt>
  <wgt id="805">7.40866e-12</wgt>
  <wgt id="806">6.06032e-12</wgt>
  <wgt id="807">5.37617e-12</wgt>
  <wgt id="808">5.28013e-12</wgt>
  <wgt id="809">4.93872e-12</wgt>
  <wgt id="810">6.53632e-12</wgt>
  <wgt id="811">5.82632e-12</wgt>
  <wgt id="812">3.22504e-12</wgt>
  <wgt id="813">3.46802e-12</wgt>
  <wgt id="814">3.84582e-12</wgt>
  <wgt id="815">3.25243e-12</wgt>
  <wgt id="816">3.52529e-12</wgt>
  <wgt id="817">5.60261e-12</wgt>
  <wgt id="818">7.2144e-12</wgt>
  <wgt id="819">3.43271e-12</wgt>
  <wgt id="820">5.20857e-12</wgt>
  <wgt id="821">6.74286e-12</wgt>
  <wgt id="822">4.4053e-12</wgt>
  <wgt id="823">7.08153e-12</wgt>
  <wgt id="824">8.4483e-12</wgt>
  <wgt id="825">2.65724e-12</wgt>
  <wgt id="826">6.90111e-12</wgt>
  <wgt id="827">2.36983e-12</wgt>
  <wgt id="828">7.16801e-12</wgt>
  <wgt id="829">5.7074e-12</wgt>
  <wgt id="830">2.51678e-12</wgt>
  <wgt id="831">6.52447e-12</wgt>
  <wgt id="832">1.00251e-11</wgt>
  <wgt id="833">4.4126e-12</wgt>
  <wgt id="834">9.77399e-12</wgt>
  <wgt id="835">3.83341e-12</wgt>
  <wgt id="836">4.54574e-12</wgt>
  <wgt id="837">6.56784e-12</wgt>
  <wgt id="838">4.44016e-12</wgt>
  <wgt id="839">6.5045e-12</wgt>
  <wgt id="840">4.69049e-12</wgt>
  <wgt id="841">7.83944e-12</wgt>
  <wgt id="842">5.44556e-12</wgt>
  <wgt id="843">5.94347e-12</wgt>
  <wgt id="844">6.16184e-12</wgt>
  <wgt id="845">9.81036e-12</wgt>
  <wgt id="846">5.53296e-12</wgt>
  <wgt id="847">5.89632e-12</wgt>
  <wgt id="848">3.39102e-12</wgt>
  <wgt id="849">6.03462e-12</wgt>
  <wgt id="850">8.57428e-12</wgt>
  <wgt id="851">6.56792e-12</wgt>
  <wgt id="852">2.8886e-12</wgt>
  <wgt id="853">6.85997e-12</wgt>
  <wgt id="854">7.7798e-12</wgt>
  <wgt id="855">6.90702e-12</wgt>
  <wgt id="856">2.49524e-12</wgt>
  <wgt id="857">4.83511e-12</wgt>
  <wgt id="858">5.18304e-12</wgt>
  <wgt id="859">5.28371e-12</wgt>
  <wgt id="860">7.11226e-12</wgt>
  <wgt id="861">4.53333e-12</wgt>
  <wgt id="862">5.67003e-12</wgt>
  <wgt id="863">6.42028e-12</wgt>
  <wgt id="864">5.71385e-12</wgt>
  <wgt id="865">9.09786e-12</wgt>
  <wgt id="866">1.0038e-11</wgt>
  <wgt id="867">5.6266e-12</wgt>
  <wgt id="868">5.7652e-12</wgt>
  <wgt id="869">3.12502e-12</wgt>
  <wgt id="870">3.74294e-12</wgt>
  <wgt id="871">3.76081e-12</wgt>
  <wgt id="872">8.00589e-12</wgt>
  <wgt id="873">4.3263e-12</wgt>
  <wgt id="874">6.16356e-12</wgt>
  <wgt id="875">4.23847e-12</wgt>
  <wgt id="876">7.67224e-12</wgt>
  <wgt id="877">6.38494e-12</wgt>
  <wgt id="878">4.39105e-12</wgt>
  <wgt id="879">8.31876e-12</wgt>
  <wgt id="880">8.40576e-12</wgt>
  <wgt id="881">9.09038e-12</wgt>
  <wgt id="882">8.41529e-12</wgt>
  <wgt id="883">8.36281e-12</wgt>
  <wgt id="884">8.15547e-12</wgt>
  <wgt id="885">8.71754e-12</wgt>
  <wgt id="886">7.72281e-12</wgt>
  <wgt id="887">8.7664e-12</wgt>
  <wgt id="888">8.24653e-12</wgt>
  <wgt id="889">8.41426e-12</wgt>
  <wgt id="890">8.62542e-12</wgt>
  <wgt id="891">8.06145e-12</wgt>
  <wgt id="892">8.74251e-12</wgt>
  <wgt id="893">8.564e-12</wgt>
  <wgt id="894">8.5483e-12</wgt>
  <wgt id="895">8.12302e-12</wgt>
  <wgt id="896">1.09244e-11</wgt>
  <wgt id="897">9.13973e-12</wgt>
  <wgt id="898">7.81302e-12</wgt>
  <wgt id="899">7.94519e-12</wgt>
  <wgt id="900">7.55184e-12</wgt>
  <wgt id="901">6.92218e-12</wgt>
  <wgt id="902">7.05219e-12</wgt>
  <wgt id="903">7.3104e-12</wgt>
  <wgt id="904">8.3161e-12</wgt>
  <wgt id="905">8.01332e-12</wgt>
  <wgt id="906">1.02764e-11</wgt>
  <wgt id="907">9.38053e-12</wgt>
  <wgt id="908">9.30334e-12</wgt>
  <wgt id="909">7.75257e-12</wgt>
  <wgt id="910">7.7982e-12</wgt>
  <wgt id="911">7.98517e-12</wgt>
  <wgt id="912">8.06413e-12</wgt>
  <wgt id="913">7.0541e-12</wgt>
  <wgt id="914">8.77601e-12</wgt>
  <wgt id="915">7.82942e-12</wgt>
  <wgt id="916">8.97656e-12</wgt>
  <wgt id="917">7.55051e-12</wgt>
  <wgt id="918">7.96407e-12</wgt>
  <wgt id="919">8.00275e-12</wgt>
  <wgt id="920">7.29109e-12</wgt>
  <wgt id="921">8.49669e-12</wgt>
  <wgt id="922">7.5535e-12</wgt>
  <wgt id="923">8.42237e-12</wgt>
  <wgt id="924">7.12457e-12</wgt>
  <wgt id="925">6.61555e-12</wgt>
  <wgt id="926">9.32672e-12</wgt>
  <wgt id="927">9.00722e-12</wgt>
  <wgt id="928">8.7205e-12</wgt>
  <wgt id="929">8.28892e-12</wgt>
  <wgt id="930">8.32442e-12</wgt>
  <wgt id="931">8.1259e-12</wgt>
  <wgt id="932">7.6747e-12</wgt>
  <wgt id="933">9.22212e-12</wgt>
  <wgt id="934">8.18352e-12</wgt>
  <wgt id="935">9.66113e-12</wgt>
  <wgt id="936">7.78161e-12</wgt>
  <wgt id="937">8.60588e-12</wgt>
  <wgt id="938">8.33129e-12</wgt>
  <wgt id="939">7.74721e-12</wgt>
  <wgt id="940">7.86131e-12</wgt>
  <wgt id="941">7.90067e-12</wgt>
  <wgt id="942">8.87984e-12</wgt>
  <wgt id="943">9.81091e-12</wgt>
  <wgt id="944">8.50563e-12</wgt>
  <wgt id="945">8.02932e-12</wgt>
  <wgt id="946">7.58737e-12</wgt>
  <wgt id="947">8.156e-12</wgt>
  <wgt id="948">9.07356e-12</wgt>
  <wgt id="949">9.32508e-12</wgt>
  <wgt id="950">6.94869e-12</wgt>
  <wgt id="951">8.03697e-12</wgt>
  <wgt id="952">8.66921e-12</wgt>
  <wgt id="953">8.95422e-12</wgt>
  <wgt id="954">8.40212e-12</wgt>
  <wgt id="955">7.48041e-12</wgt>
  <wgt id="956">7.47531e-12</wgt>
  <wgt id="957">8.69677e-12</wgt>
  <wgt id="958">8.15394e-12</wgt>
  <wgt id="959">8.09816e-12</wgt>
  <wgt id="960">7.22245e-12</wgt>
  <wgt id="961">8.12434e-12</wgt>
  <wgt id="962">9.09322e-12</wgt>
  <wgt id="963">8.02209e-12</wgt>
  <wgt id="964">9.18642e-12</wgt>
  <wgt id="965">9.23249e-12</wgt>
  <wgt id="966">8.47961e-12</wgt>
  <wgt id="967">8.87927e-12</wgt>
  <wgt id="968">8.40932e-12</wgt>
  <wgt id="969">8.41605e-12</wgt>
  <wgt id="970">8.49689e-12</wgt>
  <wgt id="971">7.58124e-12</wgt>
  <wgt id="972">8.78735e-12</wgt>
  <wgt id="973">7.84428e-12</wgt>
  <wgt id="974">1.0236e-11</wgt>
  <wgt id="975">8.068e-12</wgt>
  <wgt id="976">8.33194e-12</wgt>
  <wgt id="977">6.62704e-12</wgt>
  <wgt id="978">8.73054e-12</wgt>
  <wgt id="979">9.53525e-12</wgt>
  <wgt id="980">8.2636e-12</wgt>
  <wgt id="981">8.49136e-12</wgt>
  <wgt id="982">8.06015e-12</wgt>
</rwgt>
</event>
<event>
 5   1  0.5790000E-11  0.2231833E+04  0.7818608E-02  0.7736984E-01
       21   -1    0    0  502  501  0.00000000000E+00  0.00000000000E+00  0.56592779989E+03  0.56592779989E+03  0.00000000000E+00 0. -1.
       21   -1    0    0  501  502 -0.00000000000E+00 -0.00000000000E+00 -0.22004040735E+04  0.22004040735E+04  0.00000000000E+00 0.  1.
       39    2    1    2    0    0  0.00000000000E+00  0.00000000000E+00 -0.16344762736E+04  0.27663318734E+04  0.22318331803E+04 0.  0.
       25    1    3    3    0    0 -0.57170110353E+03  0.94995994378E+03 -0.84136170640E+03  0.13974192526E+04  0.12500000000E+03 0.  0.
       25    1    3    3    0    0  0.57170110353E+03 -0.94995994378E+03 -0.79311456716E+03  0.13689126207E+04  0.12500000000E+03 0.  0.
<mgrwt>
<rscale>  0 0.22318332E+04</rscale>
<asrwt>0</asrwt>
<pdfrwt beam="1">  1       21 0.87065816E-01 0.22318332E+04</pdfrwt>
<pdfrwt beam="2">  1       21 0.33852370E+00 0.22318332E+04</pdfrwt>
<totfact> 0.81467573E+00</totfact>
</mgrwt>
<rwgt>
  <wgt id="1">5.79e-12</wgt>
  <wgt id="2">4.9959e-12</wgt>
  <wgt id="3">6.78596e-12</wgt>
  <wgt id="4">5.79e-12</wgt>
  <wgt id="5">4.9959e-12</wgt>
  <wgt id="6">6.78596e-12</wgt>
  <wgt id="7">5.79e-12</wgt>
  <wgt id="8">4.9959e-12</wgt>
  <wgt id="9">6.78596e-12</wgt>
  <wgt id="10">6.10031e-12</wgt>
  <wgt id="11">6.09948e-12</wgt>
  <wgt id="12">6.08406e-12</wgt>
  <wgt id="13">6.08985e-12</wgt>
  <wgt id="14">6.11864e-12</wgt>
  <wgt id="15">6.10968e-12</wgt>
  <wgt id="16">6.08292e-12</wgt>
  <wgt id="17">6.13703e-12</wgt>
  <wgt id="18">6.09577e-12</wgt>
  <wgt id="19">6.12774e-12</wgt>
  <wgt id="20">6.10122e-12</wgt>
  <wgt id="21">6.04905e-12</wgt>
  <wgt id="22">6.05233e-12</wgt>
  <wgt id="23">5.99849e-12</wgt>
  <wgt id="24">6.0494e-12</wgt>
  <wgt id="25">6.07652e-12</wgt>
  <wgt id="26">6.11593e-12</wgt>
  <wgt id="27">6.08635e-12</wgt>
  <wgt id="28">6.05875e-12</wgt>
  <wgt id="29">6.10167e-12</wgt>
  <wgt id="30">6.04417e-12</wgt>
  <wgt id="31">6.12774e-12</wgt>
  <wgt id="32">6.04603e-12</wgt>
  <wgt id="33">6.10704e-12</wgt>
  <wgt id="34">6.0554e-12</wgt>
  <wgt id="35">6.05015e-12</wgt>
  <wgt id="36">6.13261e-12</wgt>
  <wgt id="37">6.07865e-12</wgt>
  <wgt id="38">6.07114e-12</wgt>
  <wgt id="39">6.21901e-12</wgt>
  <wgt id="40">6.10828e-12</wgt>
  <wgt id="41">6.09668e-12</wgt>
  <wgt id="42">6.11297e-12</wgt>
  <wgt id="43">6.10712e-12</wgt>
  <wgt id="44">6.14254e-12</wgt>
  <wgt id="45">6.10741e-12</wgt>
  <wgt id="46">6.06979e-12</wgt>
  <wgt id="47">6.17634e-12</wgt>
  <wgt id="48">6.14482e-12</wgt>
  <wgt id="49">6.06057e-12</wgt>
  <wgt id="50">6.03499e-12</wgt>
  <wgt id="51">6.05249e-12</wgt>
  <wgt id="52">6.11724e-12</wgt>
  <wgt id="53">6.17893e-12</wgt>
  <wgt id="54">6.13944e-12</wgt>
  <wgt id="55">6.09359e-12</wgt>
  <wgt id="56">6.05405e-12</wgt>
  <wgt id="57">6.0503e-12</wgt>
  <wgt id="58">6.09933e-12</wgt>
  <wgt id="59">6.11672e-12</wgt>
  <wgt id="60">6.0365e-12</wgt>
  <wgt id="61">6.07112e-12</wgt>
  <wgt id="62">6.09493e-12</wgt>
  <wgt id="63">6.09582e-12</wgt>
  <wgt id="64">6.09359e-12</wgt>
  <wgt id="65">6.06585e-12</wgt>
  <wgt id="66">6.11252e-12</wgt>
  <wgt id="67">6.10508e-12</wgt>
  <wgt id="68">6.09779e-12</wgt>
  <wgt id="69">6.08612e-12</wgt>
  <wgt id="70">6.07348e-12</wgt>
  <wgt id="71">6.10339e-12</wgt>
  <wgt id="72">6.07137e-12</wgt>
  <wgt id="73">6.12079e-12</wgt>
  <wgt id="74">6.13036e-12</wgt>
  <wgt id="75">6.09107e-12</wgt>
  <wgt id="76">6.14541e-12</wgt>
  <wgt id="77">6.08736e-12</wgt>
  <wgt id="78">6.09483e-12</wgt>
  <wgt id="79">6.11535e-12</wgt>
  <wgt id="80">6.04456e-12</wgt>
  <wgt id="81">6.09648e-12</wgt>
  <wgt id="82">6.10706e-12</wgt>
  <wgt id="83">6.05636e-12</wgt>
  <wgt id="84">6.07351e-12</wgt>
  <wgt id="85">6.07156e-12</wgt>
  <wgt id="86">6.13083e-12</wgt>
  <wgt id="87">6.03437e-12</wgt>
  <wgt id="88">6.12202e-12</wgt>
  <wgt id="89">6.11506e-12</wgt>
  <wgt id="90">6.12421e-12</wgt>
  <wgt id="91">6.10848e-12</wgt>
  <wgt id="92">6.12066e-12</wgt>
  <wgt id="93">6.10711e-12</wgt>
  <wgt id="94">6.07973e-12</wgt>
  <wgt id="95">6.12122e-12</wgt>
  <wgt id="96">6.11949e-12</wgt>
  <wgt id="97">6.072e-12</wgt>
  <wgt id="98">6.10044e-12</wgt>
  <wgt id="99">6.09451e-12</wgt>
  <wgt id="100">6.11399e-12</wgt>
  <wgt id="101">6.08837e-12</wgt>
  <wgt id="102">6.08627e-12</wgt>
  <wgt id="103">6.12501e-12</wgt>
  <wgt id="104">6.08827e-12</wgt>
  <wgt id="105">6.11761e-12</wgt>
  <wgt id="106">6.08174e-12</wgt>
  <wgt id="107">6.14117e-12</wgt>
  <wgt id="108">6.08711e-12</wgt>
  <wgt id="109">6.10323e-12</wgt>
  <wgt id="110">6.09905e-12</wgt>
  <wgt id="111">6.08657e-12</wgt>
  <wgt id="112">6.18991e-12</wgt>
  <wgt id="113">8.8177e-12</wgt>
  <wgt id="114">8.04227e-12</wgt>
  <wgt id="115">7.88528e-12</wgt>
  <wgt id="116">1.07583e-11</wgt>
  <wgt id="117">6.66385e-12</wgt>
  <wgt id="118">6.68808e-12</wgt>
  <wgt id="119">6.64997e-12</wgt>
  <wgt id="120">6.66396e-12</wgt>
  <wgt id="121">6.66369e-12</wgt>
  <wgt id="122">6.65345e-12</wgt>
  <wgt id="123">6.67825e-12</wgt>
  <wgt id="124">6.65507e-12</wgt>
  <wgt id="125">6.66951e-12</wgt>
  <wgt id="126">6.67252e-12</wgt>
  <wgt id="127">6.65807e-12</wgt>
  <wgt id="128">6.68406e-12</wgt>
  <wgt id="129">6.64382e-12</wgt>
  <wgt id="130">6.69516e-12</wgt>
  <wgt id="131">6.63127e-12</wgt>
  <wgt id="132">6.47865e-12</wgt>
  <wgt id="133">6.88437e-12</wgt>
  <wgt id="134">6.59328e-12</wgt>
  <wgt id="135">6.71928e-12</wgt>
  <wgt id="136">6.76787e-12</wgt>
  <wgt id="137">6.53883e-12</wgt>
  <wgt id="138">6.97204e-12</wgt>
  <wgt id="139">6.3721e-12</wgt>
  <wgt id="140">6.63401e-12</wgt>
  <wgt id="141">6.68599e-12</wgt>
  <wgt id="142">6.66171e-12</wgt>
  <wgt id="143">6.68601e-12</wgt>
  <wgt id="144">6.37678e-12</wgt>
  <wgt id="145">6.94441e-12</wgt>
  <wgt id="146">6.75627e-12</wgt>
  <wgt id="147">6.58776e-12</wgt>
  <wgt id="148">6.68845e-12</wgt>
  <wgt id="149">6.66201e-12</wgt>
  <wgt id="150">6.71916e-12</wgt>
  <wgt id="151">6.63793e-12</wgt>
  <wgt id="152">6.66527e-12</wgt>
  <wgt id="153">6.66325e-12</wgt>
  <wgt id="154">6.67289e-12</wgt>
  <wgt id="155">6.63803e-12</wgt>
  <wgt id="156">6.90203e-12</wgt>
  <wgt id="157">6.44926e-12</wgt>
  <wgt id="158">7.97857e-12</wgt>
  <wgt id="159">8.0129e-12</wgt>
  <wgt id="160">7.95112e-12</wgt>
  <wgt id="161">7.95891e-12</wgt>
  <wgt id="162">8.00085e-12</wgt>
  <wgt id="163">7.96984e-12</wgt>
  <wgt id="164">7.9917e-12</wgt>
  <wgt id="165">7.98144e-12</wgt>
  <wgt id="166">7.97665e-12</wgt>
  <wgt id="167">7.97326e-12</wgt>
  <wgt id="168">7.98643e-12</wgt>
  <wgt id="169">7.94598e-12</wgt>
  <wgt id="170">7.99898e-12</wgt>
  <wgt id="171">7.97374e-12</wgt>
  <wgt id="172">7.98563e-12</wgt>
  <wgt id="173">7.96201e-12</wgt>
  <wgt id="174">7.98468e-12</wgt>
  <wgt id="175">7.74771e-12</wgt>
  <wgt id="176">8.28134e-12</wgt>
  <wgt id="177">8.01365e-12</wgt>
  <wgt id="178">7.94699e-12</wgt>
  <wgt id="179">8.39341e-12</wgt>
  <wgt id="180">7.34141e-12</wgt>
  <wgt id="181">7.70901e-12</wgt>
  <wgt id="182">8.15896e-12</wgt>
  <wgt id="183">7.81511e-12</wgt>
  <wgt id="184">8.06002e-12</wgt>
  <wgt id="185">7.8865e-12</wgt>
  <wgt id="186">8.08954e-12</wgt>
  <wgt id="187">7.88549e-12</wgt>
  <wgt id="188">8.14278e-12</wgt>
  <wgt id="189">7.91494e-12</wgt>
  <wgt id="190">8.00482e-12</wgt>
  <wgt id="191">8.00836e-12</wgt>
  <wgt id="192">7.96105e-12</wgt>
  <wgt id="193">8.11475e-12</wgt>
  <wgt id="194">7.9099e-12</wgt>
  <wgt id="195">7.68052e-12</wgt>
  <wgt id="196">8.4625e-12</wgt>
  <wgt id="197">8.02132e-12</wgt>
  <wgt id="198">7.96824e-12</wgt>
  <wgt id="199">7.97857e-12</wgt>
  <wgt id="200">8.05731e-12</wgt>
  <wgt id="201">8.031e-12</wgt>
  <wgt id="202">8.00524e-12</wgt>
  <wgt id="203">7.96915e-12</wgt>
  <wgt id="204">7.95057e-12</wgt>
  <wgt id="205">7.93503e-12</wgt>
  <wgt id="206">7.82392e-12</wgt>
  <wgt id="207">7.87039e-12</wgt>
  <wgt id="208">7.77714e-12</wgt>
  <wgt id="209">7.84603e-12</wgt>
  <wgt id="210">7.80752e-12</wgt>
  <wgt id="211">7.82142e-12</wgt>
  <wgt id="212">7.82574e-12</wgt>
  <wgt id="213">7.82289e-12</wgt>
  <wgt id="214">7.82466e-12</wgt>
  <wgt id="215">7.8295e-12</wgt>
  <wgt id="216">7.81993e-12</wgt>
  <wgt id="217">7.84026e-12</wgt>
  <wgt id="218">7.81056e-12</wgt>
  <wgt id="219">7.81282e-12</wgt>
  <wgt id="220">7.83051e-12</wgt>
  <wgt id="221">7.82776e-12</wgt>
  <wgt id="222">7.81202e-12</wgt>
  <wgt id="223">7.37506e-12</wgt>
  <wgt id="224">8.23526e-12</wgt>
  <wgt id="225">7.72723e-12</wgt>
  <wgt id="226">7.94674e-12</wgt>
  <wgt id="227">7.74904e-12</wgt>
  <wgt id="228">7.85678e-12</wgt>
  <wgt id="229">7.71136e-12</wgt>
  <wgt id="230">7.87943e-12</wgt>
  <wgt id="231">8.09589e-12</wgt>
  <wgt id="232">7.60133e-12</wgt>
  <wgt id="233">7.7726e-12</wgt>
  <wgt id="234">7.90997e-12</wgt>
  <wgt id="235">7.47662e-12</wgt>
  <wgt id="236">8.10547e-12</wgt>
  <wgt id="237">7.62384e-12</wgt>
  <wgt id="238">7.8901e-12</wgt>
  <wgt id="239">7.74369e-12</wgt>
  <wgt id="240">7.96769e-12</wgt>
  <wgt id="241">7.72588e-12</wgt>
  <wgt id="242">7.9387e-12</wgt>
  <wgt id="243">7.96464e-12</wgt>
  <wgt id="244">7.8182e-12</wgt>
  <wgt id="245">7.82131e-12</wgt>
  <wgt id="246">7.86429e-12</wgt>
  <wgt id="247">7.82392e-12</wgt>
  <wgt id="248">7.91001e-12</wgt>
  <wgt id="249">7.88098e-12</wgt>
  <wgt id="250">7.84968e-12</wgt>
  <wgt id="251">7.80827e-12</wgt>
  <wgt id="252">7.78672e-12</wgt>
  <wgt id="253">7.77229e-12</wgt>
  <wgt id="254">7.52293e-12</wgt>
  <wgt id="255">7.52921e-12</wgt>
  <wgt id="256">7.51574e-12</wgt>
  <wgt id="257">7.52884e-12</wgt>
  <wgt id="258">7.51853e-12</wgt>
  <wgt id="259">7.57345e-12</wgt>
  <wgt id="260">7.47435e-12</wgt>
  <wgt id="261">7.53448e-12</wgt>
  <wgt id="262">7.50955e-12</wgt>
  <wgt id="263">7.51706e-12</wgt>
  <wgt id="264">7.52929e-12</wgt>
  <wgt id="265">7.51404e-12</wgt>
  <wgt id="266">7.54074e-12</wgt>
  <wgt id="267">7.52567e-12</wgt>
  <wgt id="268">7.51949e-12</wgt>
  <wgt id="269">7.54548e-12</wgt>
  <wgt id="270">7.5075e-12</wgt>
  <wgt id="271">7.50115e-12</wgt>
  <wgt id="272">7.54751e-12</wgt>
  <wgt id="273">7.50379e-12</wgt>
  <wgt id="274">7.53742e-12</wgt>
  <wgt id="275">7.47522e-12</wgt>
  <wgt id="276">7.57281e-12</wgt>
  <wgt id="277">7.47942e-12</wgt>
  <wgt id="278">7.56276e-12</wgt>
  <wgt id="279">7.38535e-12</wgt>
  <wgt id="280">7.69624e-12</wgt>
  <wgt id="281">7.48692e-12</wgt>
  <wgt id="282">7.53547e-12</wgt>
  <wgt id="283">7.27267e-12</wgt>
  <wgt id="284">7.83605e-12</wgt>
  <wgt id="285">7.10961e-12</wgt>
  <wgt id="286">7.8741e-12</wgt>
  <wgt id="287">7.55019e-12</wgt>
  <wgt id="288">7.48803e-12</wgt>
  <wgt id="289">7.58535e-12</wgt>
  <wgt id="290">7.38676e-12</wgt>
  <wgt id="291">7.493e-12</wgt>
  <wgt id="292">7.52211e-12</wgt>
  <wgt id="293">7.45557e-12</wgt>
  <wgt id="294">7.59014e-12</wgt>
  <wgt id="295">7.3593e-12</wgt>
  <wgt id="296">7.72348e-12</wgt>
  <wgt id="297">7.50141e-12</wgt>
  <wgt id="298">7.56228e-12</wgt>
  <wgt id="299">7.49709e-12</wgt>
  <wgt id="300">7.59139e-12</wgt>
  <wgt id="301">7.36287e-12</wgt>
  <wgt id="302">7.88856e-12</wgt>
  <wgt id="303">7.43542e-12</wgt>
  <wgt id="304">7.57179e-12</wgt>
  <wgt id="305">7.43943e-12</wgt>
  <wgt id="306">7.44635e-12</wgt>
  <wgt id="307">7.43227e-12</wgt>
  <wgt id="308">7.44606e-12</wgt>
  <wgt id="309">7.43554e-12</wgt>
  <wgt id="310">7.49098e-12</wgt>
  <wgt id="311">7.39271e-12</wgt>
  <wgt id="312">7.45003e-12</wgt>
  <wgt id="313">7.42857e-12</wgt>
  <wgt id="314">7.4338e-12</wgt>
  <wgt id="315">7.44536e-12</wgt>
  <wgt id="316">7.43079e-12</wgt>
  <wgt id="317">7.45923e-12</wgt>
  <wgt id="318">7.44545e-12</wgt>
  <wgt id="319">7.42976e-12</wgt>
  <wgt id="320">7.464e-12</wgt>
  <wgt id="321">7.42632e-12</wgt>
  <wgt id="322">7.4163e-12</wgt>
  <wgt id="323">7.46724e-12</wgt>
  <wgt id="324">7.42622e-12</wgt>
  <wgt id="325">7.45123e-12</wgt>
  <wgt id="326">7.40002e-12</wgt>
  <wgt id="327">7.49058e-12</wgt>
  <wgt id="328">7.4012e-12</wgt>
  <wgt id="329">7.46081e-12</wgt>
  <wgt id="330">7.64923e-12</wgt>
  <wgt id="331">7.24086e-12</wgt>
  <wgt id="332">7.40992e-12</wgt>
  <wgt id="333">7.44804e-12</wgt>
  <wgt id="334">7.25042e-12</wgt>
  <wgt id="335">7.67768e-12</wgt>
  <wgt id="336">7.14823e-12</wgt>
  <wgt id="337">7.80208e-12</wgt>
  <wgt id="338">7.53371e-12</wgt>
  <wgt id="339">7.35347e-12</wgt>
  <wgt id="340">7.4952e-12</wgt>
  <wgt id="341">7.30401e-12</wgt>
  <wgt id="342">7.41882e-12</wgt>
  <wgt id="343">7.42304e-12</wgt>
  <wgt id="344">7.38107e-12</wgt>
  <wgt id="345">7.50808e-12</wgt>
  <wgt id="346">7.27373e-12</wgt>
  <wgt id="347">7.62992e-12</wgt>
  <wgt id="348">7.4197e-12</wgt>
  <wgt id="349">7.47535e-12</wgt>
  <wgt id="350">7.40788e-12</wgt>
  <wgt id="351">7.52041e-12</wgt>
  <wgt id="352">7.27938e-12</wgt>
  <wgt id="353">7.79174e-12</wgt>
  <wgt id="354">7.31706e-12</wgt>
  <wgt id="355">7.51185e-12</wgt>
  <wgt id="356">7.52293e-12</wgt>
  <wgt id="357">7.44099e-12</wgt>
  <wgt id="358">7.43943e-12</wgt>
  <wgt id="359">7.51665e-12</wgt>
  <wgt id="360">7.66799e-12</wgt>
  <wgt id="361">7.56507e-12</wgt>
  <wgt id="362">7.71937e-12</wgt>
  <wgt id="363">7.69954e-12</wgt>
  <wgt id="364">7.65946e-12</wgt>
  <wgt id="365">7.62969e-12</wgt>
  <wgt id="366">7.60014e-12</wgt>
  <wgt id="367">7.5439e-12</wgt>
  <wgt id="368">7.5072e-12</wgt>
  <wgt id="369">7.46768e-12</wgt>
  <wgt id="370">7.56507e-12</wgt>
  <wgt id="371">7.59536e-12</wgt>
  <wgt id="372">7.57798e-12</wgt>
  <wgt id="373">7.55393e-12</wgt>
  <wgt id="374">7.56579e-12</wgt>
  <wgt id="375">8.76336e-12</wgt>
  <wgt id="376">8.76363e-12</wgt>
  <wgt id="377">8.76288e-12</wgt>
  <wgt id="378">8.79721e-12</wgt>
  <wgt id="379">8.72979e-12</wgt>
  <wgt id="380">8.78877e-12</wgt>
  <wgt id="381">8.75321e-12</wgt>
  <wgt id="382">8.80222e-12</wgt>
  <wgt id="383">8.72496e-12</wgt>
  <wgt id="384">8.76902e-12</wgt>
  <wgt id="385">8.758e-12</wgt>
  <wgt id="386">8.78915e-12</wgt>
  <wgt id="387">8.75233e-12</wgt>
  <wgt id="388">8.75613e-12</wgt>
  <wgt id="389">8.7721e-12</wgt>
  <wgt id="390">8.7822e-12</wgt>
  <wgt id="391">8.74374e-12</wgt>
  <wgt id="392">8.68425e-12</wgt>
  <wgt id="393">8.80793e-12</wgt>
  <wgt id="394">8.76827e-12</wgt>
  <wgt id="395">8.75625e-12</wgt>
  <wgt id="396">8.78013e-12</wgt>
  <wgt id="397">8.75162e-12</wgt>
  <wgt id="398">8.75271e-12</wgt>
  <wgt id="399">8.77333e-12</wgt>
  <wgt id="400">8.75021e-12</wgt>
  <wgt id="401">8.79168e-12</wgt>
  <wgt id="402">8.68012e-12</wgt>
  <wgt id="403">8.81928e-12</wgt>
  <wgt id="404">9.02753e-12</wgt>
  <wgt id="405">8.13651e-12</wgt>
  <wgt id="406">8.57187e-12</wgt>
  <wgt id="407">9.1899e-12</wgt>
  <wgt id="408">8.8628e-12</wgt>
  <wgt id="409">8.57985e-12</wgt>
  <wgt id="410">8.45463e-12</wgt>
  <wgt id="411">8.91263e-12</wgt>
  <wgt id="412">8.74179e-12</wgt>
  <wgt id="413">8.79401e-12</wgt>
  <wgt id="414">8.64053e-12</wgt>
  <wgt id="415">8.85875e-12</wgt>
  <wgt id="416">9.07793e-12</wgt>
  <wgt id="417">8.33225e-12</wgt>
  <wgt id="418">8.7828e-12</wgt>
  <wgt id="419">8.65932e-12</wgt>
  <wgt id="420">8.99371e-12</wgt>
  <wgt id="421">8.60717e-12</wgt>
  <wgt id="422">8.7013e-12</wgt>
  <wgt id="423">8.79185e-12</wgt>
  <wgt id="424">9.04324e-12</wgt>
  <wgt id="425">8.57106e-12</wgt>
  <wgt id="426">8.76336e-12</wgt>
  <wgt id="427">8.5674e-12</wgt>
  <wgt id="428">9.20014e-12</wgt>
  <wgt id="429">8.89152e-12</wgt>
  <wgt id="430">9.19552e-12</wgt>
  <wgt id="431">9.13355e-12</wgt>
  <wgt id="432">9.07778e-12</wgt>
  <wgt id="433">9.02273e-12</wgt>
  <wgt id="434">8.95195e-12</wgt>
  <wgt id="435">8.81601e-12</wgt>
  <wgt id="436">8.74794e-12</wgt>
  <wgt id="437">8.68077e-12</wgt>
  <wgt id="438">8.89152e-12</wgt>
  <wgt id="439">8.91823e-12</wgt>
  <wgt id="440">8.90104e-12</wgt>
  <wgt id="441">8.88502e-12</wgt>
  <wgt id="442">8.88008e-12</wgt>
  <wgt id="443">7.88485e-12</wgt>
  <wgt id="444">7.97705e-12</wgt>
  <wgt id="445">7.99175e-12</wgt>
  <wgt id="446">7.82555e-12</wgt>
  <wgt id="447">7.88965e-12</wgt>
  <wgt id="448">7.69818e-12</wgt>
  <wgt id="449">8.06335e-12</wgt>
  <wgt id="450">8.01239e-12</wgt>
  <wgt id="451">7.86091e-12</wgt>
  <wgt id="452">8.0568e-12</wgt>
  <wgt id="453">7.99718e-12</wgt>
  <wgt id="454">7.45453e-12</wgt>
  <wgt id="455">7.96335e-12</wgt>
  <wgt id="456">8.06361e-12</wgt>
  <wgt id="457">7.90952e-12</wgt>
  <wgt id="458">8.03876e-12</wgt>
  <wgt id="459">7.95972e-12</wgt>
  <wgt id="460">8.0725e-12</wgt>
  <wgt id="461">7.68387e-12</wgt>
  <wgt id="462">7.82952e-12</wgt>
  <wgt id="463">7.74948e-12</wgt>
  <wgt id="464">7.84663e-12</wgt>
  <wgt id="465">7.96998e-12</wgt>
  <wgt id="466">7.66749e-12</wgt>
  <wgt id="467">7.82659e-12</wgt>
  <wgt id="468">7.88331e-12</wgt>
  <wgt id="469">7.86359e-12</wgt>
  <wgt id="470">7.74867e-12</wgt>
  <wgt id="471">7.77672e-12</wgt>
  <wgt id="472">7.94567e-12</wgt>
  <wgt id="473">7.62015e-12</wgt>
  <wgt id="474">5.79e-12</wgt>
  <wgt id="475">5.77601e-12</wgt>
  <wgt id="476">5.77569e-12</wgt>
  <wgt id="477">5.91344e-12</wgt>
  <wgt id="478">5.89744e-12</wgt>
  <wgt id="479">5.44397e-12</wgt>
  <wgt id="480">6.14293e-12</wgt>
  <wgt id="481">5.85388e-12</wgt>
  <wgt id="482">5.84788e-12</wgt>
  <wgt id="483">5.91006e-12</wgt>
  <wgt id="484">6.04369e-12</wgt>
  <wgt id="485">5.22334e-12</wgt>
  <wgt id="486">6.10643e-12</wgt>
  <wgt id="487">5.58501e-12</wgt>
  <wgt id="488">5.82095e-12</wgt>
  <wgt id="489">5.11539e-12</wgt>
  <wgt id="490">5.73445e-12</wgt>
  <wgt id="491">5.70339e-12</wgt>
  <wgt id="492">5.70439e-12</wgt>
  <wgt id="493">5.27578e-12</wgt>
  <wgt id="494">5.29014e-12</wgt>
  <wgt id="495">5.8347e-12</wgt>
  <wgt id="496">5.4387e-12</wgt>
  <wgt id="497">5.36993e-12</wgt>
  <wgt id="498">5.95586e-12</wgt>
  <wgt id="499">5.87887e-12</wgt>
  <wgt id="500">5.78384e-12</wgt>
  <wgt id="501">6.01819e-12</wgt>
  <wgt id="502">6.13161e-12</wgt>
  <wgt id="503">5.66229e-12</wgt>
  <wgt id="504">6.01021e-12</wgt>
  <wgt id="505">6.07793e-12</wgt>
  <wgt id="506">5.29987e-12</wgt>
  <wgt id="507">5.61526e-12</wgt>
  <wgt id="508">6.13567e-12</wgt>
  <wgt id="509">5.59726e-12</wgt>
  <wgt id="510">5.80996e-12</wgt>
  <wgt id="511">5.45609e-12</wgt>
  <wgt id="512">6.25969e-12</wgt>
  <wgt id="513">6.08226e-12</wgt>
  <wgt id="514">6.20801e-12</wgt>
  <wgt id="515">6.03067e-12</wgt>
  <wgt id="516">6.49632e-12</wgt>
  <wgt id="517">5.93257e-12</wgt>
  <wgt id="518">6.04444e-12</wgt>
  <wgt id="519">5.54888e-12</wgt>
  <wgt id="520">5.84864e-12</wgt>
  <wgt id="521">5.5756e-12</wgt>
  <wgt id="522">6.00343e-12</wgt>
  <wgt id="523">5.4618e-12</wgt>
  <wgt id="524">5.97619e-12</wgt>
  <wgt id="525">5.59423e-12</wgt>
  <wgt id="526">6.16421e-12</wgt>
  <wgt id="527">5.68877e-12</wgt>
  <wgt id="528">5.74241e-12</wgt>
  <wgt id="529">5.44354e-12</wgt>
  <wgt id="530">6.13706e-12</wgt>
  <wgt id="531">5.51187e-12</wgt>
  <wgt id="532">6.30426e-12</wgt>
  <wgt id="533">5.84565e-12</wgt>
  <wgt id="534">5.49726e-12</wgt>
  <wgt id="535">5.92615e-12</wgt>
  <wgt id="536">6.0389e-12</wgt>
  <wgt id="537">5.41716e-12</wgt>
  <wgt id="538">5.72217e-12</wgt>
  <wgt id="539">5.65095e-12</wgt>
  <wgt id="540">6.13077e-12</wgt>
  <wgt id="541">5.76088e-12</wgt>
  <wgt id="542">5.62997e-12</wgt>
  <wgt id="543">5.53503e-12</wgt>
  <wgt id="544">5.80689e-12</wgt>
  <wgt id="545">5.41571e-12</wgt>
  <wgt id="546">5.24686e-12</wgt>
  <wgt id="547">5.55795e-12</wgt>
  <wgt id="548">5.62543e-12</wgt>
  <wgt id="549">5.68237e-12</wgt>
  <wgt id="550">5.5435e-12</wgt>
  <wgt id="551">5.7772e-12</wgt>
  <wgt id="552">5.30643e-12</wgt>
  <wgt id="553">5.33709e-12</wgt>
  <wgt id="554">6.04754e-12</wgt>
  <wgt id="555">5.91646e-12</wgt>
  <wgt id="556">5.73445e-12</wgt>
  <wgt id="557">5.88702e-12</wgt>
  <wgt id="558">5.75651e-12</wgt>
  <wgt id="559">5.87168e-12</wgt>
  <wgt id="560">6.40505e-12</wgt>
  <wgt id="561">6.0258e-12</wgt>
  <wgt id="562">6.03439e-12</wgt>
  <wgt id="563">6.44625e-12</wgt>
  <wgt id="564">6.20116e-12</wgt>
  <wgt id="565">6.12403e-12</wgt>
  <wgt id="566">5.51299e-12</wgt>
  <wgt id="567">5.81657e-12</wgt>
  <wgt id="568">5.5135e-12</wgt>
  <wgt id="569">5.88587e-12</wgt>
  <wgt id="570">5.90842e-12</wgt>
  <wgt id="571">6.41129e-12</wgt>
  <wgt id="572">5.55675e-12</wgt>
  <wgt id="573">5.6345e-12</wgt>
  <wgt id="574">5.6817e-12</wgt>
  <wgt id="575">6.38181e-12</wgt>
  <wgt id="576">7.09795e-12</wgt>
  <wgt id="577">6.63239e-12</wgt>
  <wgt id="578">6.40906e-12</wgt>
  <wgt id="579">6.65407e-12</wgt>
  <wgt id="580">6.83022e-12</wgt>
  <wgt id="581">7.08053e-12</wgt>
  <wgt id="582">6.93715e-12</wgt>
  <wgt id="583">6.5675e-12</wgt>
  <wgt id="584">6.30622e-12</wgt>
  <wgt id="585">5.8243e-12</wgt>
  <wgt id="586">5.95583e-12</wgt>
  <wgt id="587">6.52476e-12</wgt>
  <wgt id="588">7.19349e-12</wgt>
  <wgt id="589">7.11227e-12</wgt>
  <wgt id="590">6.34525e-12</wgt>
  <wgt id="591">6.55737e-12</wgt>
  <wgt id="592">5.9696e-12</wgt>
  <wgt id="593">6.13991e-12</wgt>
  <wgt id="594">6.14249e-12</wgt>
  <wgt id="595">6.82972e-12</wgt>
  <wgt id="596">7.65666e-12</wgt>
  <wgt id="597">6.52909e-12</wgt>
  <wgt id="598">6.56118e-12</wgt>
  <wgt id="599">6.88844e-12</wgt>
  <wgt id="600">7.01208e-12</wgt>
  <wgt id="601">6.09488e-12</wgt>
  <wgt id="602">6.12698e-12</wgt>
  <wgt id="603">5.88197e-12</wgt>
  <wgt id="604">6.59009e-12</wgt>
  <wgt id="605">6.37363e-12</wgt>
  <wgt id="606">6.50822e-12</wgt>
  <wgt id="607">6.77994e-12</wgt>
  <wgt id="608">6.65185e-12</wgt>
  <wgt id="609">6.34556e-12</wgt>
  <wgt id="610">6.04506e-12</wgt>
  <wgt id="611">5.97807e-12</wgt>
  <wgt id="612">6.48276e-12</wgt>
  <wgt id="613">6.02316e-12</wgt>
  <wgt id="614">6.32795e-12</wgt>
  <wgt id="615">6.57994e-12</wgt>
  <wgt id="616">5.9423e-12</wgt>
  <wgt id="617">6.6719e-12</wgt>
  <wgt id="618">7.08042e-12</wgt>
  <wgt id="619">6.24626e-12</wgt>
  <wgt id="620">6.57645e-12</wgt>
  <wgt id="621">6.27672e-12</wgt>
  <wgt id="622">6.52476e-12</wgt>
  <wgt id="623">6.35965e-12</wgt>
  <wgt id="624">6.41211e-12</wgt>
  <wgt id="625">6.03277e-12</wgt>
  <wgt id="626">5.47578e-12</wgt>
  <wgt id="627">5.66537e-12</wgt>
  <wgt id="628">6.3181e-12</wgt>
  <wgt id="629">6.72771e-12</wgt>
  <wgt id="630">6.15763e-12</wgt>
  <wgt id="631">6.61203e-12</wgt>
  <wgt id="632">5.76373e-12</wgt>
  <wgt id="633">6.34153e-12</wgt>
  <wgt id="634">6.02945e-12</wgt>
  <wgt id="635">5.84224e-12</wgt>
  <wgt id="636">6.42929e-12</wgt>
  <wgt id="637">6.324e-12</wgt>
  <wgt id="638">6.04377e-12</wgt>
  <wgt id="639">6.03171e-12</wgt>
  <wgt id="640">6.15926e-12</wgt>
  <wgt id="641">6.75441e-12</wgt>
  <wgt id="642">5.60466e-12</wgt>
  <wgt id="643">6.16409e-12</wgt>
  <wgt id="644">5.70667e-12</wgt>
  <wgt id="645">6.36517e-12</wgt>
  <wgt id="646">5.66698e-12</wgt>
  <wgt id="647">6.54611e-12</wgt>
  <wgt id="648">6.77268e-12</wgt>
  <wgt id="649">6.41031e-12</wgt>
  <wgt id="650">6.10301e-12</wgt>
  <wgt id="651">6.87226e-12</wgt>
  <wgt id="652">6.03917e-12</wgt>
  <wgt id="653">6.081e-12</wgt>
  <wgt id="654">6.51968e-12</wgt>
  <wgt id="655">6.04804e-12</wgt>
  <wgt id="656">6.43451e-12</wgt>
  <wgt id="657">7.08453e-12</wgt>
  <wgt id="658">6.30823e-12</wgt>
  <wgt id="659">6.11265e-12</wgt>
  <wgt id="660">6.07028e-12</wgt>
  <wgt id="661">6.18056e-12</wgt>
  <wgt id="662">6.28133e-12</wgt>
  <wgt id="663">6.54495e-12</wgt>
  <wgt id="664">6.54208e-12</wgt>
  <wgt id="665">6.26889e-12</wgt>
  <wgt id="666">6.19643e-12</wgt>
  <wgt id="667">6.76592e-12</wgt>
  <wgt id="668">6.2546e-12</wgt>
  <wgt id="669">6.30269e-12</wgt>
  <wgt id="670">6.74941e-12</wgt>
  <wgt id="671">6.50566e-12</wgt>
  <wgt id="672">6.30841e-12</wgt>
  <wgt id="673">6.9112e-12</wgt>
  <wgt id="674">6.15518e-12</wgt>
  <wgt id="675">6.08845e-12</wgt>
  <wgt id="676">8.27889e-12</wgt>
  <wgt id="677">8.35989e-12</wgt>
  <wgt id="678">9.20814e-12</wgt>
  <wgt id="679">8.77002e-12</wgt>
  <wgt id="680">8.39509e-12</wgt>
  <wgt id="681">8.00154e-12</wgt>
  <wgt id="682">8.77475e-12</wgt>
  <wgt id="683">7.41939e-12</wgt>
  <wgt id="684">8.79282e-12</wgt>
  <wgt id="685">8.35734e-12</wgt>
  <wgt id="686">8.58919e-12</wgt>
  <wgt id="687">8.46026e-12</wgt>
  <wgt id="688">8.01607e-12</wgt>
  <wgt id="689">8.69302e-12</wgt>
  <wgt id="690">8.47727e-12</wgt>
  <wgt id="691">8.47021e-12</wgt>
  <wgt id="692">8.02734e-12</wgt>
  <wgt id="693">1.13833e-11</wgt>
  <wgt id="694">9.23452e-12</wgt>
  <wgt id="695">7.6402e-12</wgt>
  <wgt id="696">7.87966e-12</wgt>
  <wgt id="697">7.30972e-12</wgt>
  <wgt id="698">6.60238e-12</wgt>
  <wgt id="699">6.91178e-12</wgt>
  <wgt id="700">7.31782e-12</wgt>
  <wgt id="701">8.26315e-12</wgt>
  <wgt id="702">7.86985e-12</wgt>
  <wgt id="703">1.05653e-11</wgt>
  <wgt id="704">9.38638e-12</wgt>
  <wgt id="705">9.41261e-12</wgt>
  <wgt id="706">7.65458e-12</wgt>
  <wgt id="707">7.6753e-12</wgt>
  <wgt id="708">7.76219e-12</wgt>
  <wgt id="709">7.9446e-12</wgt>
  <wgt id="710">6.63575e-12</wgt>
  <wgt id="711">9.03758e-12</wgt>
  <wgt id="712">7.67539e-12</wgt>
  <wgt id="713">8.93881e-12</wgt>
  <wgt id="714">7.24637e-12</wgt>
  <wgt id="715">7.80739e-12</wgt>
  <wgt id="716">7.91935e-12</wgt>
  <wgt id="717">6.9999e-12</wgt>
  <wgt id="718">8.50774e-12</wgt>
  <wgt id="719">7.5734e-12</wgt>
  <wgt id="720">8.65163e-12</wgt>
  <wgt id="721">6.96253e-12</wgt>
  <wgt id="722">6.24333e-12</wgt>
  <wgt id="723">9.50157e-12</wgt>
  <wgt id="724">9.08984e-12</wgt>
  <wgt id="725">8.66506e-12</wgt>
  <wgt id="726">8.1996e-12</wgt>
  <wgt id="727">8.37302e-12</wgt>
  <wgt id="728">8.20072e-12</wgt>
  <wgt id="729">7.34865e-12</wgt>
  <wgt id="730">9.30237e-12</wgt>
  <wgt id="731">8.15204e-12</wgt>
  <wgt id="732">9.79406e-12</wgt>
  <wgt id="733">7.57199e-12</wgt>
  <wgt id="734">8.59436e-12</wgt>
  <wgt id="735">8.22485e-12</wgt>
  <wgt id="736">7.54491e-12</wgt>
  <wgt id="737">7.36434e-12</wgt>
  <wgt id="738">7.84457e-12</wgt>
  <wgt id="739">8.74896e-12</wgt>
  <wgt id="740">1.00283e-11</wgt>
  <wgt id="741">8.9788e-12</wgt>
  <wgt id="742">7.74253e-12</wgt>
  <wgt id="743">7.49306e-12</wgt>
  <wgt id="744">8.08739e-12</wgt>
  <wgt id="745">9.20295e-12</wgt>
  <wgt id="746">9.47914e-12</wgt>
  <wgt id="747">6.71432e-12</wgt>
  <wgt id="748">7.918e-12</wgt>
  <wgt id="749">8.62819e-12</wgt>
  <wgt id="750">9.04591e-12</wgt>
  <wgt id="751">8.33338e-12</wgt>
  <wgt id="752">7.37746e-12</wgt>
  <wgt id="753">7.29213e-12</wgt>
  <wgt id="754">8.68914e-12</wgt>
  <wgt id="755">8.01171e-12</wgt>
  <wgt id="756">7.95266e-12</wgt>
  <wgt id="757">6.98274e-12</wgt>
  <wgt id="758">7.98987e-12</wgt>
  <wgt id="759">9.15051e-12</wgt>
  <wgt id="760">7.79248e-12</wgt>
  <wgt id="761">9.35352e-12</wgt>
  <wgt id="762">9.40128e-12</wgt>
  <wgt id="763">8.62667e-12</wgt>
  <wgt id="764">8.96579e-12</wgt>
  <wgt id="765">8.45281e-12</wgt>
  <wgt id="766">8.44988e-12</wgt>
  <wgt id="767">8.47211e-12</wgt>
  <wgt id="768">7.42084e-12</wgt>
  <wgt id="769">8.68703e-12</wgt>
  <wgt id="770">7.58834e-12</wgt>
  <wgt id="771">1.03468e-11</wgt>
  <wgt id="772">8.07186e-12</wgt>
  <wgt id="773">8.3783e-12</wgt>
  <wgt id="774">6.40157e-12</wgt>
  <wgt id="775">8.70949e-12</wgt>
  <wgt id="776">9.8551e-12</wgt>
  <wgt id="777">7.09928e-12</wgt>
  <wgt id="778">5.16867e-12</wgt>
  <wgt id="779">2.7988e-12</wgt>
  <wgt id="780">1.31446e-12</wgt>
  <wgt id="781">5.83511e-12</wgt>
  <wgt id="782">6.46159e-12</wgt>
  <wgt id="783">2.2488e-12</wgt>
  <wgt id="784">3.23084e-12</wgt>
  <wgt id="785">8.09298e-12</wgt>
  <wgt id="786">2.19849e-12</wgt>
  <wgt id="787">7.08344e-12</wgt>
  <wgt id="788">1.83292e-20</wgt>
  <wgt id="789">3.20548e-12</wgt>
  <wgt id="790">2.37294e-12</wgt>
  <wgt id="791">6.29836e-12</wgt>
  <wgt id="792">7.15235e-12</wgt>
  <wgt id="793">4.65452e-12</wgt>
  <wgt id="794">2.02991e-12</wgt>
  <wgt id="795">7.63148e-12</wgt>
  <wgt id="796">7.75717e-12</wgt>
  <wgt id="797">6.90546e-12</wgt>
  <wgt id="798">3.62165e-12</wgt>
  <wgt id="799">6.98026e-12</wgt>
  <wgt id="800">3.73752e-12</wgt>
  <wgt id="801">5.3293e-12</wgt>
  <wgt id="802">1.94536e-12</wgt>
  <wgt id="803">8.65361e-12</wgt>
  <wgt id="804">7.74666e-12</wgt>
  <wgt id="805">7.3841e-12</wgt>
  <wgt id="806">5.88044e-12</wgt>
  <wgt id="807">5.17955e-12</wgt>
  <wgt id="808">5.03607e-12</wgt>
  <wgt id="809">4.55784e-12</wgt>
  <wgt id="810">6.9821e-12</wgt>
  <wgt id="811">5.4591e-12</wgt>
  <wgt id="812">2.43848e-12</wgt>
  <wgt id="813">2.69186e-12</wgt>
  <wgt id="814">3.26461e-12</wgt>
  <wgt id="815">2.38102e-12</wgt>
  <wgt id="816">2.98423e-12</wgt>
  <wgt id="817">5.30868e-12</wgt>
  <wgt id="818">7.59232e-12</wgt>
  <wgt id="819">2.71134e-12</wgt>
  <wgt id="820">4.73612e-12</wgt>
  <wgt id="821">6.53701e-12</wgt>
  <wgt id="822">4.06977e-12</wgt>
  <wgt id="823">7.04856e-12</wgt>
  <wgt id="824">8.02881e-12</wgt>
  <wgt id="825">1.65868e-12</wgt>
  <wgt id="826">7.08748e-12</wgt>
  <wgt id="827">1.66379e-12</wgt>
  <wgt id="828">6.85286e-12</wgt>
  <wgt id="829">5.37925e-12</wgt>
  <wgt id="830">1.61764e-12</wgt>
  <wgt id="831">6.47635e-12</wgt>
  <wgt id="832">9.96209e-12</wgt>
  <wgt id="833">3.86643e-12</wgt>
  <wgt id="834">9.85965e-12</wgt>
  <wgt id="835">3.20384e-12</wgt>
  <wgt id="836">3.88228e-12</wgt>
  <wgt id="837">6.3562e-12</wgt>
  <wgt id="838">3.77539e-12</wgt>
  <wgt id="839">6.5259e-12</wgt>
  <wgt id="840">4.27505e-12</wgt>
  <wgt id="841">7.77574e-12</wgt>
  <wgt id="842">5.42898e-12</wgt>
  <wgt id="843">5.70243e-12</wgt>
  <wgt id="844">6.05535e-12</wgt>
  <wgt id="845">1.02595e-11</wgt>
  <wgt id="846">4.92079e-12</wgt>
  <wgt id="847">5.77672e-12</wgt>
  <wgt id="848">2.48092e-12</wgt>
  <wgt id="849">5.95525e-12</wgt>
  <wgt id="850">8.74203e-12</wgt>
  <wgt id="851">6.47719e-12</wgt>
  <wgt id="852">1.8044e-12</wgt>
  <wgt id="853">6.84397e-12</wgt>
  <wgt id="854">7.90469e-12</wgt>
  <wgt id="855">6.67529e-12</wgt>
  <wgt id="856">1.57153e-12</wgt>
  <wgt id="857">4.19696e-12</wgt>
  <wgt id="858">5.01331e-12</wgt>
  <wgt id="859">5.03798e-12</wgt>
  <wgt id="860">7.08988e-12</wgt>
  <wgt id="861">4.02944e-12</wgt>
  <wgt id="862">5.43091e-12</wgt>
  <wgt id="863">6.32438e-12</wgt>
  <wgt id="864">5.33062e-12</wgt>
  <wgt id="865">9.07192e-12</wgt>
  <wgt id="866">1.00511e-11</wgt>
  <wgt id="867">5.25713e-12</wgt>
  <wgt id="868">5.63124e-12</wgt>
  <wgt id="869">2.31467e-12</wgt>
  <wgt id="870">3.19568e-12</wgt>
  <wgt id="871">3.43305e-12</wgt>
  <wgt id="872">8.27348e-12</wgt>
  <wgt id="873">3.90523e-12</wgt>
  <wgt id="874">6.00692e-12</wgt>
  <wgt id="875">3.64912e-12</wgt>
  <wgt id="876">7.77085e-12</wgt>
  <wgt id="877">6.10136e-12</wgt>
  <wgt id="878">4.09401e-12</wgt>
  <wgt id="879">8.27889e-12</wgt>
  <wgt id="880">8.35989e-12</wgt>
  <wgt id="881">9.20814e-12</wgt>
  <wgt id="882">8.77002e-12</wgt>
  <wgt id="883">8.39509e-12</wgt>
  <wgt id="884">8.00154e-12</wgt>
  <wgt id="885">8.77475e-12</wgt>
  <wgt id="886">7.41939e-12</wgt>
  <wgt id="887">8.79282e-12</wgt>
  <wgt id="888">8.35734e-12</wgt>
  <wgt id="889">8.58919e-12</wgt>
  <wgt id="890">8.46026e-12</wgt>
  <wgt id="891">8.01607e-12</wgt>
  <wgt id="892">8.69302e-12</wgt>
  <wgt id="893">8.47727e-12</wgt>
  <wgt id="894">8.47021e-12</wgt>
  <wgt id="895">8.02734e-12</wgt>
  <wgt id="896">1.13833e-11</wgt>
  <wgt id="897">9.23452e-12</wgt>
  <wgt id="898">7.6402e-12</wgt>
  <wgt id="899">7.87966e-12</wgt>
  <wgt id="900">7.30972e-12</wgt>
  <wgt id="901">6.60238e-12</wgt>
  <wgt id="902">6.91178e-12</wgt>
  <wgt id="903">7.31782e-12</wgt>
  <wgt id="904">8.26315e-12</wgt>
  <wgt id="905">7.86985e-12</wgt>
  <wgt id="906">1.05653e-11</wgt>
  <wgt id="907">9.38638e-12</wgt>
  <wgt id="908">9.41261e-12</wgt>
  <wgt id="909">7.65458e-12</wgt>
  <wgt id="910">7.6753e-12</wgt>
  <wgt id="911">7.76219e-12</wgt>
  <wgt id="912">7.9446e-12</wgt>
  <wgt id="913">6.63575e-12</wgt>
  <wgt id="914">9.03758e-12</wgt>
  <wgt id="915">7.67539e-12</wgt>
  <wgt id="916">8.93881e-12</wgt>
  <wgt id="917">7.24637e-12</wgt>
  <wgt id="918">7.80739e-12</wgt>
  <wgt id="919">7.91935e-12</wgt>
  <wgt id="920">6.9999e-12</wgt>
  <wgt id="921">8.50774e-12</wgt>
  <wgt id="922">7.5734e-12</wgt>
  <wgt id="923">8.65163e-12</wgt>
  <wgt id="924">6.96253e-12</wgt>
  <wgt id="925">6.24333e-12</wgt>
  <wgt id="926">9.50157e-12</wgt>
  <wgt id="927">9.08984e-12</wgt>
  <wgt id="928">8.66506e-12</wgt>
  <wgt id="929">8.1996e-12</wgt>
  <wgt id="930">8.37302e-12</wgt>
  <wgt id="931">8.20072e-12</wgt>
  <wgt id="932">7.34865e-12</wgt>
  <wgt id="933">9.30237e-12</wgt>
  <wgt id="934">8.15204e-12</wgt>
  <wgt id="935">9.79406e-12</wgt>
  <wgt id="936">7.57199e-12</wgt>
  <wgt id="937">8.59436e-12</wgt>
  <wgt id="938">8.22485e-12</wgt>
  <wgt id="939">7.54491e-12</wgt>
  <wgt id="940">7.36434e-12</wgt>
  <wgt id="941">7.84457e-12</wgt>
  <wgt id="942">8.74896e-12</wgt>
  <wgt id="943">1.00283e-11</wgt>
  <wgt id="944">8.9788e-12</wgt>
  <wgt id="945">7.74253e-12</wgt>
  <wgt id="946">7.49306e-12</wgt>
  <wgt id="947">8.08739e-12</wgt>
  <wgt id="948">9.20295e-12</wgt>
  <wgt id="949">9.47914e-12</wgt>
  <wgt id="950">6.71432e-12</wgt>
  <wgt id="951">7.918e-12</wgt>
  <wgt id="952">8.62819e-12</wgt>
  <wgt id="953">9.04591e-12</wgt>
  <wgt id="954">8.33338e-12</wgt>
  <wgt id="955">7.37746e-12</wgt>
  <wgt id="956">7.29213e-12</wgt>
  <wgt id="957">8.68914e-12</wgt>
  <wgt id="958">8.01171e-12</wgt>
  <wgt id="959">7.95266e-12</wgt>
  <wgt id="960">6.98274e-12</wgt>
  <wgt id="961">7.98987e-12</wgt>
  <wgt id="962">9.15051e-12</wgt>
  <wgt id="963">7.79248e-12</wgt>
  <wgt id="964">9.35352e-12</wgt>
  <wgt id="965">9.40128e-12</wgt>
  <wgt id="966">8.62667e-12</wgt>
  <wgt id="967">8.96579e-12</wgt>
  <wgt id="968">8.45281e-12</wgt>
  <wgt id="969">8.44988e-12</wgt>
  <wgt id="970">8.47211e-12</wgt>
  <wgt id="971">7.42084e-12</wgt>
  <wgt id="972">8.68703e-12</wgt>
  <wgt id="973">7.58834e-12</wgt>
  <wgt id="974">1.03468e-11</wgt>
  <wgt id="975">8.07186e-12</wgt>
  <wgt id="976">8.3783e-12</wgt>
  <wgt id="977">6.40157e-12</wgt>
  <wgt id="978">8.70949e-12</wgt>
  <wgt id="979">9.8551e-12</wgt>
  <wgt id="980">8.21133e-12</wgt>
  <wgt id="981">8.51916e-12</wgt>
  <wgt id="982">8.03652e-12</wgt>
</rwgt>
</event>
<event>
 5   1  0.5790000E-11  0.2298170E+04  0.7818608E-02  0.7712872E-01
       21   -1    0    0  502  501  0.00000000000E+00  0.00000000000E+00  0.13455125724E+04  0.13455125724E+04  0.00000000000E+00 0.  1.
       21   -1    0    0  501  502 -0.00000000000E+00 -0.00000000000E+00 -0.98133326823E+03  0.98133326823E+03  0.00000000000E+00 0. -1.
       39    2    1    2    0    0  0.00000000000E+00  0.00000000000E+00  0.36417930414E+03  0.23268458406E+04  0.22981699242E+04 0.  0.
       25    1    3    3    0    0  0.70629875342E+03 -0.18038658853E+03  0.10724796197E+04  0.13027796379E+04  0.12500000000E+03 0.  0.
       25    1    3    3    0    0 -0.70629875342E+03  0.18038658853E+03 -0.70830031556E+03  0.10240662027E+04  0.12500000000E+03 0.  0.
<mgrwt>
<rscale>  0 0.22981699E+04</rscale>
<asrwt>0</asrwt>
<pdfrwt beam="1">  1       21 0.20700194E+00 0.22981699E+04</pdfrwt>
<pdfrwt beam="2">  1       21 0.15097435E+00 0.22981699E+04</pdfrwt>
<totfact> 0.13590793E+01</totfact>
</mgrwt>
<rwgt>
  <wgt id="1">5.79e-12</wgt>
  <wgt id="2">5.04276e-12</wgt>
  <wgt id="3">6.71724e-12</wgt>
  <wgt id="4">5.79e-12</wgt>
  <wgt id="5">5.04276e-12</wgt>
  <wgt id="6">6.71724e-12</wgt>
  <wgt id="7">5.79e-12</wgt>
  <wgt id="8">5.04276e-12</wgt>
  <wgt id="9">6.71724e-12</wgt>
  <wgt id="10">5.98516e-12</wgt>
  <wgt id="11">5.97931e-12</wgt>
  <wgt id="12">5.9736e-12</wgt>
  <wgt id="13">5.96459e-12</wgt>
  <wgt id="14">6.00692e-12</wgt>
  <wgt id="15">5.99417e-12</wgt>
  <wgt id="16">5.97311e-12</wgt>
  <wgt id="17">5.99572e-12</wgt>
  <wgt id="18">5.97514e-12</wgt>
  <wgt id="19">5.99829e-12</wgt>
  <wgt id="20">5.96718e-12</wgt>
  <wgt id="21">5.95087e-12</wgt>
  <wgt id="22">5.96492e-12</wgt>
  <wgt id="23">5.93247e-12</wgt>
  <wgt id="24">5.95852e-12</wgt>
  <wgt id="25">5.97096e-12</wgt>
  <wgt id="26">6.00993e-12</wgt>
  <wgt id="27">5.98484e-12</wgt>
  <wgt id="28">5.95752e-12</wgt>
  <wgt id="29">5.99078e-12</wgt>
  <wgt id="30">5.9704e-12</wgt>
  <wgt id="31">6.00127e-12</wgt>
  <wgt id="32">5.975e-12</wgt>
  <wgt id="33">5.99944e-12</wgt>
  <wgt id="34">5.96677e-12</wgt>
  <wgt id="35">5.98043e-12</wgt>
  <wgt id="36">6.00281e-12</wgt>
  <wgt id="37">5.9698e-12</wgt>
  <wgt id="38">5.96849e-12</wgt>
  <wgt id="39">6.04618e-12</wgt>
  <wgt id="40">5.99829e-12</wgt>
  <wgt id="41">5.98376e-12</wgt>
  <wgt id="42">5.99983e-12</wgt>
  <wgt id="43">5.98743e-12</wgt>
  <wgt id="44">5.96515e-12</wgt>
  <wgt id="45">5.99719e-12</wgt>
  <wgt id="46">5.99391e-12</wgt>
  <wgt id="47">5.96184e-12</wgt>
  <wgt id="48">5.98496e-12</wgt>
  <wgt id="49">5.99914e-12</wgt>
  <wgt id="50">6.01926e-12</wgt>
  <wgt id="51">6.01045e-12</wgt>
  <wgt id="52">5.97467e-12</wgt>
  <wgt id="53">5.94402e-12</wgt>
  <wgt id="54">5.97241e-12</wgt>
  <wgt id="55">5.98428e-12</wgt>
  <wgt id="56">6.00591e-12</wgt>
  <wgt id="57">6.00516e-12</wgt>
  <wgt id="58">5.94468e-12</wgt>
  <wgt id="59">5.96443e-12</wgt>
  <wgt id="60">5.98763e-12</wgt>
  <wgt id="61">5.9716e-12</wgt>
  <wgt id="62">5.98181e-12</wgt>
  <wgt id="63">5.99018e-12</wgt>
  <wgt id="64">5.99166e-12</wgt>
  <wgt id="65">5.99199e-12</wgt>
  <wgt id="66">5.97716e-12</wgt>
  <wgt id="67">5.97316e-12</wgt>
  <wgt id="68">5.97915e-12</wgt>
  <wgt id="69">5.98447e-12</wgt>
  <wgt id="70">5.98159e-12</wgt>
  <wgt id="71">5.98349e-12</wgt>
  <wgt id="72">5.97761e-12</wgt>
  <wgt id="73">5.98924e-12</wgt>
  <wgt id="74">5.98852e-12</wgt>
  <wgt id="75">5.98121e-12</wgt>
  <wgt id="76">6.0003e-12</wgt>
  <wgt id="77">5.98413e-12</wgt>
  <wgt id="78">5.98648e-12</wgt>
  <wgt id="79">5.99629e-12</wgt>
  <wgt id="80">5.96136e-12</wgt>
  <wgt id="81">5.97828e-12</wgt>
  <wgt id="82">5.98528e-12</wgt>
  <wgt id="83">5.96305e-12</wgt>
  <wgt id="84">5.97384e-12</wgt>
  <wgt id="85">5.9741e-12</wgt>
  <wgt id="86">5.99944e-12</wgt>
  <wgt id="87">5.95597e-12</wgt>
  <wgt id="88">5.99178e-12</wgt>
  <wgt id="89">5.99066e-12</wgt>
  <wgt id="90">5.99399e-12</wgt>
  <wgt id="91">5.98971e-12</wgt>
  <wgt id="92">5.99599e-12</wgt>
  <wgt id="93">5.98514e-12</wgt>
  <wgt id="94">5.97989e-12</wgt>
  <wgt id="95">5.98974e-12</wgt>
  <wgt id="96">5.98902e-12</wgt>
  <wgt id="97">5.97697e-12</wgt>
  <wgt id="98">5.98783e-12</wgt>
  <wgt id="99">5.98116e-12</wgt>
  <wgt id="100">5.99061e-12</wgt>
  <wgt id="101">5.98383e-12</wgt>
  <wgt id="102">5.97947e-12</wgt>
  <wgt id="103">5.99296e-12</wgt>
  <wgt id="104">5.98154e-12</wgt>
  <wgt id="105">5.99119e-12</wgt>
  <wgt id="106">5.97744e-12</wgt>
  <wgt id="107">6.00066e-12</wgt>
  <wgt id="108">5.97941e-12</wgt>
  <wgt id="109">5.98642e-12</wgt>
  <wgt id="110">5.98486e-12</wgt>
  <wgt id="111">6.04691e-12</wgt>
  <wgt id="112">5.98154e-12</wgt>
  <wgt id="113">8.02002e-12</wgt>
  <wgt id="114">8.28455e-12</wgt>
  <wgt id="115">8.16989e-12</wgt>
  <wgt id="116">1.13851e-11</wgt>
  <wgt id="117">6.64668e-12</wgt>
  <wgt id="118">6.66971e-12</wgt>
  <wgt id="119">6.63383e-12</wgt>
  <wgt id="120">6.64745e-12</wgt>
  <wgt id="121">6.64651e-12</wgt>
  <wgt id="122">6.63497e-12</wgt>
  <wgt id="123">6.66278e-12</wgt>
  <wgt id="124">6.63706e-12</wgt>
  <wgt id="125">6.65292e-12</wgt>
  <wgt id="126">6.65863e-12</wgt>
  <wgt id="127">6.63894e-12</wgt>
  <wgt id="128">6.66753e-12</wgt>
  <wgt id="129">6.62625e-12</wgt>
  <wgt id="130">6.68536e-12</wgt>
  <wgt id="131">6.60731e-12</wgt>
  <wgt id="132">6.47532e-12</wgt>
  <wgt id="133">6.84961e-12</wgt>
  <wgt id="134">6.57605e-12</wgt>
  <wgt id="135">6.70199e-12</wgt>
  <wgt id="136">6.73079e-12</wgt>
  <wgt id="137">6.5451e-12</wgt>
  <wgt id="138">6.90102e-12</wgt>
  <wgt id="139">6.40099e-12</wgt>
  <wgt id="140">6.60245e-12</wgt>
  <wgt id="141">6.68124e-12</wgt>
  <wgt id="142">6.64764e-12</wgt>
  <wgt id="143">6.65593e-12</wgt>
  <wgt id="144">6.4658e-12</wgt>
  <wgt id="145">6.81438e-12</wgt>
  <wgt id="146">6.70445e-12</wgt>
  <wgt id="147">6.60115e-12</wgt>
  <wgt id="148">6.6668e-12</wgt>
  <wgt id="149">6.64518e-12</wgt>
  <wgt id="150">6.70393e-12</wgt>
  <wgt id="151">6.62002e-12</wgt>
  <wgt id="152">6.64979e-12</wgt>
  <wgt id="153">6.64574e-12</wgt>
  <wgt id="154">6.70121e-12</wgt>
  <wgt id="155">6.58201e-12</wgt>
  <wgt id="156">6.7733e-12</wgt>
  <wgt id="157">6.51181e-12</wgt>
  <wgt id="158">7.99653e-12</wgt>
  <wgt id="159">8.02996e-12</wgt>
  <wgt id="160">7.96961e-12</wgt>
  <wgt id="161">7.97659e-12</wgt>
  <wgt id="162">8.01855e-12</wgt>
  <wgt id="163">7.98798e-12</wgt>
  <wgt id="164">8.00925e-12</wgt>
  <wgt id="165">7.99954e-12</wgt>
  <wgt id="166">7.99408e-12</wgt>
  <wgt id="167">7.99068e-12</wgt>
  <wgt id="168">8.00478e-12</wgt>
  <wgt id="169">7.96233e-12</wgt>
  <wgt id="170">8.01795e-12</wgt>
  <wgt id="171">7.98792e-12</wgt>
  <wgt id="172">8.00881e-12</wgt>
  <wgt id="173">7.99635e-12</wgt>
  <wgt id="174">7.9964e-12</wgt>
  <wgt id="175">7.77409e-12</wgt>
  <wgt id="176">8.28652e-12</wgt>
  <wgt id="177">8.03865e-12</wgt>
  <wgt id="178">7.95764e-12</wgt>
  <wgt id="179">8.3263e-12</wgt>
  <wgt id="180">7.47519e-12</wgt>
  <wgt id="181">7.76677e-12</wgt>
  <wgt id="182">8.14816e-12</wgt>
  <wgt id="183">7.85603e-12</wgt>
  <wgt id="184">8.06607e-12</wgt>
  <wgt id="185">7.93265e-12</wgt>
  <wgt id="186">8.07351e-12</wgt>
  <wgt id="187">7.9253e-12</wgt>
  <wgt id="188">8.12502e-12</wgt>
  <wgt id="189">7.94601e-12</wgt>
  <wgt id="190">8.01729e-12</wgt>
  <wgt id="191">8.018e-12</wgt>
  <wgt id="192">7.98379e-12</wgt>
  <wgt id="193">8.10856e-12</wgt>
  <wgt id="194">7.94118e-12</wgt>
  <wgt id="195">7.80693e-12</wgt>
  <wgt id="196">8.33825e-12</wgt>
  <wgt id="197">8.03596e-12</wgt>
  <wgt id="198">7.98711e-12</wgt>
  <wgt id="199">7.99653e-12</wgt>
  <wgt id="200">8.06411e-12</wgt>
  <wgt id="201">8.0394e-12</wgt>
  <wgt id="202">8.01522e-12</wgt>
  <wgt id="203">7.97894e-12</wgt>
  <wgt id="204">7.96182e-12</wgt>
  <wgt id="205">7.94774e-12</wgt>
  <wgt id="206">7.7635e-12</wgt>
  <wgt id="207">7.80875e-12</wgt>
  <wgt id="208">7.71869e-12</wgt>
  <wgt id="209">7.78684e-12</wgt>
  <wgt id="210">7.74646e-12</wgt>
  <wgt id="211">7.76086e-12</wgt>
  <wgt id="212">7.76554e-12</wgt>
  <wgt id="213">7.76292e-12</wgt>
  <wgt id="214">7.76461e-12</wgt>
  <wgt id="215">7.76895e-12</wgt>
  <wgt id="216">7.75941e-12</wgt>
  <wgt id="217">7.78533e-12</wgt>
  <wgt id="218">7.74639e-12</wgt>
  <wgt id="219">7.75523e-12</wgt>
  <wgt id="220">7.76865e-12</wgt>
  <wgt id="221">7.75993e-12</wgt>
  <wgt id="222">7.77174e-12</wgt>
  <wgt id="223">7.3583e-12</wgt>
  <wgt id="224">8.13196e-12</wgt>
  <wgt id="225">7.67191e-12</wgt>
  <wgt id="226">7.87838e-12</wgt>
  <wgt id="227">7.69104e-12</wgt>
  <wgt id="228">7.79538e-12</wgt>
  <wgt id="229">7.65696e-12</wgt>
  <wgt id="230">7.81654e-12</wgt>
  <wgt id="231">7.98186e-12</wgt>
  <wgt id="232">7.58386e-12</wgt>
  <wgt id="233">7.72384e-12</wgt>
  <wgt id="234">7.82536e-12</wgt>
  <wgt id="235">7.61348e-12</wgt>
  <wgt id="236">7.90539e-12</wgt>
  <wgt id="237">7.66056e-12</wgt>
  <wgt id="238">7.79871e-12</wgt>
  <wgt id="239">7.71843e-12</wgt>
  <wgt id="240">7.84505e-12</wgt>
  <wgt id="241">7.68615e-12</wgt>
  <wgt id="242">7.85662e-12</wgt>
  <wgt id="243">7.85396e-12</wgt>
  <wgt id="244">7.80646e-12</wgt>
  <wgt id="245">7.75771e-12</wgt>
  <wgt id="246">7.82133e-12</wgt>
  <wgt id="247">7.7635e-12</wgt>
  <wgt id="248">7.82958e-12</wgt>
  <wgt id="249">7.8042e-12</wgt>
  <wgt id="250">7.78073e-12</wgt>
  <wgt id="251">7.74522e-12</wgt>
  <wgt id="252">7.7287e-12</wgt>
  <wgt id="253">7.71666e-12</wgt>
  <wgt id="254">7.60504e-12</wgt>
  <wgt id="255">7.61221e-12</wgt>
  <wgt id="256">7.59704e-12</wgt>
  <wgt id="257">7.61082e-12</wgt>
  <wgt id="258">7.60078e-12</wgt>
  <wgt id="259">7.65565e-12</wgt>
  <wgt id="260">7.55611e-12</wgt>
  <wgt id="261">7.61518e-12</wgt>
  <wgt id="262">7.59278e-12</wgt>
  <wgt id="263">7.60169e-12</wgt>
  <wgt id="264">7.60857e-12</wgt>
  <wgt id="265">7.59644e-12</wgt>
  <wgt id="266">7.62212e-12</wgt>
  <wgt id="267">7.60739e-12</wgt>
  <wgt id="268">7.60153e-12</wgt>
  <wgt id="269">7.62902e-12</wgt>
  <wgt id="270">7.58873e-12</wgt>
  <wgt id="271">7.59209e-12</wgt>
  <wgt id="272">7.61921e-12</wgt>
  <wgt id="273">7.58165e-12</wgt>
  <wgt id="274">7.62278e-12</wgt>
  <wgt id="275">7.57464e-12</wgt>
  <wgt id="276">7.63641e-12</wgt>
  <wgt id="277">7.56226e-12</wgt>
  <wgt id="278">7.64439e-12</wgt>
  <wgt id="279">7.46107e-12</wgt>
  <wgt id="280">7.78519e-12</wgt>
  <wgt id="281">7.5721e-12</wgt>
  <wgt id="282">7.6063e-12</wgt>
  <wgt id="283">7.39258e-12</wgt>
  <wgt id="284">7.866e-12</wgt>
  <wgt id="285">7.25211e-12</wgt>
  <wgt id="286">7.8961e-12</wgt>
  <wgt id="287">7.62838e-12</wgt>
  <wgt id="288">7.57534e-12</wgt>
  <wgt id="289">7.65681e-12</wgt>
  <wgt id="290">7.48379e-12</wgt>
  <wgt id="291">7.58544e-12</wgt>
  <wgt id="292">7.60971e-12</wgt>
  <wgt id="293">7.54821e-12</wgt>
  <wgt id="294">7.66124e-12</wgt>
  <wgt id="295">7.46483e-12</wgt>
  <wgt id="296">7.77565e-12</wgt>
  <wgt id="297">7.60591e-12</wgt>
  <wgt id="298">7.63172e-12</wgt>
  <wgt id="299">7.58121e-12</wgt>
  <wgt id="300">7.66782e-12</wgt>
  <wgt id="301">7.50749e-12</wgt>
  <wgt id="302">7.85684e-12</wgt>
  <wgt id="303">7.55065e-12</wgt>
  <wgt id="304">7.63616e-12</wgt>
  <wgt id="305">7.63426e-12</wgt>
  <wgt id="306">7.6423e-12</wgt>
  <wgt id="307">7.62587e-12</wgt>
  <wgt id="308">7.64073e-12</wgt>
  <wgt id="309">7.63015e-12</wgt>
  <wgt id="310">7.68715e-12</wgt>
  <wgt id="311">7.58534e-12</wgt>
  <wgt id="312">7.64247e-12</wgt>
  <wgt id="313">7.62617e-12</wgt>
  <wgt id="314">7.63124e-12</wgt>
  <wgt id="315">7.63749e-12</wgt>
  <wgt id="316">7.62622e-12</wgt>
  <wgt id="317">7.65219e-12</wgt>
  <wgt id="318">7.63993e-12</wgt>
  <wgt id="319">7.62509e-12</wgt>
  <wgt id="320">7.65945e-12</wgt>
  <wgt id="321">7.62063e-12</wgt>
  <wgt id="322">7.61775e-12</wgt>
  <wgt id="323">7.65413e-12</wgt>
  <wgt id="324">7.61492e-12</wgt>
  <wgt id="325">7.65147e-12</wgt>
  <wgt id="326">7.60993e-12</wgt>
  <wgt id="327">7.66571e-12</wgt>
  <wgt id="328">7.59572e-12</wgt>
  <wgt id="329">7.6565e-12</wgt>
  <wgt id="330">7.85647e-12</wgt>
  <wgt id="331">7.42237e-12</wgt>
  <wgt id="332">7.60705e-12</wgt>
  <wgt id="333">7.63451e-12</wgt>
  <wgt id="334">7.46725e-12</wgt>
  <wgt id="335">7.84179e-12</wgt>
  <wgt id="336">7.37738e-12</wgt>
  <wgt id="337">7.94605e-12</wgt>
  <wgt id="338">7.71657e-12</wgt>
  <wgt id="339">7.55803e-12</wgt>
  <wgt id="340">7.68357e-12</wgt>
  <wgt id="341">7.50714e-12</wgt>
  <wgt id="342">7.62065e-12</wgt>
  <wgt id="343">7.62718e-12</wgt>
  <wgt id="344">7.58242e-12</wgt>
  <wgt id="345">7.69436e-12</wgt>
  <wgt id="346">7.48846e-12</wgt>
  <wgt id="347">7.8021e-12</wgt>
  <wgt id="348">7.63864e-12</wgt>
  <wgt id="349">7.65609e-12</wgt>
  <wgt id="350">7.60417e-12</wgt>
  <wgt id="351">7.71047e-12</wgt>
  <wgt id="352">7.52577e-12</wgt>
  <wgt id="353">7.89943e-12</wgt>
  <wgt id="354">7.5511e-12</wgt>
  <wgt id="355">7.68549e-12</wgt>
  <wgt id="356">7.60504e-12</wgt>
  <wgt id="357">7.66728e-12</wgt>
  <wgt id="358">7.63426e-12</wgt>
  <wgt id="359">7.63331e-12</wgt>
  <wgt id="360">7.65026e-12</wgt>
  <wgt id="361">7.62774e-12</wgt>
  <wgt id="362">7.75647e-12</wgt>
  <wgt id="363">7.73832e-12</wgt>
  <wgt id="364">7.71305e-12</wgt>
  <wgt id="365">7.68777e-12</wgt>
  <wgt id="366">7.65924e-12</wgt>
  <wgt id="367">7.60022e-12</wgt>
  <wgt id="368">7.56791e-12</wgt>
  <wgt id="369">7.53324e-12</wgt>
  <wgt id="370">7.62774e-12</wgt>
  <wgt id="371">7.66181e-12</wgt>
  <wgt id="372">7.64301e-12</wgt>
  <wgt id="373">7.61514e-12</wgt>
  <wgt id="374">7.61189e-12</wgt>
  <wgt id="375">8.11021e-12</wgt>
  <wgt id="376">8.11116e-12</wgt>
  <wgt id="377">8.10879e-12</wgt>
  <wgt id="378">8.13947e-12</wgt>
  <wgt id="379">8.08087e-12</wgt>
  <wgt id="380">8.13179e-12</wgt>
  <wgt id="381">8.10153e-12</wgt>
  <wgt id="382">8.15154e-12</wgt>
  <wgt id="383">8.06924e-12</wgt>
  <wgt id="384">8.11549e-12</wgt>
  <wgt id="385">8.10518e-12</wgt>
  <wgt id="386">8.14205e-12</wgt>
  <wgt id="387">8.09626e-12</wgt>
  <wgt id="388">8.1025e-12</wgt>
  <wgt id="389">8.11932e-12</wgt>
  <wgt id="390">8.13187e-12</wgt>
  <wgt id="391">8.08732e-12</wgt>
  <wgt id="392">8.05034e-12</wgt>
  <wgt id="393">8.14424e-12</wgt>
  <wgt id="394">8.12182e-12</wgt>
  <wgt id="395">8.09449e-12</wgt>
  <wgt id="396">8.11456e-12</wgt>
  <wgt id="397">8.10726e-12</wgt>
  <wgt id="398">8.07558e-12</wgt>
  <wgt id="399">8.14362e-12</wgt>
  <wgt id="400">8.09669e-12</wgt>
  <wgt id="401">8.14018e-12</wgt>
  <wgt id="402">8.04595e-12</wgt>
  <wgt id="403">8.13782e-12</wgt>
  <wgt id="404">8.29185e-12</wgt>
  <wgt id="405">7.67188e-12</wgt>
  <wgt id="406">7.97973e-12</wgt>
  <wgt id="407">8.39237e-12</wgt>
  <wgt id="408">8.17713e-12</wgt>
  <wgt id="409">7.98189e-12</wgt>
  <wgt id="410">7.89589e-12</wgt>
  <wgt id="411">8.2089e-12</wgt>
  <wgt id="412">8.09642e-12</wgt>
  <wgt id="413">8.13027e-12</wgt>
  <wgt id="414">8.02451e-12</wgt>
  <wgt id="415">8.17667e-12</wgt>
  <wgt id="416">8.31592e-12</wgt>
  <wgt id="417">7.82569e-12</wgt>
  <wgt id="418">8.12079e-12</wgt>
  <wgt id="419">8.05392e-12</wgt>
  <wgt id="420">8.22151e-12</wgt>
  <wgt id="421">8.04849e-12</wgt>
  <wgt id="422">8.10097e-12</wgt>
  <wgt id="423">8.11637e-12</wgt>
  <wgt id="424">8.26453e-12</wgt>
  <wgt id="425">8.01414e-12</wgt>
  <wgt id="426">8.11021e-12</wgt>
  <wgt id="427">8.04403e-12</wgt>
  <wgt id="428">8.30832e-12</wgt>
  <wgt id="429">8.17918e-12</wgt>
  <wgt id="430">8.4017e-12</wgt>
  <wgt id="431">8.35713e-12</wgt>
  <wgt id="432">8.31514e-12</wgt>
  <wgt id="433">8.27441e-12</wgt>
  <wgt id="434">8.2251e-12</wgt>
  <wgt id="435">8.12171e-12</wgt>
  <wgt id="436">8.06853e-12</wgt>
  <wgt id="437">8.01768e-12</wgt>
  <wgt id="438">8.17918e-12</wgt>
  <wgt id="439">8.20622e-12</wgt>
  <wgt id="440">8.19022e-12</wgt>
  <wgt id="441">8.17073e-12</wgt>
  <wgt id="442">8.16369e-12</wgt>
  <wgt id="443">7.95114e-12</wgt>
  <wgt id="444">7.99223e-12</wgt>
  <wgt id="445">7.92085e-12</wgt>
  <wgt id="446">7.90151e-12</wgt>
  <wgt id="447">7.92382e-12</wgt>
  <wgt id="448">7.74726e-12</wgt>
  <wgt id="449">8.06979e-12</wgt>
  <wgt id="450">7.92202e-12</wgt>
  <wgt id="451">7.93889e-12</wgt>
  <wgt id="452">8.12306e-12</wgt>
  <wgt id="453">8.0216e-12</wgt>
  <wgt id="454">7.64178e-12</wgt>
  <wgt id="455">7.96118e-12</wgt>
  <wgt id="456">7.86332e-12</wgt>
  <wgt id="457">7.98211e-12</wgt>
  <wgt id="458">8.0391e-12</wgt>
  <wgt id="459">8.00243e-12</wgt>
  <wgt id="460">7.99534e-12</wgt>
  <wgt id="461">7.81252e-12</wgt>
  <wgt id="462">7.88988e-12</wgt>
  <wgt id="463">7.86877e-12</wgt>
  <wgt id="464">7.90902e-12</wgt>
  <wgt id="465">8.02989e-12</wgt>
  <wgt id="466">7.86443e-12</wgt>
  <wgt id="467">7.87821e-12</wgt>
  <wgt id="468">7.93054e-12</wgt>
  <wgt id="469">7.93043e-12</wgt>
  <wgt id="470">7.88298e-12</wgt>
  <wgt id="471">7.88488e-12</wgt>
  <wgt id="472">7.98582e-12</wgt>
  <wgt id="473">7.7084e-12</wgt>
  <wgt id="474">5.79e-12</wgt>
  <wgt id="475">6.13856e-12</wgt>
  <wgt id="476">5.66868e-12</wgt>
  <wgt id="477">5.62216e-12</wgt>
  <wgt id="478">5.82182e-12</wgt>
  <wgt id="479">5.69339e-12</wgt>
  <wgt id="480">5.98911e-12</wgt>
  <wgt id="481">5.6682e-12</wgt>
  <wgt id="482">5.5786e-12</wgt>
  <wgt id="483">5.64036e-12</wgt>
  <wgt id="484">6.17046e-12</wgt>
  <wgt id="485">5.78751e-12</wgt>
  <wgt id="486">5.92894e-12</wgt>
  <wgt id="487">5.88764e-12</wgt>
  <wgt id="488">5.87098e-12</wgt>
  <wgt id="489">5.58651e-12</wgt>
  <wgt id="490">5.60783e-12</wgt>
  <wgt id="491">5.72978e-12</wgt>
  <wgt id="492">5.6177e-12</wgt>
  <wgt id="493">5.58125e-12</wgt>
  <wgt id="494">5.61716e-12</wgt>
  <wgt id="495">5.89983e-12</wgt>
  <wgt id="496">5.59864e-12</wgt>
  <wgt id="497">5.57147e-12</wgt>
  <wgt id="498">5.87352e-12</wgt>
  <wgt id="499">5.65148e-12</wgt>
  <wgt id="500">5.69332e-12</wgt>
  <wgt id="501">6.04693e-12</wgt>
  <wgt id="502">5.64804e-12</wgt>
  <wgt id="503">5.78144e-12</wgt>
  <wgt id="504">5.8269e-12</wgt>
  <wgt id="505">5.77981e-12</wgt>
  <wgt id="506">5.89075e-12</wgt>
  <wgt id="507">5.73758e-12</wgt>
  <wgt id="508">5.88492e-12</wgt>
  <wgt id="509">5.67033e-12</wgt>
  <wgt id="510">5.93812e-12</wgt>
  <wgt id="511">5.66826e-12</wgt>
  <wgt id="512">5.87641e-12</wgt>
  <wgt id="513">6.02673e-12</wgt>
  <wgt id="514">5.7548e-12</wgt>
  <wgt id="515">5.71956e-12</wgt>
  <wgt id="516">5.95952e-12</wgt>
  <wgt id="517">5.91492e-12</wgt>
  <wgt id="518">5.9321e-12</wgt>
  <wgt id="519">5.63706e-12</wgt>
  <wgt id="520">5.84085e-12</wgt>
  <wgt id="521">5.98925e-12</wgt>
  <wgt id="522">6.0135e-12</wgt>
  <wgt id="523">5.9044e-12</wgt>
  <wgt id="524">5.87708e-12</wgt>
  <wgt id="525">5.95684e-12</wgt>
  <wgt id="526">5.8062e-12</wgt>
  <wgt id="527">5.88167e-12</wgt>
  <wgt id="528">5.80844e-12</wgt>
  <wgt id="529">5.70242e-12</wgt>
  <wgt id="530">5.84507e-12</wgt>
  <wgt id="531">5.72199e-12</wgt>
  <wgt id="532">6.1096e-12</wgt>
  <wgt id="533">5.45372e-12</wgt>
  <wgt id="534">5.80564e-12</wgt>
  <wgt id="535">5.891e-12</wgt>
  <wgt id="536">5.77079e-12</wgt>
  <wgt id="537">5.80795e-12</wgt>
  <wgt id="538">5.86877e-12</wgt>
  <wgt id="539">5.67464e-12</wgt>
  <wgt id="540">5.70216e-12</wgt>
  <wgt id="541">5.65152e-12</wgt>
  <wgt id="542">5.6844e-12</wgt>
  <wgt id="543">5.77966e-12</wgt>
  <wgt id="544">6.07042e-12</wgt>
  <wgt id="545">5.71238e-12</wgt>
  <wgt id="546">5.71544e-12</wgt>
  <wgt id="547">5.61955e-12</wgt>
  <wgt id="548">5.55503e-12</wgt>
  <wgt id="549">5.69461e-12</wgt>
  <wgt id="550">5.76321e-12</wgt>
  <wgt id="551">5.85397e-12</wgt>
  <wgt id="552">5.72677e-12</wgt>
  <wgt id="553">5.77141e-12</wgt>
  <wgt id="554">6.21661e-12</wgt>
  <wgt id="555">5.94325e-12</wgt>
  <wgt id="556">5.60783e-12</wgt>
  <wgt id="557">5.88735e-12</wgt>
  <wgt id="558">5.60757e-12</wgt>
  <wgt id="559">5.71155e-12</wgt>
  <wgt id="560">6.27133e-12</wgt>
  <wgt id="561">5.67324e-12</wgt>
  <wgt id="562">5.88242e-12</wgt>
  <wgt id="563">5.64318e-12</wgt>
  <wgt id="564">5.80259e-12</wgt>
  <wgt id="565">5.59176e-12</wgt>
  <wgt id="566">5.8699e-12</wgt>
  <wgt id="567">5.70941e-12</wgt>
  <wgt id="568">5.77757e-12</wgt>
  <wgt id="569">5.87387e-12</wgt>
  <wgt id="570">5.62114e-12</wgt>
  <wgt id="571">6.40991e-12</wgt>
  <wgt id="572">5.66234e-12</wgt>
  <wgt id="573">5.53865e-12</wgt>
  <wgt id="574">5.58885e-12</wgt>
  <wgt id="575">6.36392e-12</wgt>
  <wgt id="576">6.30355e-12</wgt>
  <wgt id="577">6.5559e-12</wgt>
  <wgt id="578">6.51439e-12</wgt>
  <wgt id="579">6.45838e-12</wgt>
  <wgt id="580">6.48347e-12</wgt>
  <wgt id="581">6.76606e-12</wgt>
  <wgt id="582">6.28813e-12</wgt>
  <wgt id="583">6.42858e-12</wgt>
  <wgt id="584">6.36889e-12</wgt>
  <wgt id="585">6.39498e-12</wgt>
  <wgt id="586">6.21578e-12</wgt>
  <wgt id="587">6.44673e-12</wgt>
  <wgt id="588">6.33194e-12</wgt>
  <wgt id="589">6.47476e-12</wgt>
  <wgt id="590">6.46177e-12</wgt>
  <wgt id="591">6.60758e-12</wgt>
  <wgt id="592">6.22114e-12</wgt>
  <wgt id="593">6.33263e-12</wgt>
  <wgt id="594">6.57655e-12</wgt>
  <wgt id="595">6.33655e-12</wgt>
  <wgt id="596">6.44089e-12</wgt>
  <wgt id="597">6.16289e-12</wgt>
  <wgt id="598">6.22473e-12</wgt>
  <wgt id="599">6.67035e-12</wgt>
  <wgt id="600">6.30792e-12</wgt>
  <wgt id="601">6.18412e-12</wgt>
  <wgt id="602">6.23079e-12</wgt>
  <wgt id="603">6.25456e-12</wgt>
  <wgt id="604">6.45303e-12</wgt>
  <wgt id="605">6.61838e-12</wgt>
  <wgt id="606">6.22583e-12</wgt>
  <wgt id="607">6.28713e-12</wgt>
  <wgt id="608">6.38973e-12</wgt>
  <wgt id="609">6.01519e-12</wgt>
  <wgt id="610">6.12497e-12</wgt>
  <wgt id="611">6.436e-12</wgt>
  <wgt id="612">6.82319e-12</wgt>
  <wgt id="613">6.35413e-12</wgt>
  <wgt id="614">6.44176e-12</wgt>
  <wgt id="615">6.24009e-12</wgt>
  <wgt id="616">6.73588e-12</wgt>
  <wgt id="617">6.59012e-12</wgt>
  <wgt id="618">6.47077e-12</wgt>
  <wgt id="619">6.30499e-12</wgt>
  <wgt id="620">6.60955e-12</wgt>
  <wgt id="621">6.44733e-12</wgt>
  <wgt id="622">6.44673e-12</wgt>
  <wgt id="623">6.53542e-12</wgt>
  <wgt id="624">6.33727e-12</wgt>
  <wgt id="625">6.28621e-12</wgt>
  <wgt id="626">6.20892e-12</wgt>
  <wgt id="627">6.12021e-12</wgt>
  <wgt id="628">6.70953e-12</wgt>
  <wgt id="629">6.22767e-12</wgt>
  <wgt id="630">6.16047e-12</wgt>
  <wgt id="631">6.38464e-12</wgt>
  <wgt id="632">6.15113e-12</wgt>
  <wgt id="633">6.29237e-12</wgt>
  <wgt id="634">6.36199e-12</wgt>
  <wgt id="635">6.25052e-12</wgt>
  <wgt id="636">6.40465e-12</wgt>
  <wgt id="637">6.36296e-12</wgt>
  <wgt id="638">6.13224e-12</wgt>
  <wgt id="639">6.28443e-12</wgt>
  <wgt id="640">6.37077e-12</wgt>
  <wgt id="641">6.39921e-12</wgt>
  <wgt id="642">6.17915e-12</wgt>
  <wgt id="643">6.33192e-12</wgt>
  <wgt id="644">6.11536e-12</wgt>
  <wgt id="645">6.41244e-12</wgt>
  <wgt id="646">6.45754e-12</wgt>
  <wgt id="647">6.27486e-12</wgt>
  <wgt id="648">6.40091e-12</wgt>
  <wgt id="649">6.45719e-12</wgt>
  <wgt id="650">6.24226e-12</wgt>
  <wgt id="651">6.41734e-12</wgt>
  <wgt id="652">6.33028e-12</wgt>
  <wgt id="653">6.19069e-12</wgt>
  <wgt id="654">6.32609e-12</wgt>
  <wgt id="655">6.24934e-12</wgt>
  <wgt id="656">6.38076e-12</wgt>
  <wgt id="657">6.57016e-12</wgt>
  <wgt id="658">6.41594e-12</wgt>
  <wgt id="659">6.12233e-12</wgt>
  <wgt id="660">6.48061e-12</wgt>
  <wgt id="661">6.26498e-12</wgt>
  <wgt id="662">6.34939e-12</wgt>
  <wgt id="663">6.35856e-12</wgt>
  <wgt id="664">6.27057e-12</wgt>
  <wgt id="665">6.34372e-12</wgt>
  <wgt id="666">6.32536e-12</wgt>
  <wgt id="667">6.56469e-12</wgt>
  <wgt id="668">6.34645e-12</wgt>
  <wgt id="669">6.51701e-12</wgt>
  <wgt id="670">6.47341e-12</wgt>
  <wgt id="671">6.29081e-12</wgt>
  <wgt id="672">6.09884e-12</wgt>
  <wgt id="673">6.37006e-12</wgt>
  <wgt id="674">6.23791e-12</wgt>
  <wgt id="675">6.2575e-12</wgt>
  <wgt id="676">7.98656e-12</wgt>
  <wgt id="677">8.08443e-12</wgt>
  <wgt id="678">8.36268e-12</wgt>
  <wgt id="679">7.53638e-12</wgt>
  <wgt id="680">7.76747e-12</wgt>
  <wgt id="681">8.17856e-12</wgt>
  <wgt id="682">8.1754e-12</wgt>
  <wgt id="683">7.89185e-12</wgt>
  <wgt id="684">8.3384e-12</wgt>
  <wgt id="685">7.58033e-12</wgt>
  <wgt id="686">7.90339e-12</wgt>
  <wgt id="687">8.35877e-12</wgt>
  <wgt id="688">7.94241e-12</wgt>
  <wgt id="689">8.5896e-12</wgt>
  <wgt id="690">8.40427e-12</wgt>
  <wgt id="691">8.43884e-12</wgt>
  <wgt id="692">7.92291e-12</wgt>
  <wgt id="693">9.30186e-12</wgt>
  <wgt id="694">8.45253e-12</wgt>
  <wgt id="695">7.73474e-12</wgt>
  <wgt id="696">7.59245e-12</wgt>
  <wgt id="697">7.74893e-12</wgt>
  <wgt id="698">7.39307e-12</wgt>
  <wgt id="699">7.323e-12</wgt>
  <wgt id="700">7.03585e-12</wgt>
  <wgt id="701">8.00882e-12</wgt>
  <wgt id="702">7.70481e-12</wgt>
  <wgt id="703">9.11091e-12</wgt>
  <wgt id="704">8.67218e-12</wgt>
  <wgt id="705">8.32971e-12</wgt>
  <wgt id="706">7.46084e-12</wgt>
  <wgt id="707">7.67529e-12</wgt>
  <wgt id="708">7.88423e-12</wgt>
  <wgt id="709">7.8492e-12</wgt>
  <wgt id="710">7.19322e-12</wgt>
  <wgt id="711">7.95615e-12</wgt>
  <wgt id="712">7.85791e-12</wgt>
  <wgt id="713">8.5883e-12</wgt>
  <wgt id="714">7.88823e-12</wgt>
  <wgt id="715">7.90281e-12</wgt>
  <wgt id="716">7.69091e-12</wgt>
  <wgt id="717">7.63179e-12</wgt>
  <wgt id="718">7.92781e-12</wgt>
  <wgt id="719">7.28095e-12</wgt>
  <wgt id="720">7.5526e-12</wgt>
  <wgt id="721">7.43856e-12</wgt>
  <wgt id="722">7.14296e-12</wgt>
  <wgt id="723">8.48451e-12</wgt>
  <wgt id="724">8.33908e-12</wgt>
  <wgt id="725">8.42782e-12</wgt>
  <wgt id="726">8.06541e-12</wgt>
  <wgt id="727">7.80642e-12</wgt>
  <wgt id="728">7.85038e-12</wgt>
  <wgt id="729">7.31038e-12</wgt>
  <wgt id="730">8.5618e-12</wgt>
  <wgt id="731">7.89506e-12</wgt>
  <wgt id="732">8.74514e-12</wgt>
  <wgt id="733">7.96711e-12</wgt>
  <wgt id="734">8.17563e-12</wgt>
  <wgt id="735">7.95707e-12</wgt>
  <wgt id="736">7.84921e-12</wgt>
  <wgt id="737">8.11499e-12</wgt>
  <wgt id="738">7.62884e-12</wgt>
  <wgt id="739">8.05812e-12</wgt>
  <wgt id="740">8.85154e-12</wgt>
  <wgt id="741">7.13088e-12</wgt>
  <wgt id="742">7.86839e-12</wgt>
  <wgt id="743">7.67094e-12</wgt>
  <wgt id="744">7.82624e-12</wgt>
  <wgt id="745">8.32354e-12</wgt>
  <wgt id="746">8.44671e-12</wgt>
  <wgt id="747">7.28605e-12</wgt>
  <wgt id="748">7.87561e-12</wgt>
  <wgt id="749">8.41199e-12</wgt>
  <wgt id="750">8.07581e-12</wgt>
  <wgt id="751">8.24752e-12</wgt>
  <wgt id="752">7.34843e-12</wgt>
  <wgt id="753">7.59917e-12</wgt>
  <wgt id="754">8.29186e-12</wgt>
  <wgt id="755">8.02087e-12</wgt>
  <wgt id="756">8.02819e-12</wgt>
  <wgt id="757">7.38127e-12</wgt>
  <wgt id="758">8.06295e-12</wgt>
  <wgt id="759">8.09904e-12</wgt>
  <wgt id="760">8.09633e-12</wgt>
  <wgt id="761">8.41214e-12</wgt>
  <wgt id="762">8.44374e-12</wgt>
  <wgt id="763">7.97543e-12</wgt>
  <wgt id="764">8.28921e-12</wgt>
  <wgt id="765">8.09597e-12</wgt>
  <wgt id="766">7.96881e-12</wgt>
  <wgt id="767">8.17895e-12</wgt>
  <wgt id="768">7.55879e-12</wgt>
  <wgt id="769">8.45618e-12</wgt>
  <wgt id="770">7.7737e-12</wgt>
  <wgt id="771">9.39385e-12</wgt>
  <wgt id="772">7.53879e-12</wgt>
  <wgt id="773">7.93723e-12</wgt>
  <wgt id="774">7.14096e-12</wgt>
  <wgt id="775">8.38634e-12</wgt>
  <wgt id="776">8.71445e-12</wgt>
  <wgt id="777">7.64478e-12</wgt>
  <wgt id="778">5.92202e-12</wgt>
  <wgt id="779">4.9516e-12</wgt>
  <wgt id="780">4.07401e-12</wgt>
  <wgt id="781">6.05146e-12</wgt>
  <wgt id="782">6.28119e-12</wgt>
  <wgt id="783">5.02071e-12</wgt>
  <wgt id="784">5.19837e-12</wgt>
  <wgt id="785">7.18254e-12</wgt>
  <wgt id="786">4.58233e-12</wgt>
  <wgt id="787">6.70931e-12</wgt>
  <wgt id="788">3.77815e-12</wgt>
  <wgt id="789">4.77892e-12</wgt>
  <wgt id="790">4.53788e-12</wgt>
  <wgt id="791">5.55604e-12</wgt>
  <wgt id="792">7.68871e-12</wgt>
  <wgt id="793">5.77371e-12</wgt>
  <wgt id="794">4.57018e-12</wgt>
  <wgt id="795">6.89138e-12</wgt>
  <wgt id="796">7.75006e-12</wgt>
  <wgt id="797">6.83463e-12</wgt>
  <wgt id="798">5.46595e-12</wgt>
  <wgt id="799">6.71659e-12</wgt>
  <wgt id="800">4.82507e-12</wgt>
  <wgt id="801">5.54524e-12</wgt>
  <wgt id="802">4.60017e-12</wgt>
  <wgt id="803">7.72329e-12</wgt>
  <wgt id="804">6.84232e-12</wgt>
  <wgt id="805">6.96291e-12</wgt>
  <wgt id="806">6.62876e-12</wgt>
  <wgt id="807">5.65545e-12</wgt>
  <wgt id="808">5.76606e-12</wgt>
  <wgt id="809">5.46414e-12</wgt>
  <wgt id="810">6.73228e-12</wgt>
  <wgt id="811">6.44718e-12</wgt>
  <wgt id="812">4.54095e-12</wgt>
  <wgt id="813">4.63575e-12</wgt>
  <wgt id="814">5.02799e-12</wgt>
  <wgt id="815">4.96448e-12</wgt>
  <wgt id="816">4.39227e-12</wgt>
  <wgt id="817">6.21648e-12</wgt>
  <wgt id="818">5.86385e-12</wgt>
  <wgt id="819">4.95753e-12</wgt>
  <wgt id="820">5.92948e-12</wgt>
  <wgt id="821">6.78202e-12</wgt>
  <wgt id="822">4.96885e-12</wgt>
  <wgt id="823">6.81941e-12</wgt>
  <wgt id="824">7.9257e-12</wgt>
  <wgt id="825">4.41016e-12</wgt>
  <wgt id="826">6.23803e-12</wgt>
  <wgt id="827">3.6627e-12</wgt>
  <wgt id="828">7.58061e-12</wgt>
  <wgt id="829">6.14275e-12</wgt>
  <wgt id="830">4.18498e-12</wgt>
  <wgt id="831">6.3642e-12</wgt>
  <wgt id="832">9.63955e-12</wgt>
  <wgt id="833">5.53533e-12</wgt>
  <wgt id="834">9.03276e-12</wgt>
  <wgt id="835">4.82271e-12</wgt>
  <wgt id="836">5.89254e-12</wgt>
  <wgt id="837">6.69558e-12</wgt>
  <wgt id="838">5.64548e-12</wgt>
  <wgt id="839">6.32663e-12</wgt>
  <wgt id="840">5.55342e-12</wgt>
  <wgt id="841">7.24677e-12</wgt>
  <wgt id="842">5.39617e-12</wgt>
  <wgt id="843">5.81599e-12</wgt>
  <wgt id="844">6.17032e-12</wgt>
  <wgt id="845">8.25088e-12</wgt>
  <wgt id="846">5.5557e-12</wgt>
  <wgt id="847">5.9573e-12</wgt>
  <wgt id="848">5.14074e-12</wgt>
  <wgt id="849">6.07185e-12</wgt>
  <wgt id="850">7.67354e-12</wgt>
  <wgt id="851">6.48463e-12</wgt>
  <wgt id="852">5.08131e-12</wgt>
  <wgt id="853">6.48201e-12</wgt>
  <wgt id="854">7.18757e-12</wgt>
  <wgt id="855">6.83222e-12</wgt>
  <wgt id="856">4.29051e-12</wgt>
  <wgt id="857">5.9366e-12</wgt>
  <wgt id="858">5.85112e-12</wgt>
  <wgt id="859">5.51811e-12</wgt>
  <wgt id="860">6.35192e-12</wgt>
  <wgt id="861">5.23909e-12</wgt>
  <wgt id="862">6.02902e-12</wgt>
  <wgt id="863">6.25471e-12</wgt>
  <wgt id="864">6.27259e-12</wgt>
  <wgt id="865">8.43069e-12</wgt>
  <wgt id="866">9.22575e-12</wgt>
  <wgt id="867">6.02411e-12</wgt>
  <wgt id="868">5.86084e-12</wgt>
  <wgt id="869">4.62176e-12</wgt>
  <wgt id="870">4.86332e-12</wgt>
  <wgt id="871">4.72167e-12</wgt>
  <wgt id="872">7.03634e-12</wgt>
  <wgt id="873">4.90216e-12</wgt>
  <wgt id="874">6.22326e-12</wgt>
  <wgt id="875">5.15412e-12</wgt>
  <wgt id="876">7.04438e-12</wgt>
  <wgt id="877">6.75955e-12</wgt>
  <wgt id="878">5.10979e-12</wgt>
  <wgt id="879">7.98656e-12</wgt>
  <wgt id="880">8.08443e-12</wgt>
  <wgt id="881">8.36268e-12</wgt>
  <wgt id="882">7.53638e-12</wgt>
  <wgt id="883">7.76747e-12</wgt>
  <wgt id="884">8.17856e-12</wgt>
  <wgt id="885">8.1754e-12</wgt>
  <wgt id="886">7.89185e-12</wgt>
  <wgt id="887">8.3384e-12</wgt>
  <wgt id="888">7.58033e-12</wgt>
  <wgt id="889">7.90339e-12</wgt>
  <wgt id="890">8.35877e-12</wgt>
  <wgt id="891">7.94241e-12</wgt>
  <wgt id="892">8.5896e-12</wgt>
  <wgt id="893">8.40427e-12</wgt>
  <wgt id="894">8.43884e-12</wgt>
  <wgt id="895">7.92291e-12</wgt>
  <wgt id="896">9.30186e-12</wgt>
  <wgt id="897">8.45253e-12</wgt>
  <wgt id="898">7.73474e-12</wgt>
  <wgt id="899">7.59245e-12</wgt>
  <wgt id="900">7.74893e-12</wgt>
  <wgt id="901">7.39307e-12</wgt>
  <wgt id="902">7.323e-12</wgt>
  <wgt id="903">7.03585e-12</wgt>
  <wgt id="904">8.00882e-12</wgt>
  <wgt id="905">7.70481e-12</wgt>
  <wgt id="906">9.11091e-12</wgt>
  <wgt id="907">8.67218e-12</wgt>
  <wgt id="908">8.32971e-12</wgt>
  <wgt id="909">7.46084e-12</wgt>
  <wgt id="910">7.67529e-12</wgt>
  <wgt id="911">7.88423e-12</wgt>
  <wgt id="912">7.8492e-12</wgt>
  <wgt id="913">7.19322e-12</wgt>
  <wgt id="914">7.95615e-12</wgt>
  <wgt id="915">7.85791e-12</wgt>
  <wgt id="916">8.5883e-12</wgt>
  <wgt id="917">7.88823e-12</wgt>
  <wgt id="918">7.90281e-12</wgt>
  <wgt id="919">7.69091e-12</wgt>
  <wgt id="920">7.63179e-12</wgt>
  <wgt id="921">7.92781e-12</wgt>
  <wgt id="922">7.28095e-12</wgt>
  <wgt id="923">7.5526e-12</wgt>
  <wgt id="924">7.43856e-12</wgt>
  <wgt id="925">7.14296e-12</wgt>
  <wgt id="926">8.48451e-12</wgt>
  <wgt id="927">8.33908e-12</wgt>
  <wgt id="928">8.42782e-12</wgt>
  <wgt id="929">8.06541e-12</wgt>
  <wgt id="930">7.80642e-12</wgt>
  <wgt id="931">7.85038e-12</wgt>
  <wgt id="932">7.31038e-12</wgt>
  <wgt id="933">8.5618e-12</wgt>
  <wgt id="934">7.89506e-12</wgt>
  <wgt id="935">8.74514e-12</wgt>
  <wgt id="936">7.96711e-12</wgt>
  <wgt id="937">8.17563e-12</wgt>
  <wgt id="938">7.95707e-12</wgt>
  <wgt id="939">7.84921e-12</wgt>
  <wgt id="940">8.11499e-12</wgt>
  <wgt id="941">7.62884e-12</wgt>
  <wgt id="942">8.05812e-12</wgt>
  <wgt id="943">8.85154e-12</wgt>
  <wgt id="944">7.13088e-12</wgt>
  <wgt id="945">7.86839e-12</wgt>
  <wgt id="946">7.67094e-12</wgt>
  <wgt id="947">7.82624e-12</wgt>
  <wgt id="948">8.32354e-12</wgt>
  <wgt id="949">8.44671e-12</wgt>
  <wgt id="950">7.28605e-12</wgt>
  <wgt id="951">7.87561e-12</wgt>
  <wgt id="952">8.41199e-12</wgt>
  <wgt id="953">8.07581e-12</wgt>
  <wgt id="954">8.24752e-12</wgt>
  <wgt id="955">7.34843e-12</wgt>
  <wgt id="956">7.59917e-12</wgt>
  <wgt id="957">8.29186e-12</wgt>
  <wgt id="958">8.02087e-12</wgt>
  <wgt id="959">8.02819e-12</wgt>
  <wgt id="960">7.38127e-12</wgt>
  <wgt id="961">8.06295e-12</wgt>
  <wgt id="962">8.09904e-12</wgt>
  <wgt id="963">8.09633e-12</wgt>
  <wgt id="964">8.41214e-12</wgt>
  <wgt id="965">8.44374e-12</wgt>
  <wgt id="966">7.97543e-12</wgt>
  <wgt id="967">8.28921e-12</wgt>
  <wgt id="968">8.09597e-12</wgt>
  <wgt id="969">7.96881e-12</wgt>
  <wgt id="970">8.17895e-12</wgt>
  <wgt id="971">7.55879e-12</wgt>
  <wgt id="972">8.45618e-12</wgt>
  <wgt id="973">7.7737e-12</wgt>
  <wgt id="974">9.39385e-12</wgt>
  <wgt id="975">7.53879e-12</wgt>
  <wgt id="976">7.93723e-12</wgt>
  <wgt id="977">7.14096e-12</wgt>
  <wgt id="978">8.38634e-12</wgt>
  <wgt id="979">8.71445e-12</wgt>
  <wgt id="980">7.98992e-12</wgt>
  <wgt id="981">8.02551e-12</wgt>
  <wgt id="982">7.75952e-12</wgt>
</rwgt>
</event>
<event>
 5   1  0.5790000E-11  0.2065436E+04  0.7818608E-02  0.7801532E-01
       21   -1    0    0  502  501  0.00000000000E+00  0.00000000000E+00  0.20234192542E+04  0.20234192542E+04  0.00000000000E+00 0. -1.
       21   -1    0    0  501  502 -0.00000000000E+00 -0.00000000000E+00 -0.52708123343E+03  0.52708123343E+03  0.00000000000E+00 0.  1.
       39    2    1    2    0    0  0.00000000000E+00  0.00000000000E+00  0.14963380207E+04  0.25505004876E+04  0.20654358535E+04 0.  0.
       25    1    3    3    0    0  0.53016913871E+03  0.87687454568E+03  0.78507077567E+03  0.12968999219E+04  0.12500000000E+03 0.  0.
       25    1    3    3    0    0 -0.53016913871E+03 -0.87687454568E+03  0.71126724506E+03  0.12536005657E+04  0.12500000000E+03 0.  0.
<mgrwt>
<rscale>  0 0.20654359E+04</rscale>
<asrwt>0</asrwt>
<pdfrwt beam="1">  1       21 0.31129526E+00 0.20654359E+04</pdfrwt>
<pdfrwt beam="2">  1       21 0.81089422E-01 0.20654359E+04</pdfrwt>
<totfact> 0.14955643E+01</totfact>
</mgrwt>
<rwgt>
  <wgt id="1">5.79e-12</wgt>
  <wgt id="2">5.02666e-12</wgt>
  <wgt id="3">6.74018e-12</wgt>
  <wgt id="4">5.79e-12</wgt>
  <wgt id="5">5.02666e-12</wgt>
  <wgt id="6">6.74018e-12</wgt>
  <wgt id="7">5.79e-12</wgt>
  <wgt id="8">5.02666e-12</wgt>
  <wgt id="9">6.74018e-12</wgt>
  <wgt id="10">6.04022e-12</wgt>
  <wgt id="11">6.03778e-12</wgt>
  <wgt id="12">6.02728e-12</wgt>
  <wgt id="13">6.02816e-12</wgt>
  <wgt id="14">6.06114e-12</wgt>
  <wgt id="15">6.04964e-12</wgt>
  <wgt id="16">6.02805e-12</wgt>
  <wgt id="17">6.06862e-12</wgt>
  <wgt id="18">6.0321e-12</wgt>
  <wgt id="19">6.06237e-12</wgt>
  <wgt id="20">6.03735e-12</wgt>
  <wgt id="21">5.99165e-12</wgt>
  <wgt id="22">5.99668e-12</wgt>
  <wgt id="23">5.94973e-12</wgt>
  <wgt id="24">5.99617e-12</wgt>
  <wgt id="25">6.01756e-12</wgt>
  <wgt id="26">6.05775e-12</wgt>
  <wgt id="27">6.02897e-12</wgt>
  <wgt id="28">6.00188e-12</wgt>
  <wgt id="29">6.04241e-12</wgt>
  <wgt id="30">5.99334e-12</wgt>
  <wgt id="31">6.06685e-12</wgt>
  <wgt id="32">6.00002e-12</wgt>
  <wgt id="33">6.04894e-12</wgt>
  <wgt id="34">6.00057e-12</wgt>
  <wgt id="35">6.00618e-12</wgt>
  <wgt id="36">6.07224e-12</wgt>
  <wgt id="37">6.02037e-12</wgt>
  <wgt id="38">6.01298e-12</wgt>
  <wgt id="39">6.14247e-12</wgt>
  <wgt id="40">6.0433e-12</wgt>
  <wgt id="41">6.03797e-12</wgt>
  <wgt id="42">6.04643e-12</wgt>
  <wgt id="43">6.04149e-12</wgt>
  <wgt id="44">6.07641e-12</wgt>
  <wgt id="45">6.04876e-12</wgt>
  <wgt id="46">6.02085e-12</wgt>
  <wgt id="47">6.09497e-12</wgt>
  <wgt id="48">6.06706e-12</wgt>
  <wgt id="49">5.99785e-12</wgt>
  <wgt id="50">5.99123e-12</wgt>
  <wgt id="51">6.00673e-12</wgt>
  <wgt id="52">6.0636e-12</wgt>
  <wgt id="53">6.07829e-12</wgt>
  <wgt id="54">6.06741e-12</wgt>
  <wgt id="55">6.03778e-12</wgt>
  <wgt id="56">6.0235e-12</wgt>
  <wgt id="57">6.01253e-12</wgt>
  <wgt id="58">6.03523e-12</wgt>
  <wgt id="59">6.04625e-12</wgt>
  <wgt id="60">6.00183e-12</wgt>
  <wgt id="61">6.00424e-12</wgt>
  <wgt id="62">6.02406e-12</wgt>
  <wgt id="63">6.03458e-12</wgt>
  <wgt id="64">6.03648e-12</wgt>
  <wgt id="65">6.02124e-12</wgt>
  <wgt id="66">6.04272e-12</wgt>
  <wgt id="67">6.02687e-12</wgt>
  <wgt id="68">6.03902e-12</wgt>
  <wgt id="69">6.03057e-12</wgt>
  <wgt id="70">6.02661e-12</wgt>
  <wgt id="71">6.03568e-12</wgt>
  <wgt id="72">6.00777e-12</wgt>
  <wgt id="73">6.0637e-12</wgt>
  <wgt id="74">6.05963e-12</wgt>
  <wgt id="75">6.04185e-12</wgt>
  <wgt id="76">6.07701e-12</wgt>
  <wgt id="77">6.03053e-12</wgt>
  <wgt id="78">6.03453e-12</wgt>
  <wgt id="79">6.0554e-12</wgt>
  <wgt id="80">5.9932e-12</wgt>
  <wgt id="81">6.03932e-12</wgt>
  <wgt id="82">6.04536e-12</wgt>
  <wgt id="83">6.00589e-12</wgt>
  <wgt id="84">6.02261e-12</wgt>
  <wgt id="85">6.01943e-12</wgt>
  <wgt id="86">6.06033e-12</wgt>
  <wgt id="87">5.98966e-12</wgt>
  <wgt id="88">6.05525e-12</wgt>
  <wgt id="89">6.04915e-12</wgt>
  <wgt id="90">6.06e-12</wgt>
  <wgt id="91">6.04716e-12</wgt>
  <wgt id="92">6.05515e-12</wgt>
  <wgt id="93">6.04808e-12</wgt>
  <wgt id="94">6.02602e-12</wgt>
  <wgt id="95">6.06005e-12</wgt>
  <wgt id="96">6.05389e-12</wgt>
  <wgt id="97">6.01908e-12</wgt>
  <wgt id="98">6.03999e-12</wgt>
  <wgt id="99">6.03015e-12</wgt>
  <wgt id="100">6.05526e-12</wgt>
  <wgt id="101">6.03488e-12</wgt>
  <wgt id="102">6.03196e-12</wgt>
  <wgt id="103">6.06024e-12</wgt>
  <wgt id="104">6.02882e-12</wgt>
  <wgt id="105">6.05105e-12</wgt>
  <wgt id="106">6.02595e-12</wgt>
  <wgt id="107">6.07316e-12</wgt>
  <wgt id="108">6.02874e-12</wgt>
  <wgt id="109">6.04781e-12</wgt>
  <wgt id="110">6.03695e-12</wgt>
  <wgt id="111">6.04551e-12</wgt>
  <wgt id="112">6.10921e-12</wgt>
  <wgt id="113">8.44755e-12</wgt>
  <wgt id="114">7.98622e-12</wgt>
  <wgt id="115">7.83245e-12</wgt>
  <wgt id="116">1.04582e-11</wgt>
  <wgt id="117">6.55514e-12</wgt>
  <wgt id="118">6.57686e-12</wgt>
  <wgt id="119">6.54277e-12</wgt>
  <wgt id="120">6.55556e-12</wgt>
  <wgt id="121">6.55491e-12</wgt>
  <wgt id="122">6.54438e-12</wgt>
  <wgt id="123">6.57003e-12</wgt>
  <wgt id="124">6.54612e-12</wgt>
  <wgt id="125">6.56098e-12</wgt>
  <wgt id="126">6.56323e-12</wgt>
  <wgt id="127">6.54985e-12</wgt>
  <wgt id="128">6.57514e-12</wgt>
  <wgt id="129">6.5353e-12</wgt>
  <wgt id="130">6.58646e-12</wgt>
  <wgt id="131">6.52271e-12</wgt>
  <wgt id="132">6.38112e-12</wgt>
  <wgt id="133">6.76145e-12</wgt>
  <wgt id="134">6.48805e-12</wgt>
  <wgt id="135">6.6077e-12</wgt>
  <wgt id="136">6.64905e-12</wgt>
  <wgt id="137">6.44211e-12</wgt>
  <wgt id="138">6.83477e-12</wgt>
  <wgt id="139">6.28842e-12</wgt>
  <wgt id="140">6.52182e-12</wgt>
  <wgt id="141">6.5803e-12</wgt>
  <wgt id="142">6.55369e-12</wgt>
  <wgt id="143">6.57356e-12</wgt>
  <wgt id="144">6.31203e-12</wgt>
  <wgt id="145">6.78839e-12</wgt>
  <wgt id="146">6.63187e-12</wgt>
  <wgt id="147">6.49254e-12</wgt>
  <wgt id="148">6.57766e-12</wgt>
  <wgt id="149">6.55349e-12</wgt>
  <wgt id="150">6.60875e-12</wgt>
  <wgt id="151">6.53001e-12</wgt>
  <wgt id="152">6.5567e-12</wgt>
  <wgt id="153">6.55458e-12</wgt>
  <wgt id="154">6.57657e-12</wgt>
  <wgt id="155">6.51829e-12</wgt>
  <wgt id="156">6.74856e-12</wgt>
  <wgt id="157">6.37269e-12</wgt>
  <wgt id="158">7.86664e-12</wgt>
  <wgt id="159">7.90041e-12</wgt>
  <wgt id="160">7.83991e-12</wgt>
  <wgt id="161">7.84869e-12</wgt>
  <wgt id="162">7.88704e-12</wgt>
  <wgt id="163">7.859e-12</wgt>
  <wgt id="164">7.87859e-12</wgt>
  <wgt id="165">7.86999e-12</wgt>
  <wgt id="166">7.86479e-12</wgt>
  <wgt id="167">7.86131e-12</wgt>
  <wgt id="168">7.87464e-12</wgt>
  <wgt id="169">7.83338e-12</wgt>
  <wgt id="170">7.88742e-12</wgt>
  <wgt id="171">7.86199e-12</wgt>
  <wgt id="172">7.87362e-12</wgt>
  <wgt id="173">7.85433e-12</wgt>
  <wgt id="174">7.87136e-12</wgt>
  <wgt id="175">7.65121e-12</wgt>
  <wgt id="176">8.14835e-12</wgt>
  <wgt id="177">7.90104e-12</wgt>
  <wgt id="178">7.8358e-12</wgt>
  <wgt id="179">8.23954e-12</wgt>
  <wgt id="180">7.28849e-12</wgt>
  <wgt id="181">7.6207e-12</wgt>
  <wgt id="182">8.03075e-12</wgt>
  <wgt id="183">7.71737e-12</wgt>
  <wgt id="184">7.94104e-12</wgt>
  <wgt id="185">7.78477e-12</wgt>
  <wgt id="186">7.96496e-12</wgt>
  <wgt id="187">7.78152e-12</wgt>
  <wgt id="188">8.01758e-12</wgt>
  <wgt id="189">7.80949e-12</wgt>
  <wgt id="190">7.89041e-12</wgt>
  <wgt id="191">7.89378e-12</wgt>
  <wgt id="192">7.85094e-12</wgt>
  <wgt id="193">7.98923e-12</wgt>
  <wgt id="194">7.80498e-12</wgt>
  <wgt id="195">7.61939e-12</wgt>
  <wgt id="196">8.27677e-12</wgt>
  <wgt id="197">7.90627e-12</wgt>
  <wgt id="198">7.8571e-12</wgt>
  <wgt id="199">7.86664e-12</wgt>
  <wgt id="200">7.93959e-12</wgt>
  <wgt id="201">7.91478e-12</wgt>
  <wgt id="202">7.89052e-12</wgt>
  <wgt id="203">7.85631e-12</wgt>
  <wgt id="204">7.83903e-12</wgt>
  <wgt id="205">7.82414e-12</wgt>
  <wgt id="206">7.71478e-12</wgt>
  <wgt id="207">7.75976e-12</wgt>
  <wgt id="208">7.66969e-12</wgt>
  <wgt id="209">7.7342e-12</wgt>
  <wgt id="210">7.70044e-12</wgt>
  <wgt id="211">7.71284e-12</wgt>
  <wgt id="212">7.71622e-12</wgt>
  <wgt id="213">7.71398e-12</wgt>
  <wgt id="214">7.71572e-12</wgt>
  <wgt id="215">7.71967e-12</wgt>
  <wgt id="216">7.71138e-12</wgt>
  <wgt id="217">7.73116e-12</wgt>
  <wgt id="218">7.70173e-12</wgt>
  <wgt id="219">7.702e-12</wgt>
  <wgt id="220">7.72243e-12</wgt>
  <wgt id="221">7.71733e-12</wgt>
  <wgt id="222">7.7063e-12</wgt>
  <wgt id="223">7.2993e-12</wgt>
  <wgt id="224">8.09442e-12</wgt>
  <wgt id="225">7.62437e-12</wgt>
  <wgt id="226">7.82927e-12</wgt>
  <wgt id="227">7.64419e-12</wgt>
  <wgt id="228">7.74563e-12</wgt>
  <wgt id="229">7.60962e-12</wgt>
  <wgt id="230">7.76667e-12</wgt>
  <wgt id="231">7.96177e-12</wgt>
  <wgt id="232">7.51193e-12</wgt>
  <wgt id="233">7.66863e-12</wgt>
  <wgt id="234">7.79126e-12</wgt>
  <wgt id="235">7.4332e-12</wgt>
  <wgt id="236">7.94692e-12</wgt>
  <wgt id="237">7.54884e-12</wgt>
  <wgt id="238">7.76968e-12</wgt>
  <wgt id="239">7.64714e-12</wgt>
  <wgt id="240">7.83613e-12</wgt>
  <wgt id="241">7.62664e-12</wgt>
  <wgt id="242">7.81826e-12</wgt>
  <wgt id="243">7.82978e-12</wgt>
  <wgt id="244">7.72009e-12</wgt>
  <wgt id="245">7.71147e-12</wgt>
  <wgt id="246">7.75638e-12</wgt>
  <wgt id="247">7.71478e-12</wgt>
  <wgt id="248">7.79306e-12</wgt>
  <wgt id="249">7.76613e-12</wgt>
  <wgt id="250">7.73797e-12</wgt>
  <wgt id="251">7.69976e-12</wgt>
  <wgt id="252">7.68052e-12</wgt>
  <wgt id="253">7.66718e-12</wgt>
  <wgt id="254">7.44819e-12</wgt>
  <wgt id="255">7.4545e-12</wgt>
  <wgt id="256">7.44119e-12</wgt>
  <wgt id="257">7.45447e-12</wgt>
  <wgt id="258">7.44367e-12</wgt>
  <wgt id="259">7.49776e-12</wgt>
  <wgt id="260">7.40044e-12</wgt>
  <wgt id="261">7.45719e-12</wgt>
  <wgt id="262">7.43798e-12</wgt>
  <wgt id="263">7.44349e-12</wgt>
  <wgt id="264">7.45339e-12</wgt>
  <wgt id="265">7.44019e-12</wgt>
  <wgt id="266">7.46398e-12</wgt>
  <wgt id="267">7.45081e-12</wgt>
  <wgt id="268">7.44492e-12</wgt>
  <wgt id="269">7.46912e-12</wgt>
  <wgt id="270">7.43416e-12</wgt>
  <wgt id="271">7.42852e-12</wgt>
  <wgt id="272">7.47033e-12</wgt>
  <wgt id="273">7.42976e-12</wgt>
  <wgt id="274">7.46203e-12</wgt>
  <wgt id="275">7.40647e-12</wgt>
  <wgt id="276">7.49161e-12</wgt>
  <wgt id="277">7.40598e-12</wgt>
  <wgt id="278">7.4873e-12</wgt>
  <wgt id="279">7.31996e-12</wgt>
  <wgt id="280">7.60947e-12</wgt>
  <wgt id="281">7.41649e-12</wgt>
  <wgt id="282">7.45637e-12</wgt>
  <wgt id="283">7.22032e-12</wgt>
  <wgt id="284">7.73171e-12</wgt>
  <wgt id="285">7.06821e-12</wgt>
  <wgt id="286">7.76827e-12</wgt>
  <wgt id="287">7.4738e-12</wgt>
  <wgt id="288">7.41552e-12</wgt>
  <wgt id="289">7.50523e-12</wgt>
  <wgt id="290">7.32188e-12</wgt>
  <wgt id="291">7.42172e-12</wgt>
  <wgt id="292">7.44953e-12</wgt>
  <wgt id="293">7.38631e-12</wgt>
  <wgt id="294">7.50997e-12</wgt>
  <wgt id="295">7.29672e-12</wgt>
  <wgt id="296">7.63339e-12</wgt>
  <wgt id="297">7.4352e-12</wgt>
  <wgt id="298">7.48109e-12</wgt>
  <wgt id="299">7.42409e-12</wgt>
  <wgt id="300">7.51165e-12</wgt>
  <wgt id="301">7.31736e-12</wgt>
  <wgt id="302">7.75527e-12</wgt>
  <wgt id="303">7.37539e-12</wgt>
  <wgt id="304">7.48934e-12</wgt>
  <wgt id="305">7.3977e-12</wgt>
  <wgt id="306">7.4045e-12</wgt>
  <wgt id="307">7.39082e-12</wgt>
  <wgt id="308">7.4044e-12</wgt>
  <wgt id="309">7.39369e-12</wgt>
  <wgt id="310">7.44844e-12</wgt>
  <wgt id="311">7.35152e-12</wgt>
  <wgt id="312">7.40512e-12</wgt>
  <wgt id="313">7.38993e-12</wgt>
  <wgt id="314">7.39318e-12</wgt>
  <wgt id="315">7.40258e-12</wgt>
  <wgt id="316">7.38987e-12</wgt>
  <wgt id="317">7.41485e-12</wgt>
  <wgt id="318">7.40318e-12</wgt>
  <wgt id="319">7.38883e-12</wgt>
  <wgt id="320">7.42021e-12</wgt>
  <wgt id="321">7.38558e-12</wgt>
  <wgt id="322">7.37615e-12</wgt>
  <wgt id="323">7.42365e-12</wgt>
  <wgt id="324">7.38455e-12</wgt>
  <wgt id="325">7.40929e-12</wgt>
  <wgt id="326">7.36331e-12</wgt>
  <wgt id="327">7.44227e-12</wgt>
  <wgt id="328">7.35865e-12</wgt>
  <wgt id="329">7.41991e-12</wgt>
  <wgt id="330">7.59676e-12</wgt>
  <wgt id="331">7.20861e-12</wgt>
  <wgt id="332">7.37155e-12</wgt>
  <wgt id="333">7.40311e-12</wgt>
  <wgt id="334">7.22362e-12</wgt>
  <wgt id="335">7.61602e-12</wgt>
  <wgt id="336">7.12763e-12</wgt>
  <wgt id="337">7.73133e-12</wgt>
  <wgt id="338">7.48579e-12</wgt>
  <wgt id="339">7.31689e-12</wgt>
  <wgt id="340">7.44962e-12</wgt>
  <wgt id="341">7.27033e-12</wgt>
  <wgt id="342">7.37925e-12</wgt>
  <wgt id="343">7.38529e-12</wgt>
  <wgt id="344">7.34341e-12</wgt>
  <wgt id="345">7.46159e-12</wgt>
  <wgt id="346">7.24355e-12</wgt>
  <wgt id="347">7.57502e-12</wgt>
  <wgt id="348">7.38741e-12</wgt>
  <wgt id="349">7.42667e-12</wgt>
  <wgt id="350">7.36804e-12</wgt>
  <wgt id="351">7.4731e-12</wgt>
  <wgt id="352">7.26551e-12</wgt>
  <wgt id="353">7.69859e-12</wgt>
  <wgt id="354">7.29444e-12</wgt>
  <wgt id="355">7.45933e-12</wgt>
  <wgt id="356">7.44819e-12</wgt>
  <wgt id="357">7.40788e-12</wgt>
  <wgt id="358">7.3977e-12</wgt>
  <wgt id="359">7.45207e-12</wgt>
  <wgt id="360">7.56055e-12</wgt>
  <wgt id="361">7.48368e-12</wgt>
  <wgt id="362">7.62236e-12</wgt>
  <wgt id="363">7.60433e-12</wgt>
  <wgt id="364">7.57041e-12</wgt>
  <wgt id="365">7.54346e-12</wgt>
  <wgt id="366">7.51609e-12</wgt>
  <wgt id="367">7.46249e-12</wgt>
  <wgt id="368">7.42873e-12</wgt>
  <wgt id="369">7.39245e-12</wgt>
  <wgt id="370">7.48368e-12</wgt>
  <wgt id="371">7.51356e-12</wgt>
  <wgt id="372">7.49641e-12</wgt>
  <wgt id="373">7.47245e-12</wgt>
  <wgt id="374">7.48039e-12</wgt>
  <wgt id="375">8.43856e-12</wgt>
  <wgt id="376">8.43858e-12</wgt>
  <wgt id="377">8.43829e-12</wgt>
  <wgt id="378">8.47007e-12</wgt>
  <wgt id="379">8.40719e-12</wgt>
  <wgt id="380">8.46299e-12</wgt>
  <wgt id="381">8.42857e-12</wgt>
  <wgt id="382">8.47446e-12</wgt>
  <wgt id="383">8.40296e-12</wgt>
  <wgt id="384">8.4438e-12</wgt>
  <wgt id="385">8.43351e-12</wgt>
  <wgt id="386">8.46295e-12</wgt>
  <wgt id="387">8.4279e-12</wgt>
  <wgt id="388">8.43174e-12</wgt>
  <wgt id="389">8.44654e-12</wgt>
  <wgt id="390">8.4565e-12</wgt>
  <wgt id="391">8.41954e-12</wgt>
  <wgt id="392">8.37021e-12</wgt>
  <wgt id="393">8.47699e-12</wgt>
  <wgt id="394">8.44442e-12</wgt>
  <wgt id="395">8.43018e-12</wgt>
  <wgt id="396">8.45097e-12</wgt>
  <wgt id="397">8.42962e-12</wgt>
  <wgt id="398">8.42806e-12</wgt>
  <wgt id="399">8.44842e-12</wgt>
  <wgt id="400">8.42784e-12</wgt>
  <wgt id="401">8.46095e-12</wgt>
  <wgt id="402">8.36681e-12</wgt>
  <wgt id="403">8.48179e-12</wgt>
  <wgt id="404">8.66517e-12</wgt>
  <wgt id="405">7.89753e-12</wgt>
  <wgt id="406">8.27324e-12</wgt>
  <wgt id="407">8.80413e-12</wgt>
  <wgt id="408">8.52352e-12</wgt>
  <wgt id="409">8.27991e-12</wgt>
  <wgt id="410">8.17114e-12</wgt>
  <wgt id="411">8.56647e-12</wgt>
  <wgt id="412">8.41964e-12</wgt>
  <wgt id="413">8.46497e-12</wgt>
  <wgt id="414">8.33138e-12</wgt>
  <wgt id="415">8.52128e-12</wgt>
  <wgt id="416">8.7045e-12</wgt>
  <wgt id="417">8.07125e-12</wgt>
  <wgt id="418">8.45509e-12</wgt>
  <wgt id="419">8.34967e-12</wgt>
  <wgt id="420">8.61601e-12</wgt>
  <wgt id="421">8.3203e-12</wgt>
  <wgt id="422">8.3966e-12</wgt>
  <wgt id="423">8.45791e-12</wgt>
  <wgt id="424">8.66349e-12</wgt>
  <wgt id="425">8.28496e-12</wgt>
  <wgt id="426">8.43856e-12</wgt>
  <wgt id="427">8.29017e-12</wgt>
  <wgt id="428">8.78148e-12</wgt>
  <wgt id="429">8.54256e-12</wgt>
  <wgt id="430">8.80522e-12</wgt>
  <wgt id="431">8.75254e-12</wgt>
  <wgt id="432">8.70404e-12</wgt>
  <wgt id="433">8.65624e-12</wgt>
  <wgt id="434">8.59539e-12</wgt>
  <wgt id="435">8.4758e-12</wgt>
  <wgt id="436">8.41539e-12</wgt>
  <wgt id="437">8.35639e-12</wgt>
  <wgt id="438">8.54256e-12</wgt>
  <wgt id="439">8.56812e-12</wgt>
  <wgt id="440">8.552e-12</wgt>
  <wgt id="441">8.53542e-12</wgt>
  <wgt id="442">8.53022e-12</wgt>
  <wgt id="443">7.81864e-12</wgt>
  <wgt id="444">7.897e-12</wgt>
  <wgt id="445">7.89888e-12</wgt>
  <wgt id="446">7.7584e-12</wgt>
  <wgt id="447">7.82506e-12</wgt>
  <wgt id="448">7.63572e-12</wgt>
  <wgt id="449">7.97128e-12</wgt>
  <wgt id="450">7.91882e-12</wgt>
  <wgt id="451">7.79691e-12</wgt>
  <wgt id="452">7.98244e-12</wgt>
  <wgt id="453">7.90857e-12</wgt>
  <wgt id="454">7.43606e-12</wgt>
  <wgt id="455">7.88026e-12</wgt>
  <wgt id="456">7.95497e-12</wgt>
  <wgt id="457">7.84089e-12</wgt>
  <wgt id="458">7.96026e-12</wgt>
  <wgt id="459">7.89025e-12</wgt>
  <wgt id="460">7.97144e-12</wgt>
  <wgt id="461">7.63914e-12</wgt>
  <wgt id="462">7.77102e-12</wgt>
  <wgt id="463">7.69675e-12</wgt>
  <wgt id="464">7.78319e-12</wgt>
  <wgt id="465">7.89939e-12</wgt>
  <wgt id="466">7.6464e-12</wgt>
  <wgt id="467">7.75891e-12</wgt>
  <wgt id="468">7.81136e-12</wgt>
  <wgt id="469">7.80416e-12</wgt>
  <wgt id="470">7.70287e-12</wgt>
  <wgt id="471">7.72721e-12</wgt>
  <wgt id="472">7.8679e-12</wgt>
  <wgt id="473">7.58192e-12</wgt>
  <wgt id="474">5.79e-12</wgt>
  <wgt id="475">5.78405e-12</wgt>
  <wgt id="476">5.72869e-12</wgt>
  <wgt id="477">5.78684e-12</wgt>
  <wgt id="478">5.85897e-12</wgt>
  <wgt id="479">5.52397e-12</wgt>
  <wgt id="480">6.11116e-12</wgt>
  <wgt id="481">5.84716e-12</wgt>
  <wgt id="482">5.80689e-12</wgt>
  <wgt id="483">5.77567e-12</wgt>
  <wgt id="484">5.99895e-12</wgt>
  <wgt id="485">5.35058e-12</wgt>
  <wgt id="486">6.11448e-12</wgt>
  <wgt id="487">5.6695e-12</wgt>
  <wgt id="488">5.86688e-12</wgt>
  <wgt id="489">5.27053e-12</wgt>
  <wgt id="490">5.67289e-12</wgt>
  <wgt id="491">5.7368e-12</wgt>
  <wgt id="492">5.71739e-12</wgt>
  <wgt id="493">5.3787e-12</wgt>
  <wgt id="494">5.41939e-12</wgt>
  <wgt id="495">5.80593e-12</wgt>
  <wgt id="496">5.51345e-12</wgt>
  <wgt id="497">5.42637e-12</wgt>
  <wgt id="498">5.96048e-12</wgt>
  <wgt id="499">5.82568e-12</wgt>
  <wgt id="500">5.69466e-12</wgt>
  <wgt id="501">5.96586e-12</wgt>
  <wgt id="502">5.99617e-12</wgt>
  <wgt id="503">5.7198e-12</wgt>
  <wgt id="504">5.99379e-12</wgt>
  <wgt id="505">5.96571e-12</wgt>
  <wgt id="506">5.50016e-12</wgt>
  <wgt id="507">5.72954e-12</wgt>
  <wgt id="508">6.09221e-12</wgt>
  <wgt id="509">5.51618e-12</wgt>
  <wgt id="510">5.86181e-12</wgt>
  <wgt id="511">5.50768e-12</wgt>
  <wgt id="512">6.14445e-12</wgt>
  <wgt id="513">6.03385e-12</wgt>
  <wgt id="514">6.07497e-12</wgt>
  <wgt id="515">5.91286e-12</wgt>
  <wgt id="516">6.35792e-12</wgt>
  <wgt id="517">5.91525e-12</wgt>
  <wgt id="518">5.98055e-12</wgt>
  <wgt id="519">5.56279e-12</wgt>
  <wgt id="520">5.90788e-12</wgt>
  <wgt id="521">5.68419e-12</wgt>
  <wgt id="522">6.01371e-12</wgt>
  <wgt id="523">5.51795e-12</wgt>
  <wgt id="524">5.85273e-12</wgt>
  <wgt id="525">5.72972e-12</wgt>
  <wgt id="526">6.05074e-12</wgt>
  <wgt id="527">5.70338e-12</wgt>
  <wgt id="528">5.79605e-12</wgt>
  <wgt id="529">5.56623e-12</wgt>
  <wgt id="530">6.068e-12</wgt>
  <wgt id="531">5.57812e-12</wgt>
  <wgt id="532">6.23045e-12</wgt>
  <wgt id="533">5.75156e-12</wgt>
  <wgt id="534">5.60924e-12</wgt>
  <wgt id="535">5.83823e-12</wgt>
  <wgt id="536">5.94415e-12</wgt>
  <wgt id="537">5.53573e-12</wgt>
  <wgt id="538">5.74479e-12</wgt>
  <wgt id="539">5.67487e-12</wgt>
  <wgt id="540">6.094e-12</wgt>
  <wgt id="541">5.74771e-12</wgt>
  <wgt id="542">5.7038e-12</wgt>
  <wgt id="543">5.63501e-12</wgt>
  <wgt id="544">5.84785e-12</wgt>
  <wgt id="545">5.50557e-12</wgt>
  <wgt id="546">5.3333e-12</wgt>
  <wgt id="547">5.61953e-12</wgt>
  <wgt id="548">5.58444e-12</wgt>
  <wgt id="549">5.69392e-12</wgt>
  <wgt id="550">5.64048e-12</wgt>
  <wgt id="551">5.81583e-12</wgt>
  <wgt id="552">5.34642e-12</wgt>
  <wgt id="553">5.47712e-12</wgt>
  <wgt id="554">6.07624e-12</wgt>
  <wgt id="555">5.9144e-12</wgt>
  <wgt id="556">5.67289e-12</wgt>
  <wgt id="557">5.92906e-12</wgt>
  <wgt id="558">5.73293e-12</wgt>
  <wgt id="559">5.78001e-12</wgt>
  <wgt id="560">6.37658e-12</wgt>
  <wgt id="561">5.91424e-12</wgt>
  <wgt id="562">6.02842e-12</wgt>
  <wgt id="563">6.35734e-12</wgt>
  <wgt id="564">6.13112e-12</wgt>
  <wgt id="565">5.93589e-12</wgt>
  <wgt id="566">5.67093e-12</wgt>
  <wgt id="567">5.78646e-12</wgt>
  <wgt id="568">5.60918e-12</wgt>
  <wgt id="569">5.89224e-12</wgt>
  <wgt id="570">5.69796e-12</wgt>
  <wgt id="571">6.35261e-12</wgt>
  <wgt id="572">5.63471e-12</wgt>
  <wgt id="573">5.6364e-12</wgt>
  <wgt id="574">5.65902e-12</wgt>
  <wgt id="575">6.36172e-12</wgt>
  <wgt id="576">6.89211e-12</wgt>
  <wgt id="577">6.63893e-12</wgt>
  <wgt id="578">6.50434e-12</wgt>
  <wgt id="579">6.63064e-12</wgt>
  <wgt id="580">6.78083e-12</wgt>
  <wgt id="581">7.00985e-12</wgt>
  <wgt id="582">6.8067e-12</wgt>
  <wgt id="583">6.491e-12</wgt>
  <wgt id="584">6.29117e-12</wgt>
  <wgt id="585">5.93249e-12</wgt>
  <wgt id="586">6.01188e-12</wgt>
  <wgt id="587">6.50177e-12</wgt>
  <wgt id="588">6.87442e-12</wgt>
  <wgt id="589">6.90248e-12</wgt>
  <wgt id="590">6.30836e-12</wgt>
  <wgt id="591">6.53639e-12</wgt>
  <wgt id="592">5.86242e-12</wgt>
  <wgt id="593">6.17249e-12</wgt>
  <wgt id="594">6.24362e-12</wgt>
  <wgt id="595">6.65042e-12</wgt>
  <wgt id="596">7.42415e-12</wgt>
  <wgt id="597">6.45933e-12</wgt>
  <wgt id="598">6.37605e-12</wgt>
  <wgt id="599">6.78709e-12</wgt>
  <wgt id="600">6.73503e-12</wgt>
  <wgt id="601">6.11511e-12</wgt>
  <wgt id="602">6.16352e-12</wgt>
  <wgt id="603">5.96289e-12</wgt>
  <wgt id="604">6.51358e-12</wgt>
  <wgt id="605">6.42883e-12</wgt>
  <wgt id="606">6.513e-12</wgt>
  <wgt id="607">6.61729e-12</wgt>
  <wgt id="608">6.61658e-12</wgt>
  <wgt id="609">6.31451e-12</wgt>
  <wgt id="610">6.08038e-12</wgt>
  <wgt id="611">6.04825e-12</wgt>
  <wgt id="612">6.50434e-12</wgt>
  <wgt id="613">6.10027e-12</wgt>
  <wgt id="614">6.32364e-12</wgt>
  <wgt id="615">6.46045e-12</wgt>
  <wgt id="616">6.13235e-12</wgt>
  <wgt id="617">6.62132e-12</wgt>
  <wgt id="618">7.0311e-12</wgt>
  <wgt id="619">6.22778e-12</wgt>
  <wgt id="620">6.59905e-12</wgt>
  <wgt id="621">6.28784e-12</wgt>
  <wgt id="622">6.50177e-12</wgt>
  <wgt id="623">6.41468e-12</wgt>
  <wgt id="624">6.4227e-12</wgt>
  <wgt id="625">6.08773e-12</wgt>
  <wgt id="626">5.71141e-12</wgt>
  <wgt id="627">5.78934e-12</wgt>
  <wgt id="628">6.34712e-12</wgt>
  <wgt id="629">6.45433e-12</wgt>
  <wgt id="630">6.08876e-12</wgt>
  <wgt id="631">6.51733e-12</wgt>
  <wgt id="632">5.82314e-12</wgt>
  <wgt id="633">6.33837e-12</wgt>
  <wgt id="634">6.06066e-12</wgt>
  <wgt id="635">5.84663e-12</wgt>
  <wgt id="636">6.45086e-12</wgt>
  <wgt id="637">6.26047e-12</wgt>
  <wgt id="638">6.07985e-12</wgt>
  <wgt id="639">6.10692e-12</wgt>
  <wgt id="640">6.22506e-12</wgt>
  <wgt id="641">6.6687e-12</wgt>
  <wgt id="642">5.77096e-12</wgt>
  <wgt id="643">6.19439e-12</wgt>
  <wgt id="644">5.68606e-12</wgt>
  <wgt id="645">6.35021e-12</wgt>
  <wgt id="646">5.839e-12</wgt>
  <wgt id="647">6.44072e-12</wgt>
  <wgt id="648">6.64875e-12</wgt>
  <wgt id="649">6.3737e-12</wgt>
  <wgt id="650">6.07749e-12</wgt>
  <wgt id="651">6.80737e-12</wgt>
  <wgt id="652">6.07912e-12</wgt>
  <wgt id="653">6.081e-12</wgt>
  <wgt id="654">6.37693e-12</wgt>
  <wgt id="655">6.17141e-12</wgt>
  <wgt id="656">6.41043e-12</wgt>
  <wgt id="657">7.01326e-12</wgt>
  <wgt id="658">6.28637e-12</wgt>
  <wgt id="659">6.10431e-12</wgt>
  <wgt id="660">6.1965e-12</wgt>
  <wgt id="661">6.21107e-12</wgt>
  <wgt id="662">6.28465e-12</wgt>
  <wgt id="663">6.4921e-12</wgt>
  <wgt id="664">6.4485e-12</wgt>
  <wgt id="665">6.30591e-12</wgt>
  <wgt id="666">6.20636e-12</wgt>
  <wgt id="667">6.69106e-12</wgt>
  <wgt id="668">6.2891e-12</wgt>
  <wgt id="669">6.35646e-12</wgt>
  <wgt id="670">6.67595e-12</wgt>
  <wgt id="671">6.45503e-12</wgt>
  <wgt id="672">6.19073e-12</wgt>
  <wgt id="673">6.74702e-12</wgt>
  <wgt id="674">6.17102e-12</wgt>
  <wgt id="675">6.1894e-12</wgt>
  <wgt id="676">8.16778e-12</wgt>
  <wgt id="677">8.27735e-12</wgt>
  <wgt id="678">8.88898e-12</wgt>
  <wgt id="679">8.30127e-12</wgt>
  <wgt id="680">8.25531e-12</wgt>
  <wgt id="681">7.99852e-12</wgt>
  <wgt id="682">8.6281e-12</wgt>
  <wgt id="683">7.56599e-12</wgt>
  <wgt id="684">8.56216e-12</wgt>
  <wgt id="685">8.17501e-12</wgt>
  <wgt id="686">8.18428e-12</wgt>
  <wgt id="687">8.34431e-12</wgt>
  <wgt id="688">7.9577e-12</wgt>
  <wgt id="689">8.52498e-12</wgt>
  <wgt id="690">8.30937e-12</wgt>
  <wgt id="691">8.41488e-12</wgt>
  <wgt id="692">7.98064e-12</wgt>
  <wgt id="693">1.06097e-11</wgt>
  <wgt id="694">8.94577e-12</wgt>
  <wgt id="695">7.72929e-12</wgt>
  <wgt id="696">7.9099e-12</wgt>
  <wgt id="697">7.48969e-12</wgt>
  <wgt id="698">6.78634e-12</wgt>
  <wgt id="699">7.00016e-12</wgt>
  <wgt id="700">7.24924e-12</wgt>
  <wgt id="701">8.14715e-12</wgt>
  <wgt id="702">7.95293e-12</wgt>
  <wgt id="703">9.96268e-12</wgt>
  <wgt id="704">9.14136e-12</wgt>
  <wgt id="705">9.1632e-12</wgt>
  <wgt id="706">7.72751e-12</wgt>
  <wgt id="707">7.67579e-12</wgt>
  <wgt id="708">7.79922e-12</wgt>
  <wgt id="709">7.8924e-12</wgt>
  <wgt id="710">7.01717e-12</wgt>
  <wgt id="711">8.589e-12</wgt>
  <wgt id="712">7.66478e-12</wgt>
  <wgt id="713">8.81549e-12</wgt>
  <wgt id="714">7.37703e-12</wgt>
  <wgt id="715">7.84794e-12</wgt>
  <wgt id="716">7.85569e-12</wgt>
  <wgt id="717">7.19779e-12</wgt>
  <wgt id="718">8.39279e-12</wgt>
  <wgt id="719">7.46014e-12</wgt>
  <wgt id="720">8.3188e-12</wgt>
  <wgt id="721">6.96201e-12</wgt>
  <wgt id="722">6.56194e-12</wgt>
  <wgt id="723">9.11155e-12</wgt>
  <wgt id="724">8.82931e-12</wgt>
  <wgt id="725">8.48408e-12</wgt>
  <wgt id="726">8.09944e-12</wgt>
  <wgt id="727">8.18077e-12</wgt>
  <wgt id="728">7.93279e-12</wgt>
  <wgt id="729">7.62421e-12</wgt>
  <wgt id="730">9.01912e-12</wgt>
  <wgt id="731">7.99721e-12</wgt>
  <wgt id="732">9.4167e-12</wgt>
  <wgt id="733">7.6438e-12</wgt>
  <wgt id="734">8.39853e-12</wgt>
  <wgt id="735">8.24375e-12</wgt>
  <wgt id="736">7.59745e-12</wgt>
  <wgt id="737">7.69196e-12</wgt>
  <wgt id="738">7.78647e-12</wgt>
  <wgt id="739">8.71365e-12</wgt>
  <wgt id="740">9.52309e-12</wgt>
  <wgt id="741">8.42315e-12</wgt>
  <wgt id="742">7.88037e-12</wgt>
  <wgt id="743">7.5294e-12</wgt>
  <wgt id="744">8.0045e-12</wgt>
  <wgt id="745">8.82727e-12</wgt>
  <wgt id="746">9.07841e-12</wgt>
  <wgt id="747">6.81802e-12</wgt>
  <wgt id="748">7.94271e-12</wgt>
  <wgt id="749">8.41399e-12</wgt>
  <wgt id="750">8.86214e-12</wgt>
  <wgt id="751">8.19265e-12</wgt>
  <wgt id="752">7.37076e-12</wgt>
  <wgt id="753">7.37016e-12</wgt>
  <wgt id="754">8.58518e-12</wgt>
  <wgt id="755">7.98556e-12</wgt>
  <wgt id="756">7.9396e-12</wgt>
  <wgt id="757">7.10761e-12</wgt>
  <wgt id="758">7.90912e-12</wgt>
  <wgt id="759">9.07118e-12</wgt>
  <wgt id="760">7.82536e-12</wgt>
  <wgt id="761">8.96318e-12</wgt>
  <wgt id="762">9.00655e-12</wgt>
  <wgt id="763">8.29621e-12</wgt>
  <wgt id="764">8.68005e-12</wgt>
  <wgt id="765">8.3646e-12</wgt>
  <wgt id="766">8.25348e-12</wgt>
  <wgt id="767">8.32333e-12</wgt>
  <wgt id="768">7.44682e-12</wgt>
  <wgt id="769">8.59495e-12</wgt>
  <wgt id="770">7.74279e-12</wgt>
  <wgt id="771">9.87268e-12</wgt>
  <wgt id="772">7.97854e-12</wgt>
  <wgt id="773">8.17578e-12</wgt>
  <wgt id="774">6.53203e-12</wgt>
  <wgt id="775">8.56422e-12</wgt>
  <wgt id="776">9.29968e-12</wgt>
  <wgt id="777">7.28256e-12</wgt>
  <wgt id="778">5.44565e-12</wgt>
  <wgt id="779">3.45463e-12</wgt>
  <wgt id="780">2.12559e-12</wgt>
  <wgt id="781">6.2894e-12</wgt>
  <wgt id="782">6.56072e-12</wgt>
  <wgt id="783">3.13122e-12</wgt>
  <wgt id="784">3.90799e-12</wgt>
  <wgt id="785">7.97953e-12</wgt>
  <wgt id="786">3.17152e-12</wgt>
  <wgt id="787">6.96257e-12</wgt>
  <wgt id="788">1.25704e-12</wgt>
  <wgt id="789">3.97501e-12</wgt>
  <wgt id="790">3.17534e-12</wgt>
  <wgt id="791">6.28842e-12</wgt>
  <wgt id="792">7.39291e-12</wgt>
  <wgt id="793">5.17281e-12</wgt>
  <wgt id="794">2.86858e-12</wgt>
  <wgt id="795">7.40175e-12</wgt>
  <wgt id="796">7.75116e-12</wgt>
  <wgt id="797">7.06979e-12</wgt>
  <wgt id="798">4.15847e-12</wgt>
  <wgt id="799">6.79095e-12</wgt>
  <wgt id="800">4.26405e-12</wgt>
  <wgt id="801">5.20816e-12</wgt>
  <wgt id="802">2.78027e-12</wgt>
  <wgt id="803">8.64076e-12</wgt>
  <wgt id="804">7.56029e-12</wgt>
  <wgt id="805">7.19038e-12</wgt>
  <wgt id="806">5.99001e-12</wgt>
  <wgt id="807">5.33222e-12</wgt>
  <wgt id="808">5.1703e-12</wgt>
  <wgt id="809">4.96905e-12</wgt>
  <wgt id="810">6.33897e-12</wgt>
  <wgt id="811">5.68605e-12</wgt>
  <wgt id="812">3.22346e-12</wgt>
  <wgt id="813">3.47171e-12</wgt>
  <wgt id="814">3.86828e-12</wgt>
  <wgt id="815">3.21507e-12</wgt>
  <wgt id="816">3.56288e-12</wgt>
  <wgt id="817">5.47065e-12</wgt>
  <wgt id="818">7.19595e-12</wgt>
  <wgt id="819">3.39894e-12</wgt>
  <wgt id="820">5.13474e-12</wgt>
  <wgt id="821">6.54762e-12</wgt>
  <wgt id="822">4.37322e-12</wgt>
  <wgt id="823">6.9458e-12</wgt>
  <wgt id="824">8.1729e-12</wgt>
  <wgt id="825">2.64621e-12</wgt>
  <wgt id="826">6.81794e-12</wgt>
  <wgt id="827">2.42282e-12</wgt>
  <wgt id="828">7.01246e-12</wgt>
  <wgt id="829">5.6039e-12</wgt>
  <wgt id="830">2.53115e-12</wgt>
  <wgt id="831">6.42317e-12</wgt>
  <wgt id="832">9.77262e-12</wgt>
  <wgt id="833">4.35009e-12</wgt>
  <wgt id="834">9.57175e-12</wgt>
  <wgt id="835">3.86608e-12</wgt>
  <wgt id="836">4.52993e-12</wgt>
  <wgt id="837">6.40944e-12</wgt>
  <wgt id="838">4.38421e-12</wgt>
  <wgt id="839">6.4026e-12</wgt>
  <wgt id="840">4.63792e-12</wgt>
  <wgt id="841">7.67951e-12</wgt>
  <wgt id="842">5.4355e-12</wgt>
  <wgt id="843">5.93289e-12</wgt>
  <wgt id="844">6.06447e-12</wgt>
  <wgt id="845">9.87594e-12</wgt>
  <wgt id="846">5.57229e-12</wgt>
  <wgt id="847">5.90601e-12</wgt>
  <wgt id="848">3.3466e-12</wgt>
  <wgt id="849">5.94839e-12</wgt>
  <wgt id="850">8.32277e-12</wgt>
  <wgt id="851">6.45841e-12</wgt>
  <wgt id="852">2.85687e-12</wgt>
  <wgt id="853">6.75212e-12</wgt>
  <wgt id="854">7.62843e-12</wgt>
  <wgt id="855">6.65e-12</wgt>
  <wgt id="856">2.49431e-12</wgt>
  <wgt id="857">4.74064e-12</wgt>
  <wgt id="858">5.10576e-12</wgt>
  <wgt id="859">5.26661e-12</wgt>
  <wgt id="860">7.02852e-12</wgt>
  <wgt id="861">4.51135e-12</wgt>
  <wgt id="862">5.55832e-12</wgt>
  <wgt id="863">6.32425e-12</wgt>
  <wgt id="864">5.66289e-12</wgt>
  <wgt id="865">8.70668e-12</wgt>
  <wgt id="866">9.76903e-12</wgt>
  <wgt id="867">5.5349e-12</wgt>
  <wgt id="868">5.59975e-12</wgt>
  <wgt id="869">3.12206e-12</wgt>
  <wgt id="870">3.71708e-12</wgt>
  <wgt id="871">3.7503e-12</wgt>
  <wgt id="872">7.82591e-12</wgt>
  <wgt id="873">4.33377e-12</wgt>
  <wgt id="874">6.05938e-12</wgt>
  <wgt id="875">4.22551e-12</wgt>
  <wgt id="876">7.46894e-12</wgt>
  <wgt id="877">6.20076e-12</wgt>
  <wgt id="878">4.36588e-12</wgt>
  <wgt id="879">8.16778e-12</wgt>
  <wgt id="880">8.27735e-12</wgt>
  <wgt id="881">8.88898e-12</wgt>
  <wgt id="882">8.30127e-12</wgt>
  <wgt id="883">8.25531e-12</wgt>
  <wgt id="884">7.99852e-12</wgt>
  <wgt id="885">8.6281e-12</wgt>
  <wgt id="886">7.56599e-12</wgt>
  <wgt id="887">8.56216e-12</wgt>
  <wgt id="888">8.17501e-12</wgt>
  <wgt id="889">8.18428e-12</wgt>
  <wgt id="890">8.34431e-12</wgt>
  <wgt id="891">7.9577e-12</wgt>
  <wgt id="892">8.52498e-12</wgt>
  <wgt id="893">8.30937e-12</wgt>
  <wgt id="894">8.41488e-12</wgt>
  <wgt id="895">7.98064e-12</wgt>
  <wgt id="896">1.06097e-11</wgt>
  <wgt id="897">8.94577e-12</wgt>
  <wgt id="898">7.72929e-12</wgt>
  <wgt id="899">7.9099e-12</wgt>
  <wgt id="900">7.48969e-12</wgt>
  <wgt id="901">6.78634e-12</wgt>
  <wgt id="902">7.00016e-12</wgt>
  <wgt id="903">7.24924e-12</wgt>
  <wgt id="904">8.14715e-12</wgt>
  <wgt id="905">7.95293e-12</wgt>
  <wgt id="906">9.96268e-12</wgt>
  <wgt id="907">9.14136e-12</wgt>
  <wgt id="908">9.1632e-12</wgt>
  <wgt id="909">7.72751e-12</wgt>
  <wgt id="910">7.67579e-12</wgt>
  <wgt id="911">7.79922e-12</wgt>
  <wgt id="912">7.8924e-12</wgt>
  <wgt id="913">7.01717e-12</wgt>
  <wgt id="914">8.589e-12</wgt>
  <wgt id="915">7.66478e-12</wgt>
  <wgt id="916">8.81549e-12</wgt>
  <wgt id="917">7.37703e-12</wgt>
  <wgt id="918">7.84794e-12</wgt>
  <wgt id="919">7.85569e-12</wgt>
  <wgt id="920">7.19779e-12</wgt>
  <wgt id="921">8.39279e-12</wgt>
  <wgt id="922">7.46014e-12</wgt>
  <wgt id="923">8.3188e-12</wgt>
  <wgt id="924">6.96201e-12</wgt>
  <wgt id="925">6.56194e-12</wgt>
  <wgt id="926">9.11155e-12</wgt>
  <wgt id="927">8.82931e-12</wgt>
  <wgt id="928">8.48408e-12</wgt>
  <wgt id="929">8.09944e-12</wgt>
  <wgt id="930">8.18077e-12</wgt>
  <wgt id="931">7.93279e-12</wgt>
  <wgt id="932">7.62421e-12</wgt>
  <wgt id="933">9.01912e-12</wgt>
  <wgt id="934">7.99721e-12</wgt>
  <wgt id="935">9.4167e-12</wgt>
  <wgt id="936">7.6438e-12</wgt>
  <wgt id="937">8.39853e-12</wgt>
  <wgt id="938">8.24375e-12</wgt>
  <wgt id="939">7.59745e-12</wgt>
  <wgt id="940">7.69196e-12</wgt>
  <wgt id="941">7.78647e-12</wgt>
  <wgt id="942">8.71365e-12</wgt>
  <wgt id="943">9.52309e-12</wgt>
  <wgt id="944">8.42315e-12</wgt>
  <wgt id="945">7.88037e-12</wgt>
  <wgt id="946">7.5294e-12</wgt>
  <wgt id="947">8.0045e-12</wgt>
  <wgt id="948">8.82727e-12</wgt>
  <wgt id="949">9.07841e-12</wgt>
  <wgt id="950">6.81802e-12</wgt>
  <wgt id="951">7.94271e-12</wgt>
  <wgt id="952">8.41399e-12</wgt>
  <wgt id="953">8.86214e-12</wgt>
  <wgt id="954">8.19265e-12</wgt>
  <wgt id="955">7.37076e-12</wgt>
  <wgt id="956">7.37016e-12</wgt>
  <wgt id="957">8.58518e-12</wgt>
  <wgt id="958">7.98556e-12</wgt>
  <wgt id="959">7.9396e-12</wgt>
  <wgt id="960">7.10761e-12</wgt>
  <wgt id="961">7.90912e-12</wgt>
  <wgt id="962">9.07118e-12</wgt>
  <wgt id="963">7.82536e-12</wgt>
  <wgt id="964">8.96318e-12</wgt>
  <wgt id="965">9.00655e-12</wgt>
  <wgt id="966">8.29621e-12</wgt>
  <wgt id="967">8.68005e-12</wgt>
  <wgt id="968">8.3646e-12</wgt>
  <wgt id="969">8.25348e-12</wgt>
  <wgt id="970">8.32333e-12</wgt>
  <wgt id="971">7.44682e-12</wgt>
  <wgt id="972">8.59495e-12</wgt>
  <wgt id="973">7.74279e-12</wgt>
  <wgt id="974">9.87268e-12</wgt>
  <wgt id="975">7.97854e-12</wgt>
  <wgt id="976">8.17578e-12</wgt>
  <wgt id="977">6.53203e-12</wgt>
  <wgt id="978">8.56422e-12</wgt>
  <wgt id="979">9.29968e-12</wgt>
  <wgt id="980">8.11028e-12</wgt>
  <wgt id="981">8.33012e-12</wgt>
  <wgt id="982">7.91075e-12</wgt>
</rwgt>
</event>
<event>
 5   1  0.5790000E-11  0.2310045E+04  0.7818608E-02  0.7708646E-01
       21   -1    0    0  502  501  0.00000000000E+00  0.00000000000E+00  0.10811503756E+04  0.10811503756E+04  0.00000000000E+00 0. -1.
       21   -1    0    0  501  502 -0.00000000000E+00 -0.00000000000E+00 -0.12339423315E+04  0.12339423315E+04  0.00000000000E+00 0.  1.
       39    2    1    2    0    0  0.00000000000E+00  0.00000000000E+00 -0.15279195588E+03  0.23150927072E+04  0.23100452076E+04 0.  0.
       25    1    3    3    0    0  0.11341029863E+04  0.13141958990E+03 -0.19910338749E+03  0.11656448220E+04  0.12500000000E+03 0.  0.
       25    1    3    3    0    0 -0.11341029863E+04 -0.13141958990E+03  0.46311431610E+02  0.11494478852E+04  0.12500000000E+03 0.  0.
<mgrwt>
<rscale>  0 0.23100452E+04</rscale>
<asrwt>0</asrwt>
<pdfrwt beam="1">  1       21 0.16633083E+00 0.23100452E+04</pdfrwt>
<pdfrwt beam="2">  1       21 0.18983728E+00 0.23100452E+04</pdfrwt>
<totfact> 0.13551597E+01</totfact>
</mgrwt>
<rwgt>
  <wgt id="1">5.79e-12</wgt>
  <wgt id="2">5.04282e-12</wgt>
  <wgt id="3">6.71722e-12</wgt>
  <wgt id="4">5.79e-12</wgt>
  <wgt id="5">5.04282e-12</wgt>
  <wgt id="6">6.71722e-12</wgt>
  <wgt id="7">5.79e-12</wgt>
  <wgt id="8">5.04282e-12</wgt>
  <wgt id="9">6.71722e-12</wgt>
  <wgt id="10">5.97988e-12</wgt>
  <wgt id="11">5.97339e-12</wgt>
  <wgt id="12">5.9679e-12</wgt>
  <wgt id="13">5.95887e-12</wgt>
  <wgt id="14">6.00173e-12</wgt>
  <wgt id="15">5.98849e-12</wgt>
  <wgt id="16">5.96686e-12</wgt>
  <wgt id="17">5.9884e-12</wgt>
  <wgt id="18">5.96967e-12</wgt>
  <wgt id="19">5.99323e-12</wgt>
  <wgt id="20">5.96105e-12</wgt>
  <wgt id="21">5.9478e-12</wgt>
  <wgt id="22">5.96225e-12</wgt>
  <wgt id="23">5.92946e-12</wgt>
  <wgt id="24">5.95468e-12</wgt>
  <wgt id="25">5.96609e-12</wgt>
  <wgt id="26">6.00613e-12</wgt>
  <wgt id="27">5.98033e-12</wgt>
  <wgt id="28">5.95273e-12</wgt>
  <wgt id="29">5.986e-12</wgt>
  <wgt id="30">5.96824e-12</wgt>
  <wgt id="31">5.99409e-12</wgt>
  <wgt id="32">5.97167e-12</wgt>
  <wgt id="33">5.99465e-12</wgt>
  <wgt id="34">5.96326e-12</wgt>
  <wgt id="35">5.97753e-12</wgt>
  <wgt id="36">5.99699e-12</wgt>
  <wgt id="37">5.96475e-12</wgt>
  <wgt id="38">5.96331e-12</wgt>
  <wgt id="39">6.03777e-12</wgt>
  <wgt id="40">5.99455e-12</wgt>
  <wgt id="41">5.979e-12</wgt>
  <wgt id="42">5.99595e-12</wgt>
  <wgt id="43">5.98327e-12</wgt>
  <wgt id="44">5.95668e-12</wgt>
  <wgt id="45">5.9923e-12</wgt>
  <wgt id="46">5.99072e-12</wgt>
  <wgt id="47">5.95181e-12</wgt>
  <wgt id="48">5.97958e-12</wgt>
  <wgt id="49">6.00012e-12</wgt>
  <wgt id="50">6.02087e-12</wgt>
  <wgt id="51">6.00999e-12</wgt>
  <wgt id="52">5.96499e-12</wgt>
  <wgt id="53">5.935e-12</wgt>
  <wgt id="54">5.96533e-12</wgt>
  <wgt id="55">5.97894e-12</wgt>
  <wgt id="56">5.99927e-12</wgt>
  <wgt id="57">6.00119e-12</wgt>
  <wgt id="58">5.93576e-12</wgt>
  <wgt id="59">5.95779e-12</wgt>
  <wgt id="60">5.98106e-12</wgt>
  <wgt id="61">5.97146e-12</wgt>
  <wgt id="62">5.98052e-12</wgt>
  <wgt id="63">5.98855e-12</wgt>
  <wgt id="64">5.98725e-12</wgt>
  <wgt id="65">5.98544e-12</wgt>
  <wgt id="66">5.97191e-12</wgt>
  <wgt id="67">5.97305e-12</wgt>
  <wgt id="68">5.97303e-12</wgt>
  <wgt id="69">5.97824e-12</wgt>
  <wgt id="70">5.97457e-12</wgt>
  <wgt id="71">5.97803e-12</wgt>
  <wgt id="72">5.97423e-12</wgt>
  <wgt id="73">5.98387e-12</wgt>
  <wgt id="74">5.98388e-12</wgt>
  <wgt id="75">5.97797e-12</wgt>
  <wgt id="76">5.99611e-12</wgt>
  <wgt id="77">5.97907e-12</wgt>
  <wgt id="78">5.98176e-12</wgt>
  <wgt id="79">5.98982e-12</wgt>
  <wgt id="80">5.95516e-12</wgt>
  <wgt id="81">5.97194e-12</wgt>
  <wgt id="82">5.97993e-12</wgt>
  <wgt id="83">5.95774e-12</wgt>
  <wgt id="84">5.96671e-12</wgt>
  <wgt id="85">5.97022e-12</wgt>
  <wgt id="86">5.99202e-12</wgt>
  <wgt id="87">5.95181e-12</wgt>
  <wgt id="88">5.98683e-12</wgt>
  <wgt id="89">5.98534e-12</wgt>
  <wgt id="90">5.98668e-12</wgt>
  <wgt id="91">5.98361e-12</wgt>
  <wgt id="92">5.99043e-12</wgt>
  <wgt id="93">5.97845e-12</wgt>
  <wgt id="94">5.97478e-12</wgt>
  <wgt id="95">5.98271e-12</wgt>
  <wgt id="96">5.9839e-12</wgt>
  <wgt id="97">5.97288e-12</wgt>
  <wgt id="98">5.9827e-12</wgt>
  <wgt id="99">5.97857e-12</wgt>
  <wgt id="100">5.98544e-12</wgt>
  <wgt id="101">5.9773e-12</wgt>
  <wgt id="102">5.9737e-12</wgt>
  <wgt id="103">5.98793e-12</wgt>
  <wgt id="104">5.97491e-12</wgt>
  <wgt id="105">5.98464e-12</wgt>
  <wgt id="106">5.97297e-12</wgt>
  <wgt id="107">5.99448e-12</wgt>
  <wgt id="108">5.9745e-12</wgt>
  <wgt id="109">5.98239e-12</wgt>
  <wgt id="110">5.97861e-12</wgt>
  <wgt id="111">6.04423e-12</wgt>
  <wgt id="112">5.96954e-12</wgt>
  <wgt id="113">7.99133e-12</wgt>
  <wgt id="114">8.29082e-12</wgt>
  <wgt id="115">8.17917e-12</wgt>
  <wgt id="116">1.14284e-11</wgt>
  <wgt id="117">6.65037e-12</wgt>
  <wgt id="118">6.67335e-12</wgt>
  <wgt id="119">6.6376e-12</wgt>
  <wgt id="120">6.65108e-12</wgt>
  <wgt id="121">6.64997e-12</wgt>
  <wgt id="122">6.63879e-12</wgt>
  <wgt id="123">6.66664e-12</wgt>
  <wgt id="124">6.64095e-12</wgt>
  <wgt id="125">6.65678e-12</wgt>
  <wgt id="126">6.66258e-12</wgt>
  <wgt id="127">6.64239e-12</wgt>
  <wgt id="128">6.67137e-12</wgt>
  <wgt id="129">6.62966e-12</wgt>
  <wgt id="130">6.68932e-12</wgt>
  <wgt id="131">6.61057e-12</wgt>
  <wgt id="132">6.47906e-12</wgt>
  <wgt id="133">6.85292e-12</wgt>
  <wgt id="134">6.57967e-12</wgt>
  <wgt id="135">6.70568e-12</wgt>
  <wgt id="136">6.7339e-12</wgt>
  <wgt id="137">6.54943e-12</wgt>
  <wgt id="138">6.90331e-12</wgt>
  <wgt id="139">6.40562e-12</wgt>
  <wgt id="140">6.60551e-12</wgt>
  <wgt id="141">6.68556e-12</wgt>
  <wgt id="142">6.6515e-12</wgt>
  <wgt id="143">6.65903e-12</wgt>
  <wgt id="144">6.47264e-12</wgt>
  <wgt id="145">6.81475e-12</wgt>
  <wgt id="146">6.70714e-12</wgt>
  <wgt id="147">6.6058e-12</wgt>
  <wgt id="148">6.67047e-12</wgt>
  <wgt id="149">6.64909e-12</wgt>
  <wgt id="150">6.70787e-12</wgt>
  <wgt id="151">6.62353e-12</wgt>
  <wgt id="152">6.65344e-12</wgt>
  <wgt id="153">6.6494e-12</wgt>
  <wgt id="154">6.70667e-12</wgt>
  <wgt id="155">6.58408e-12</wgt>
  <wgt id="156">6.77364e-12</wgt>
  <wgt id="157">6.51796e-12</wgt>
  <wgt id="158">8.00154e-12</wgt>
  <wgt id="159">8.03476e-12</wgt>
  <wgt id="160">7.97461e-12</wgt>
  <wgt id="161">7.98148e-12</wgt>
  <wgt id="162">8.02377e-12</wgt>
  <wgt id="163">7.99311e-12</wgt>
  <wgt id="164">8.01426e-12</wgt>
  <wgt id="165">8.00457e-12</wgt>
  <wgt id="166">7.99938e-12</wgt>
  <wgt id="167">7.99571e-12</wgt>
  <wgt id="168">8.0097e-12</wgt>
  <wgt id="169">7.96745e-12</wgt>
  <wgt id="170">8.0232e-12</wgt>
  <wgt id="171">7.99267e-12</wgt>
  <wgt id="172">8.01408e-12</wgt>
  <wgt id="173">8.00205e-12</wgt>
  <wgt id="174">8.00109e-12</wgt>
  <wgt id="175">7.77875e-12</wgt>
  <wgt id="176">8.29164e-12</wgt>
  <wgt id="177">8.04401e-12</wgt>
  <wgt id="178">7.96225e-12</wgt>
  <wgt id="179">8.32904e-12</wgt>
  <wgt id="180">7.48377e-12</wgt>
  <wgt id="181">7.77292e-12</wgt>
  <wgt id="182">8.1523e-12</wgt>
  <wgt id="183">7.86175e-12</wgt>
  <wgt id="184">8.0711e-12</wgt>
  <wgt id="185">7.93879e-12</wgt>
  <wgt id="186">8.07726e-12</wgt>
  <wgt id="187">7.9312e-12</wgt>
  <wgt id="188">8.12912e-12</wgt>
  <wgt id="189">7.95155e-12</wgt>
  <wgt id="190">8.02225e-12</wgt>
  <wgt id="191">8.0229e-12</wgt>
  <wgt id="192">7.98903e-12</wgt>
  <wgt id="193">8.11317e-12</wgt>
  <wgt id="194">7.9465e-12</wgt>
  <wgt id="195">7.81461e-12</wgt>
  <wgt id="196">8.33993e-12</wgt>
  <wgt id="197">8.0409e-12</wgt>
  <wgt id="198">7.99231e-12</wgt>
  <wgt id="199">8.00154e-12</wgt>
  <wgt id="200">8.06904e-12</wgt>
  <wgt id="201">8.04407e-12</wgt>
  <wgt id="202">8.02014e-12</wgt>
  <wgt id="203">7.98373e-12</wgt>
  <wgt id="204">7.96654e-12</wgt>
  <wgt id="205">7.95248e-12</wgt>
  <wgt id="206">7.76366e-12</wgt>
  <wgt id="207">7.80892e-12</wgt>
  <wgt id="208">7.71892e-12</wgt>
  <wgt id="209">7.7871e-12</wgt>
  <wgt id="210">7.74637e-12</wgt>
  <wgt id="211">7.761e-12</wgt>
  <wgt id="212">7.76598e-12</wgt>
  <wgt id="213">7.76296e-12</wgt>
  <wgt id="214">7.76481e-12</wgt>
  <wgt id="215">7.76917e-12</wgt>
  <wgt id="216">7.75963e-12</wgt>
  <wgt id="217">7.78602e-12</wgt>
  <wgt id="218">7.74645e-12</wgt>
  <wgt id="219">7.7555e-12</wgt>
  <wgt id="220">7.76856e-12</wgt>
  <wgt id="221">7.75983e-12</wgt>
  <wgt id="222">7.77249e-12</wgt>
  <wgt id="223">7.35941e-12</wgt>
  <wgt id="224">8.13152e-12</wgt>
  <wgt id="225">7.67223e-12</wgt>
  <wgt id="226">7.87837e-12</wgt>
  <wgt id="227">7.69131e-12</wgt>
  <wgt id="228">7.79541e-12</wgt>
  <wgt id="229">7.65705e-12</wgt>
  <wgt id="230">7.81673e-12</wgt>
  <wgt id="231">7.98046e-12</wgt>
  <wgt id="232">7.58535e-12</wgt>
  <wgt id="233">7.72411e-12</wgt>
  <wgt id="234">7.82469e-12</wgt>
  <wgt id="235">7.62055e-12</wgt>
  <wgt id="236">7.90074e-12</wgt>
  <wgt id="237">7.66393e-12</wgt>
  <wgt id="238">7.798e-12</wgt>
  <wgt id="239">7.71987e-12</wgt>
  <wgt id="240">7.84298e-12</wgt>
  <wgt id="241">7.68711e-12</wgt>
  <wgt id="242">7.8562e-12</wgt>
  <wgt id="243">7.85334e-12</wgt>
  <wgt id="244">7.80857e-12</wgt>
  <wgt id="245">7.75796e-12</wgt>
  <wgt id="246">7.82227e-12</wgt>
  <wgt id="247">7.76366e-12</wgt>
  <wgt id="248">7.82888e-12</wgt>
  <wgt id="249">7.80366e-12</wgt>
  <wgt id="250">7.78069e-12</wgt>
  <wgt id="251">7.7453e-12</wgt>
  <wgt id="252">7.729e-12</wgt>
  <wgt id="253">7.71698e-12</wgt>
  <wgt id="254">7.61189e-12</wgt>
  <wgt id="255">7.61923e-12</wgt>
  <wgt id="256">7.60378e-12</wgt>
  <wgt id="257">7.61751e-12</wgt>
  <wgt id="258">7.60757e-12</wgt>
  <wgt id="259">7.66276e-12</wgt>
  <wgt id="260">7.56287e-12</wgt>
  <wgt id="261">7.62214e-12</wgt>
  <wgt id="262">7.59964e-12</wgt>
  <wgt id="263">7.60873e-12</wgt>
  <wgt id="264">7.6155e-12</wgt>
  <wgt id="265">7.60315e-12</wgt>
  <wgt id="266">7.62885e-12</wgt>
  <wgt id="267">7.61437e-12</wgt>
  <wgt id="268">7.60859e-12</wgt>
  <wgt id="269">7.63588e-12</wgt>
  <wgt id="270">7.59555e-12</wgt>
  <wgt id="271">7.59951e-12</wgt>
  <wgt id="272">7.62579e-12</wgt>
  <wgt id="273">7.58821e-12</wgt>
  <wgt id="274">7.6299e-12</wgt>
  <wgt id="275">7.58199e-12</wgt>
  <wgt id="276">7.64258e-12</wgt>
  <wgt id="277">7.56917e-12</wgt>
  <wgt id="278">7.65105e-12</wgt>
  <wgt id="279">7.46718e-12</wgt>
  <wgt id="280">7.79283e-12</wgt>
  <wgt id="281">7.57903e-12</wgt>
  <wgt id="282">7.61281e-12</wgt>
  <wgt id="283">7.40048e-12</wgt>
  <wgt id="284">7.87166e-12</wgt>
  <wgt id="285">7.26041e-12</wgt>
  <wgt id="286">7.90139e-12</wgt>
  <wgt id="287">7.6348e-12</wgt>
  <wgt id="288">7.58227e-12</wgt>
  <wgt id="289">7.66312e-12</wgt>
  <wgt id="290">7.49109e-12</wgt>
  <wgt id="291">7.59277e-12</wgt>
  <wgt id="292">7.61641e-12</wgt>
  <wgt id="293">7.55525e-12</wgt>
  <wgt id="294">7.66793e-12</wgt>
  <wgt id="295">7.47227e-12</wgt>
  <wgt id="296">7.78192e-12</wgt>
  <wgt id="297">7.61359e-12</wgt>
  <wgt id="298">7.6383e-12</wgt>
  <wgt id="299">7.58798e-12</wgt>
  <wgt id="300">7.67439e-12</wgt>
  <wgt id="301">7.51579e-12</wgt>
  <wgt id="302">7.861e-12</wgt>
  <wgt id="303">7.55871e-12</wgt>
  <wgt id="304">7.64271e-12</wgt>
  <wgt id="305">7.64525e-12</wgt>
  <wgt id="306">7.65339e-12</wgt>
  <wgt id="307">7.63707e-12</wgt>
  <wgt id="308">7.65188e-12</wgt>
  <wgt id="309">7.64107e-12</wgt>
  <wgt id="310">7.69824e-12</wgt>
  <wgt id="311">7.59662e-12</wgt>
  <wgt id="312">7.65372e-12</wgt>
  <wgt id="313">7.63726e-12</wgt>
  <wgt id="314">7.64266e-12</wgt>
  <wgt id="315">7.64845e-12</wgt>
  <wgt id="316">7.63717e-12</wgt>
  <wgt id="317">7.66345e-12</wgt>
  <wgt id="318">7.65098e-12</wgt>
  <wgt id="319">7.63639e-12</wgt>
  <wgt id="320">7.67051e-12</wgt>
  <wgt id="321">7.63155e-12</wgt>
  <wgt id="322">7.62896e-12</wgt>
  <wgt id="323">7.66499e-12</wgt>
  <wgt id="324">7.62588e-12</wgt>
  <wgt id="325">7.66278e-12</wgt>
  <wgt id="326">7.6216e-12</wgt>
  <wgt id="327">7.676e-12</wgt>
  <wgt id="328">7.60695e-12</wgt>
  <wgt id="329">7.66744e-12</wgt>
  <wgt id="330">7.86878e-12</wgt>
  <wgt id="331">7.43232e-12</wgt>
  <wgt id="332">7.61815e-12</wgt>
  <wgt id="333">7.64542e-12</wgt>
  <wgt id="334">7.47862e-12</wgt>
  <wgt id="335">7.85227e-12</wgt>
  <wgt id="336">7.38941e-12</wgt>
  <wgt id="337">7.95569e-12</wgt>
  <wgt id="338">7.72738e-12</wgt>
  <wgt id="339">7.56962e-12</wgt>
  <wgt id="340">7.69459e-12</wgt>
  <wgt id="341">7.5186e-12</wgt>
  <wgt id="342">7.63221e-12</wgt>
  <wgt id="343">7.63874e-12</wgt>
  <wgt id="344">7.59397e-12</wgt>
  <wgt id="345">7.70532e-12</wgt>
  <wgt id="346">7.50025e-12</wgt>
  <wgt id="347">7.81296e-12</wgt>
  <wgt id="348">7.65052e-12</wgt>
  <wgt id="349">7.66674e-12</wgt>
  <wgt id="350">7.6155e-12</wgt>
  <wgt id="351">7.72162e-12</wgt>
  <wgt id="352">7.53806e-12</wgt>
  <wgt id="353">7.90866e-12</wgt>
  <wgt id="354">7.56325e-12</wgt>
  <wgt id="355">7.69608e-12</wgt>
  <wgt id="356">7.61189e-12</wgt>
  <wgt id="357">7.67981e-12</wgt>
  <wgt id="358">7.64525e-12</wgt>
  <wgt id="359">7.64147e-12</wgt>
  <wgt id="360">7.6534e-12</wgt>
  <wgt id="361">7.63389e-12</wgt>
  <wgt id="362">7.76211e-12</wgt>
  <wgt id="363">7.74375e-12</wgt>
  <wgt id="364">7.71895e-12</wgt>
  <wgt id="365">7.69367e-12</wgt>
  <wgt id="366">7.66532e-12</wgt>
  <wgt id="367">7.60589e-12</wgt>
  <wgt id="368">7.57386e-12</wgt>
  <wgt id="369">7.53915e-12</wgt>
  <wgt id="370">7.63389e-12</wgt>
  <wgt id="371">7.66808e-12</wgt>
  <wgt id="372">7.64927e-12</wgt>
  <wgt id="373">7.6214e-12</wgt>
  <wgt id="374">7.6175e-12</wgt>
  <wgt id="375">8.09279e-12</wgt>
  <wgt id="376">8.09391e-12</wgt>
  <wgt id="377">8.09144e-12</wgt>
  <wgt id="378">8.12173e-12</wgt>
  <wgt id="379">8.06373e-12</wgt>
  <wgt id="380">8.11437e-12</wgt>
  <wgt id="381">8.08394e-12</wgt>
  <wgt id="382">8.13419e-12</wgt>
  <wgt id="383">8.05159e-12</wgt>
  <wgt id="384">8.09796e-12</wgt>
  <wgt id="385">8.08769e-12</wgt>
  <wgt id="386">8.1249e-12</wgt>
  <wgt id="387">8.07864e-12</wgt>
  <wgt id="388">8.08502e-12</wgt>
  <wgt id="389">8.10183e-12</wgt>
  <wgt id="390">8.11465e-12</wgt>
  <wgt id="391">8.06961e-12</wgt>
  <wgt id="392">8.03319e-12</wgt>
  <wgt id="393">8.12635e-12</wgt>
  <wgt id="394">8.10434e-12</wgt>
  <wgt id="395">8.07646e-12</wgt>
  <wgt id="396">8.09664e-12</wgt>
  <wgt id="397">8.08991e-12</wgt>
  <wgt id="398">8.05688e-12</wgt>
  <wgt id="399">8.12739e-12</wgt>
  <wgt id="400">8.07911e-12</wgt>
  <wgt id="401">8.12313e-12</wgt>
  <wgt id="402">8.02873e-12</wgt>
  <wgt id="403">8.11949e-12</wgt>
  <wgt id="404">8.27209e-12</wgt>
  <wgt id="405">7.65964e-12</wgt>
  <wgt id="406">7.96409e-12</wgt>
  <wgt id="407">8.37083e-12</wgt>
  <wgt id="408">8.15881e-12</wgt>
  <wgt id="409">7.96577e-12</wgt>
  <wgt id="410">7.88097e-12</wgt>
  <wgt id="411">8.18989e-12</wgt>
  <wgt id="412">8.07919e-12</wgt>
  <wgt id="413">8.11216e-12</wgt>
  <wgt id="414">8.00811e-12</wgt>
  <wgt id="415">8.1582e-12</wgt>
  <wgt id="416">8.29549e-12</wgt>
  <wgt id="417">7.81235e-12</wgt>
  <wgt id="418">8.10288e-12</wgt>
  <wgt id="419">8.03814e-12</wgt>
  <wgt id="420">8.20079e-12</wgt>
  <wgt id="421">8.03349e-12</wgt>
  <wgt id="422">8.08487e-12</wgt>
  <wgt id="423">8.09822e-12</wgt>
  <wgt id="424">8.24386e-12</wgt>
  <wgt id="425">7.9992e-12</wgt>
  <wgt id="426">8.09279e-12</wgt>
  <wgt id="427">8.03052e-12</wgt>
  <wgt id="428">8.28376e-12</wgt>
  <wgt id="429">8.16006e-12</wgt>
  <wgt id="430">8.3806e-12</wgt>
  <wgt id="431">8.33677e-12</wgt>
  <wgt id="432">8.29487e-12</wgt>
  <wgt id="433">8.25428e-12</wgt>
  <wgt id="434">8.2056e-12</wgt>
  <wgt id="435">8.1029e-12</wgt>
  <wgt id="436">8.04998e-12</wgt>
  <wgt id="437">7.99996e-12</wgt>
  <wgt id="438">8.16006e-12</wgt>
  <wgt id="439">8.18703e-12</wgt>
  <wgt id="440">8.17131e-12</wgt>
  <wgt id="441">8.15173e-12</wgt>
  <wgt id="442">8.14426e-12</wgt>
  <wgt id="443">7.95145e-12</wgt>
  <wgt id="444">7.99048e-12</wgt>
  <wgt id="445">7.91485e-12</wgt>
  <wgt id="446">7.9026e-12</wgt>
  <wgt id="447">7.92134e-12</wgt>
  <wgt id="448">7.74678e-12</wgt>
  <wgt id="449">8.06847e-12</wgt>
  <wgt id="450">7.91455e-12</wgt>
  <wgt id="451">7.93982e-12</wgt>
  <wgt id="452">8.12357e-12</wgt>
  <wgt id="453">8.02219e-12</wgt>
  <wgt id="454">7.64702e-12</wgt>
  <wgt id="455">7.95849e-12</wgt>
  <wgt id="456">7.84782e-12</wgt>
  <wgt id="457">7.98319e-12</wgt>
  <wgt id="458">8.03622e-12</wgt>
  <wgt id="459">8.00093e-12</wgt>
  <wgt id="460">7.98949e-12</wgt>
  <wgt id="461">7.81566e-12</wgt>
  <wgt id="462">7.88909e-12</wgt>
  <wgt id="463">7.87206e-12</wgt>
  <wgt id="464">7.90858e-12</wgt>
  <wgt id="465">8.02984e-12</wgt>
  <wgt id="466">7.86868e-12</wgt>
  <wgt id="467">7.8781e-12</wgt>
  <wgt id="468">7.93052e-12</wgt>
  <wgt id="469">7.92985e-12</wgt>
  <wgt id="470">7.88628e-12</wgt>
  <wgt id="471">7.88631e-12</wgt>
  <wgt id="472">7.98595e-12</wgt>
  <wgt id="473">7.70697e-12</wgt>
  <wgt id="474">5.79e-12</wgt>
  <wgt id="475">6.17086e-12</wgt>
  <wgt id="476">5.6604e-12</wgt>
  <wgt id="477">5.62871e-12</wgt>
  <wgt id="478">5.8171e-12</wgt>
  <wgt id="479">5.69584e-12</wgt>
  <wgt id="480">5.98253e-12</wgt>
  <wgt id="481">5.64812e-12</wgt>
  <wgt id="482">5.5557e-12</wgt>
  <wgt id="483">5.63711e-12</wgt>
  <wgt id="484">6.22066e-12</wgt>
  <wgt id="485">5.81129e-12</wgt>
  <wgt id="486">5.90704e-12</wgt>
  <wgt id="487">5.90354e-12</wgt>
  <wgt id="488">5.86296e-12</wgt>
  <wgt id="489">5.60893e-12</wgt>
  <wgt id="490">5.62028e-12</wgt>
  <wgt id="491">5.72097e-12</wgt>
  <wgt id="492">5.60357e-12</wgt>
  <wgt id="493">5.58544e-12</wgt>
  <wgt id="494">5.61868e-12</wgt>
  <wgt id="495">5.9199e-12</wgt>
  <wgt id="496">5.5953e-12</wgt>
  <wgt id="497">5.574e-12</wgt>
  <wgt id="498">5.85797e-12</wgt>
  <wgt id="499">5.63632e-12</wgt>
  <wgt id="500">5.69898e-12</wgt>
  <wgt id="501">6.04987e-12</wgt>
  <wgt id="502">5.62701e-12</wgt>
  <wgt id="503">5.77642e-12</wgt>
  <wgt id="504">5.81119e-12</wgt>
  <wgt id="505">5.8284e-12</wgt>
  <wgt id="506">5.92182e-12</wgt>
  <wgt id="507">5.72374e-12</wgt>
  <wgt id="508">5.8638e-12</wgt>
  <wgt id="509">5.73478e-12</wgt>
  <wgt id="510">5.93704e-12</wgt>
  <wgt id="511">5.67856e-12</wgt>
  <wgt id="512">5.85838e-12</wgt>
  <wgt id="513">6.03216e-12</wgt>
  <wgt id="514">5.73312e-12</wgt>
  <wgt id="515">5.70818e-12</wgt>
  <wgt id="516">5.93153e-12</wgt>
  <wgt id="517">5.91056e-12</wgt>
  <wgt id="518">5.92646e-12</wgt>
  <wgt id="519">5.637e-12</wgt>
  <wgt id="520">5.82586e-12</wgt>
  <wgt id="521">5.99927e-12</wgt>
  <wgt id="522">6.00505e-12</wgt>
  <wgt id="523">5.9391e-12</wgt>
  <wgt id="524">5.90436e-12</wgt>
  <wgt id="525">5.95713e-12</wgt>
  <wgt id="526">5.79171e-12</wgt>
  <wgt id="527">5.88929e-12</wgt>
  <wgt id="528">5.80408e-12</wgt>
  <wgt id="529">5.69675e-12</wgt>
  <wgt id="530">5.82531e-12</wgt>
  <wgt id="531">5.72872e-12</wgt>
  <wgt id="532">6.09822e-12</wgt>
  <wgt id="533">5.43381e-12</wgt>
  <wgt id="534">5.81394e-12</wgt>
  <wgt id="535">5.91432e-12</wgt>
  <wgt id="536">5.78312e-12</wgt>
  <wgt id="537">5.81459e-12</wgt>
  <wgt id="538">5.87077e-12</wgt>
  <wgt id="539">5.67169e-12</wgt>
  <wgt id="540">5.69245e-12</wgt>
  <wgt id="541">5.66647e-12</wgt>
  <wgt id="542">5.67367e-12</wgt>
  <wgt id="543">5.78233e-12</wgt>
  <wgt id="544">6.07592e-12</wgt>
  <wgt id="545">5.72022e-12</wgt>
  <wgt id="546">5.73562e-12</wgt>
  <wgt id="547">5.61019e-12</wgt>
  <wgt id="548">5.55355e-12</wgt>
  <wgt id="549">5.69287e-12</wgt>
  <wgt id="550">5.79959e-12</wgt>
  <wgt id="551">5.84722e-12</wgt>
  <wgt id="552">5.75375e-12</wgt>
  <wgt id="553">5.78011e-12</wgt>
  <wgt id="554">6.22047e-12</wgt>
  <wgt id="555">5.93931e-12</wgt>
  <wgt id="556">5.62028e-12</wgt>
  <wgt id="557">5.87412e-12</wgt>
  <wgt id="558">5.59541e-12</wgt>
  <wgt id="559">5.72265e-12</wgt>
  <wgt id="560">6.25066e-12</wgt>
  <wgt id="561">5.66038e-12</wgt>
  <wgt id="562">5.86537e-12</wgt>
  <wgt id="563">5.61247e-12</wgt>
  <wgt id="564">5.77153e-12</wgt>
  <wgt id="565">5.57597e-12</wgt>
  <wgt id="566">5.87007e-12</wgt>
  <wgt id="567">5.70035e-12</wgt>
  <wgt id="568">5.77906e-12</wgt>
  <wgt id="569">5.87739e-12</wgt>
  <wgt id="570">5.63662e-12</wgt>
  <wgt id="571">6.40941e-12</wgt>
  <wgt id="572">5.65379e-12</wgt>
  <wgt id="573">5.52544e-12</wgt>
  <wgt id="574">5.58089e-12</wgt>
  <wgt id="575">6.35981e-12</wgt>
  <wgt id="576">6.26682e-12</wgt>
  <wgt id="577">6.5545e-12</wgt>
  <wgt id="578">6.50048e-12</wgt>
  <wgt id="579">6.43865e-12</wgt>
  <wgt id="580">6.45785e-12</wgt>
  <wgt id="581">6.74227e-12</wgt>
  <wgt id="582">6.24907e-12</wgt>
  <wgt id="583">6.42716e-12</wgt>
  <wgt id="584">6.37111e-12</wgt>
  <wgt id="585">6.42913e-12</wgt>
  <wgt id="586">6.22494e-12</wgt>
  <wgt id="587">6.44071e-12</wgt>
  <wgt id="588">6.31486e-12</wgt>
  <wgt id="589">6.44772e-12</wgt>
  <wgt id="590">6.47573e-12</wgt>
  <wgt id="591">6.6057e-12</wgt>
  <wgt id="592">6.25643e-12</wgt>
  <wgt id="593">6.3349e-12</wgt>
  <wgt id="594">6.58669e-12</wgt>
  <wgt id="595">6.3178e-12</wgt>
  <wgt id="596">6.4128e-12</wgt>
  <wgt id="597">6.13807e-12</wgt>
  <wgt id="598">6.25161e-12</wgt>
  <wgt id="599">6.71019e-12</wgt>
  <wgt id="600">6.28809e-12</wgt>
  <wgt id="601">6.18243e-12</wgt>
  <wgt id="602">6.24317e-12</wgt>
  <wgt id="603">6.26375e-12</wgt>
  <wgt id="604">6.44651e-12</wgt>
  <wgt id="605">6.61993e-12</wgt>
  <wgt id="606">6.19548e-12</wgt>
  <wgt id="607">6.26491e-12</wgt>
  <wgt id="608">6.36665e-12</wgt>
  <wgt id="609">5.99262e-12</wgt>
  <wgt id="610">6.11531e-12</wgt>
  <wgt id="611">6.45051e-12</wgt>
  <wgt id="612">6.80568e-12</wgt>
  <wgt id="613">6.36334e-12</wgt>
  <wgt id="614">6.44969e-12</wgt>
  <wgt id="615">6.22416e-12</wgt>
  <wgt id="616">6.75975e-12</wgt>
  <wgt id="617">6.59584e-12</wgt>
  <wgt id="618">6.37457e-12</wgt>
  <wgt id="619">6.3041e-12</wgt>
  <wgt id="620">6.61417e-12</wgt>
  <wgt id="621">6.46331e-12</wgt>
  <wgt id="622">6.44071e-12</wgt>
  <wgt id="623">6.53606e-12</wgt>
  <wgt id="624">6.32758e-12</wgt>
  <wgt id="625">6.29425e-12</wgt>
  <wgt id="626">6.22576e-12</wgt>
  <wgt id="627">6.12822e-12</wgt>
  <wgt id="628">6.73789e-12</wgt>
  <wgt id="629">6.20989e-12</wgt>
  <wgt id="630">6.14943e-12</wgt>
  <wgt id="631">6.37556e-12</wgt>
  <wgt id="632">6.171e-12</wgt>
  <wgt id="633">6.28056e-12</wgt>
  <wgt id="634">6.37767e-12</wgt>
  <wgt id="635">6.28219e-12</wgt>
  <wgt id="636">6.39197e-12</wgt>
  <wgt id="637">6.35121e-12</wgt>
  <wgt id="638">6.12281e-12</wgt>
  <wgt id="639">6.28523e-12</wgt>
  <wgt id="640">6.36965e-12</wgt>
  <wgt id="641">6.37519e-12</wgt>
  <wgt id="642">6.15542e-12</wgt>
  <wgt id="643">6.33095e-12</wgt>
  <wgt id="644">6.15635e-12</wgt>
  <wgt id="645">6.41218e-12</wgt>
  <wgt id="646">6.48562e-12</wgt>
  <wgt id="647">6.26634e-12</wgt>
  <wgt id="648">6.38207e-12</wgt>
  <wgt id="649">6.46145e-12</wgt>
  <wgt id="650">6.25064e-12</wgt>
  <wgt id="651">6.38838e-12</wgt>
  <wgt id="652">6.3375e-12</wgt>
  <wgt id="653">6.18974e-12</wgt>
  <wgt id="654">6.33826e-12</wgt>
  <wgt id="655">6.24272e-12</wgt>
  <wgt id="656">6.38469e-12</wgt>
  <wgt id="657">6.5298e-12</wgt>
  <wgt id="658">6.4253e-12</wgt>
  <wgt id="659">6.12298e-12</wgt>
  <wgt id="660">6.48946e-12</wgt>
  <wgt id="661">6.25894e-12</wgt>
  <wgt id="662">6.3543e-12</wgt>
  <wgt id="663">6.34685e-12</wgt>
  <wgt id="664">6.25728e-12</wgt>
  <wgt id="665">6.33546e-12</wgt>
  <wgt id="666">6.32716e-12</wgt>
  <wgt id="667">6.55132e-12</wgt>
  <wgt id="668">6.33902e-12</wgt>
  <wgt id="669">6.51707e-12</wgt>
  <wgt id="670">6.45411e-12</wgt>
  <wgt id="671">6.27836e-12</wgt>
  <wgt id="672">6.09411e-12</wgt>
  <wgt id="673">6.34586e-12</wgt>
  <wgt id="674">6.2386e-12</wgt>
  <wgt id="675">6.25064e-12</wgt>
  <wgt id="676">7.96396e-12</wgt>
  <wgt id="677">8.06175e-12</wgt>
  <wgt id="678">8.32379e-12</wgt>
  <wgt id="679">7.50148e-12</wgt>
  <wgt id="680">7.72219e-12</wgt>
  <wgt id="681">8.17943e-12</wgt>
  <wgt id="682">8.14345e-12</wgt>
  <wgt id="683">7.88746e-12</wgt>
  <wgt id="684">8.31999e-12</wgt>
  <wgt id="685">7.52543e-12</wgt>
  <wgt id="686">7.9187e-12</wgt>
  <wgt id="687">8.34613e-12</wgt>
  <wgt id="688">7.95379e-12</wgt>
  <wgt id="689">8.60141e-12</wgt>
  <wgt id="690">8.40122e-12</wgt>
  <wgt id="691">8.45009e-12</wgt>
  <wgt id="692">7.90437e-12</wgt>
  <wgt id="693">9.22793e-12</wgt>
  <wgt id="694">8.41356e-12</wgt>
  <wgt id="695">7.71567e-12</wgt>
  <wgt id="696">7.54507e-12</wgt>
  <wgt id="697">7.76706e-12</wgt>
  <wgt id="698">7.41458e-12</wgt>
  <wgt id="699">7.34048e-12</wgt>
  <wgt id="700">7.01577e-12</wgt>
  <wgt id="701">7.99092e-12</wgt>
  <wgt id="702">7.64531e-12</wgt>
  <wgt id="703">9.06206e-12</wgt>
  <wgt id="704">8.60698e-12</wgt>
  <wgt id="705">8.25407e-12</wgt>
  <wgt id="706">7.41551e-12</wgt>
  <wgt id="707">7.65995e-12</wgt>
  <wgt id="708">7.87117e-12</wgt>
  <wgt id="709">7.83344e-12</wgt>
  <wgt id="710">7.13589e-12</wgt>
  <wgt id="711">7.93426e-12</wgt>
  <wgt id="712">7.86016e-12</wgt>
  <wgt id="713">8.57711e-12</wgt>
  <wgt id="714">7.90544e-12</wgt>
  <wgt id="715">7.89234e-12</wgt>
  <wgt id="716">7.66293e-12</wgt>
  <wgt id="717">7.6499e-12</wgt>
  <wgt id="718">7.87225e-12</wgt>
  <wgt id="719">7.26403e-12</wgt>
  <wgt id="720">7.50232e-12</wgt>
  <wgt id="721">7.46983e-12</wgt>
  <wgt id="722">7.15816e-12</wgt>
  <wgt id="723">8.44374e-12</wgt>
  <wgt id="724">8.30151e-12</wgt>
  <wgt id="725">8.41601e-12</wgt>
  <wgt id="726">8.05402e-12</wgt>
  <wgt id="727">7.77433e-12</wgt>
  <wgt id="728">7.84671e-12</wgt>
  <wgt id="729">7.18176e-12</wgt>
  <wgt id="730">8.53661e-12</wgt>
  <wgt id="731">7.88245e-12</wgt>
  <wgt id="732">8.69724e-12</wgt>
  <wgt id="733">7.9845e-12</wgt>
  <wgt id="734">8.15385e-12</wgt>
  <wgt id="735">7.91007e-12</wgt>
  <wgt id="736">7.85039e-12</wgt>
  <wgt id="737">8.10611e-12</wgt>
  <wgt id="738">7.60127e-12</wgt>
  <wgt id="739">7.9897e-12</wgt>
  <wgt id="740">8.81064e-12</wgt>
  <wgt id="741">7.07482e-12</wgt>
  <wgt id="742">7.83673e-12</wgt>
  <wgt id="743">7.67421e-12</wgt>
  <wgt id="744">7.80623e-12</wgt>
  <wgt id="745">8.29144e-12</wgt>
  <wgt id="746">8.40474e-12</wgt>
  <wgt id="747">7.30353e-12</wgt>
  <wgt id="748">7.8555e-12</wgt>
  <wgt id="749">8.40632e-12</wgt>
  <wgt id="750">7.95616e-12</wgt>
  <wgt id="751">8.24845e-12</wgt>
  <wgt id="752">7.33165e-12</wgt>
  <wgt id="753">7.60623e-12</wgt>
  <wgt id="754">8.29013e-12</wgt>
  <wgt id="755">8.01019e-12</wgt>
  <wgt id="756">8.02633e-12</wgt>
  <wgt id="757">7.37867e-12</wgt>
  <wgt id="758">8.06354e-12</wgt>
  <wgt id="759">7.98579e-12</wgt>
  <wgt id="760">8.09841e-12</wgt>
  <wgt id="761">8.37779e-12</wgt>
  <wgt id="762">8.40917e-12</wgt>
  <wgt id="763">7.95546e-12</wgt>
  <wgt id="764">8.26046e-12</wgt>
  <wgt id="765">8.09948e-12</wgt>
  <wgt id="766">7.9415e-12</wgt>
  <wgt id="767">8.16426e-12</wgt>
  <wgt id="768">7.55267e-12</wgt>
  <wgt id="769">8.43223e-12</wgt>
  <wgt id="770">7.71686e-12</wgt>
  <wgt id="771">9.36038e-12</wgt>
  <wgt id="772">7.50015e-12</wgt>
  <wgt id="773">7.91921e-12</wgt>
  <wgt id="774">7.17334e-12</wgt>
  <wgt id="775">8.38276e-12</wgt>
  <wgt id="776">8.69729e-12</wgt>
  <wgt id="777">7.65686e-12</wgt>
  <wgt id="778">5.93135e-12</wgt>
  <wgt id="779">5.02414e-12</wgt>
  <wgt id="780">4.17804e-12</wgt>
  <wgt id="781">5.92293e-12</wgt>
  <wgt id="782">6.27109e-12</wgt>
  <wgt id="783">5.10378e-12</wgt>
  <wgt id="784">5.24738e-12</wgt>
  <wgt id="785">7.12945e-12</wgt>
  <wgt id="786">4.62077e-12</wgt>
  <wgt id="787">6.68608e-12</wgt>
  <wgt id="788">3.88545e-12</wgt>
  <wgt id="789">4.7408e-12</wgt>
  <wgt id="790">4.5859e-12</wgt>
  <wgt id="791">5.49609e-12</wgt>
  <wgt id="792">7.59736e-12</wgt>
  <wgt id="793">5.74893e-12</wgt>
  <wgt id="794">4.64189e-12</wgt>
  <wgt id="795">6.85389e-12</wgt>
  <wgt id="796">7.75262e-12</wgt>
  <wgt id="797">6.78806e-12</wgt>
  <wgt id="798">5.52396e-12</wgt>
  <wgt id="799">6.71021e-12</wgt>
  <wgt id="800">4.80379e-12</wgt>
  <wgt id="801">5.57505e-12</wgt>
  <wgt id="802">4.68251e-12</wgt>
  <wgt id="803">7.61916e-12</wgt>
  <wgt id="804">6.80286e-12</wgt>
  <wgt id="805">6.9428e-12</wgt>
  <wgt id="806">6.69012e-12</wgt>
  <wgt id="807">5.6677e-12</wgt>
  <wgt id="808">5.79275e-12</wgt>
  <wgt id="809">5.46695e-12</wgt>
  <wgt id="810">6.77957e-12</wgt>
  <wgt id="811">6.47048e-12</wgt>
  <wgt id="812">4.59718e-12</wgt>
  <wgt id="813">4.67871e-12</wgt>
  <wgt id="814">5.08944e-12</wgt>
  <wgt id="815">5.03975e-12</wgt>
  <wgt id="816">4.42285e-12</wgt>
  <wgt id="817">6.25212e-12</wgt>
  <wgt id="818">5.79505e-12</wgt>
  <wgt id="819">5.02687e-12</wgt>
  <wgt id="820">5.956e-12</wgt>
  <wgt id="821">6.78548e-12</wgt>
  <wgt id="822">5.02335e-12</wgt>
  <wgt id="823">6.80501e-12</wgt>
  <wgt id="824">7.91933e-12</wgt>
  <wgt id="825">4.47458e-12</wgt>
  <wgt id="826">6.20224e-12</wgt>
  <wgt id="827">3.71646e-12</wgt>
  <wgt id="828">7.60578e-12</wgt>
  <wgt id="829">6.15806e-12</wgt>
  <wgt id="830">4.24809e-12</wgt>
  <wgt id="831">6.35341e-12</wgt>
  <wgt id="832">9.62792e-12</wgt>
  <wgt id="833">5.58899e-12</wgt>
  <wgt id="834">8.97561e-12</wgt>
  <wgt id="835">4.83683e-12</wgt>
  <wgt id="836">5.95978e-12</wgt>
  <wgt id="837">6.70009e-12</wgt>
  <wgt id="838">5.70217e-12</wgt>
  <wgt id="839">6.31734e-12</wgt>
  <wgt id="840">5.59352e-12</wgt>
  <wgt id="841">7.20745e-12</wgt>
  <wgt id="842">5.39594e-12</wgt>
  <wgt id="843">5.78717e-12</wgt>
  <wgt id="844">6.16818e-12</wgt>
  <wgt id="845">8.12816e-12</wgt>
  <wgt id="846">5.43992e-12</wgt>
  <wgt id="847">5.94085e-12</wgt>
  <wgt id="848">5.21636e-12</wgt>
  <wgt id="849">6.07265e-12</wgt>
  <wgt id="850">7.63303e-12</wgt>
  <wgt id="851">6.47682e-12</wgt>
  <wgt id="852">5.18753e-12</wgt>
  <wgt id="853">6.45564e-12</wgt>
  <wgt id="854">7.15925e-12</wgt>
  <wgt id="855">6.82798e-12</wgt>
  <wgt id="856">4.36439e-12</wgt>
  <wgt id="857">5.9849e-12</wgt>
  <wgt id="858">5.92592e-12</wgt>
  <wgt id="859">5.51174e-12</wgt>
  <wgt id="860">6.29911e-12</wgt>
  <wgt id="861">5.27241e-12</wgt>
  <wgt id="862">6.04843e-12</wgt>
  <wgt id="863">6.23906e-12</wgt>
  <wgt id="864">6.29224e-12</wgt>
  <wgt id="865">8.40857e-12</wgt>
  <wgt id="866">9.18725e-12</wgt>
  <wgt id="867">6.03351e-12</wgt>
  <wgt id="868">5.87127e-12</wgt>
  <wgt id="869">4.67962e-12</wgt>
  <wgt id="870">4.91366e-12</wgt>
  <wgt id="871">4.77277e-12</wgt>
  <wgt id="872">6.99055e-12</wgt>
  <wgt id="873">4.89575e-12</wgt>
  <wgt id="874">6.21586e-12</wgt>
  <wgt id="875">5.18215e-12</wgt>
  <wgt id="876">7.0182e-12</wgt>
  <wgt id="877">6.77211e-12</wgt>
  <wgt id="878">5.16247e-12</wgt>
  <wgt id="879">7.96396e-12</wgt>
  <wgt id="880">8.06175e-12</wgt>
  <wgt id="881">8.32379e-12</wgt>
  <wgt id="882">7.50148e-12</wgt>
  <wgt id="883">7.72219e-12</wgt>
  <wgt id="884">8.17943e-12</wgt>
  <wgt id="885">8.14345e-12</wgt>
  <wgt id="886">7.88746e-12</wgt>
  <wgt id="887">8.31999e-12</wgt>
  <wgt id="888">7.52543e-12</wgt>
  <wgt id="889">7.9187e-12</wgt>
  <wgt id="890">8.34613e-12</wgt>
  <wgt id="891">7.95379e-12</wgt>
  <wgt id="892">8.60141e-12</wgt>
  <wgt id="893">8.40122e-12</wgt>
  <wgt id="894">8.45009e-12</wgt>
  <wgt id="895">7.90437e-12</wgt>
  <wgt id="896">9.22793e-12</wgt>
  <wgt id="897">8.41356e-12</wgt>
  <wgt id="898">7.71567e-12</wgt>
  <wgt id="899">7.54507e-12</wgt>
  <wgt id="900">7.76706e-12</wgt>
  <wgt id="901">7.41458e-12</wgt>
  <wgt id="902">7.34048e-12</wgt>
  <wgt id="903">7.01577e-12</wgt>
  <wgt id="904">7.99092e-12</wgt>
  <wgt id="905">7.64531e-12</wgt>
  <wgt id="906">9.06206e-12</wgt>
  <wgt id="907">8.60698e-12</wgt>
  <wgt id="908">8.25407e-12</wgt>
  <wgt id="909">7.41551e-12</wgt>
  <wgt id="910">7.65995e-12</wgt>
  <wgt id="911">7.87117e-12</wgt>
  <wgt id="912">7.83344e-12</wgt>
  <wgt id="913">7.13589e-12</wgt>
  <wgt id="914">7.93426e-12</wgt>
  <wgt id="915">7.86016e-12</wgt>
  <wgt id="916">8.57711e-12</wgt>
  <wgt id="917">7.90544e-12</wgt>
  <wgt id="918">7.89234e-12</wgt>
  <wgt id="919">7.66293e-12</wgt>
  <wgt id="920">7.6499e-12</wgt>
  <wgt id="921">7.87225e-12</wgt>
  <wgt id="922">7.26403e-12</wgt>
  <wgt id="923">7.50232e-12</wgt>
  <wgt id="924">7.46983e-12</wgt>
  <wgt id="925">7.15816e-12</wgt>
  <wgt id="926">8.44374e-12</wgt>
  <wgt id="927">8.30151e-12</wgt>
  <wgt id="928">8.41601e-12</wgt>
  <wgt id="929">8.05402e-12</wgt>
  <wgt id="930">7.77433e-12</wgt>
  <wgt id="931">7.84671e-12</wgt>
  <wgt id="932">7.18176e-12</wgt>
  <wgt id="933">8.53661e-12</wgt>
  <wgt id="934">7.88245e-12</wgt>
  <wgt id="935">8.69724e-12</wgt>
  <wgt id="936">7.9845e-12</wgt>
  <wgt id="937">8.15385e-12</wgt>
  <wgt id="938">7.91007e-12</wgt>
  <wgt id="939">7.85039e-12</wgt>
  <wgt id="940">8.10611e-12</wgt>
  <wgt id="941">7.60127e-12</wgt>
  <wgt id="942">7.9897e-12</wgt>
  <wgt id="943">8.81064e-12</wgt>
  <wgt id="944">7.07482e-12</wgt>
  <wgt id="945">7.83673e-12</wgt>
  <wgt id="946">7.67421e-12</wgt>
  <wgt id="947">7.80623e-12</wgt>
  <wgt id="948">8.29144e-12</wgt>
  <wgt id="949">8.40474e-12</wgt>
  <wgt id="950">7.30353e-12</wgt>
  <wgt id="951">7.8555e-12</wgt>
  <wgt id="952">8.40632e-12</wgt>
  <wgt id="953">7.95616e-12</wgt>
  <wgt id="954">8.24845e-12</wgt>
  <wgt id="955">7.33165e-12</wgt>
  <wgt id="956">7.60623e-12</wgt>
  <wgt id="957">8.29013e-12</wgt>
  <wgt id="958">8.01019e-12</wgt>
  <wgt id="959">8.02633e-12</wgt>
  <wgt id="960">7.37867e-12</wgt>
  <wgt id="961">8.06354e-12</wgt>
  <wgt id="962">7.98579e-12</wgt>
  <wgt id="963">8.09841e-12</wgt>
  <wgt id="964">8.37779e-12</wgt>
  <wgt id="965">8.40917e-12</wgt>
  <wgt id="966">7.95546e-12</wgt>
  <wgt id="967">8.26046e-12</wgt>
  <wgt id="968">8.09948e-12</wgt>
  <wgt id="969">7.9415e-12</wgt>
  <wgt id="970">8.16426e-12</wgt>
  <wgt id="971">7.55267e-12</wgt>
  <wgt id="972">8.43223e-12</wgt>
  <wgt id="973">7.71686e-12</wgt>
  <wgt id="974">9.36038e-12</wgt>
  <wgt id="975">7.50015e-12</wgt>
  <wgt id="976">7.91921e-12</wgt>
  <wgt id="977">7.17334e-12</wgt>
  <wgt id="978">8.38276e-12</wgt>
  <wgt id="979">8.69729e-12</wgt>
  <wgt id="980">7.97165e-12</wgt>
  <wgt id="981">8.00123e-12</wgt>
  <wgt id="982">7.74196e-12</wgt>
</rwgt>
</event>
<event>
 5   1  0.5790000E-11  0.2318849E+04  0.7818608E-02  0.7705530E-01
       21   -1    0    0  502  501  0.00000000000E+00  0.00000000000E+00  0.66944892315E+03  0.66944892315E+03  0.00000000000E+00 0. -1.
       21   -1    0    0  501  502 -0.00000000000E+00 -0.00000000000E+00 -0.20080179420E+04  0.20080179420E+04  0.00000000000E+00 0.  1.
       39    2    1    2    0    0  0.00000000000E+00  0.00000000000E+00 -0.13385690189E+04  0.26774668652E+04  0.23188492396E+04 0.  0.
       25    1    3    3    0    0 -0.10323330030E+04  0.17783485717E+03 -0.11396496413E+03  0.10611077601E+04  0.12500000000E+03 0.  0.
       25    1    3    3    0    0  0.10323330030E+04 -0.17783485717E+03 -0.12246040547E+04  0.16163591050E+04  0.12500000000E+03 0.  0.
<mgrwt>
<rscale>  0 0.23188492E+04</rscale>
<asrwt>0</asrwt>
<pdfrwt beam="1">  1       21 0.10299214E+00 0.23188492E+04</pdfrwt>
<pdfrwt beam="2">  1       21 0.30892583E+00 0.23188492E+04</pdfrwt>
<totfact> 0.80342042E+00</totfact>
</mgrwt>
<rwgt>
  <wgt id="1">5.79e-12</wgt>
  <wgt id="2">5.00677e-12</wgt>
  <wgt id="3">6.76935e-12</wgt>
  <wgt id="4">5.79e-12</wgt>
  <wgt id="5">5.00677e-12</wgt>
  <wgt id="6">6.76935e-12</wgt>
  <wgt id="7">5.79e-12</wgt>
  <wgt id="8">5.00677e-12</wgt>
  <wgt id="9">6.76935e-12</wgt>
  <wgt id="10">6.07871e-12</wgt>
  <wgt id="11">6.07614e-12</wgt>
  <wgt id="12">6.0656e-12</wgt>
  <wgt id="13">6.065e-12</wgt>
  <wgt id="14">6.09952e-12</wgt>
  <wgt id="15">6.08896e-12</wgt>
  <wgt id="16">6.06607e-12</wgt>
  <wgt id="17">6.10854e-12</wgt>
  <wgt id="18">6.0718e-12</wgt>
  <wgt id="19">6.10093e-12</wgt>
  <wgt id="20">6.0743e-12</wgt>
  <wgt id="21">6.03002e-12</wgt>
  <wgt id="22">6.0359e-12</wgt>
  <wgt id="23">5.98853e-12</wgt>
  <wgt id="24">6.03335e-12</wgt>
  <wgt id="25">6.05513e-12</wgt>
  <wgt id="26">6.09635e-12</wgt>
  <wgt id="27">6.0677e-12</wgt>
  <wgt id="28">6.03946e-12</wgt>
  <wgt id="29">6.08109e-12</wgt>
  <wgt id="30">6.03058e-12</wgt>
  <wgt id="31">6.10662e-12</wgt>
  <wgt id="32">6.03647e-12</wgt>
  <wgt id="33">6.08742e-12</wgt>
  <wgt id="34">6.03992e-12</wgt>
  <wgt id="35">6.04154e-12</wgt>
  <wgt id="36">6.10723e-12</wgt>
  <wgt id="37">6.05837e-12</wgt>
  <wgt id="38">6.05367e-12</wgt>
  <wgt id="39">6.1836e-12</wgt>
  <wgt id="40">6.08452e-12</wgt>
  <wgt id="41">6.0746e-12</wgt>
  <wgt id="42">6.09132e-12</wgt>
  <wgt id="43">6.08206e-12</wgt>
  <wgt id="44">6.10442e-12</wgt>
  <wgt id="45">6.08661e-12</wgt>
  <wgt id="46">6.05776e-12</wgt>
  <wgt id="47">6.12652e-12</wgt>
  <wgt id="48">6.10662e-12</wgt>
  <wgt id="49">6.04698e-12</wgt>
  <wgt id="50">6.0352e-12</wgt>
  <wgt id="51">6.04628e-12</wgt>
  <wgt id="52">6.09381e-12</wgt>
  <wgt id="53">6.11849e-12</wgt>
  <wgt id="54">6.10396e-12</wgt>
  <wgt id="55">6.07687e-12</wgt>
  <wgt id="56">6.06335e-12</wgt>
  <wgt id="57">6.0529e-12</wgt>
  <wgt id="58">6.07184e-12</wgt>
  <wgt id="59">6.0843e-12</wgt>
  <wgt id="60">6.04199e-12</wgt>
  <wgt id="61">6.04204e-12</wgt>
  <wgt id="62">6.06123e-12</wgt>
  <wgt id="63">6.0719e-12</wgt>
  <wgt id="64">6.07477e-12</wgt>
  <wgt id="65">6.06178e-12</wgt>
  <wgt id="66">6.081e-12</wgt>
  <wgt id="67">6.06259e-12</wgt>
  <wgt id="68">6.07744e-12</wgt>
  <wgt id="69">6.06995e-12</wgt>
  <wgt id="70">6.06648e-12</wgt>
  <wgt id="71">6.07356e-12</wgt>
  <wgt id="72">6.04484e-12</wgt>
  <wgt id="73">6.10239e-12</wgt>
  <wgt id="74">6.09678e-12</wgt>
  <wgt id="75">6.07895e-12</wgt>
  <wgt id="76">6.11498e-12</wgt>
  <wgt id="77">6.06886e-12</wgt>
  <wgt id="78">6.07318e-12</wgt>
  <wgt id="79">6.09502e-12</wgt>
  <wgt id="80">6.03215e-12</wgt>
  <wgt id="81">6.0779e-12</wgt>
  <wgt id="82">6.08362e-12</wgt>
  <wgt id="83">6.04397e-12</wgt>
  <wgt id="84">6.06257e-12</wgt>
  <wgt id="85">6.05692e-12</wgt>
  <wgt id="86">6.10015e-12</wgt>
  <wgt id="87">6.02742e-12</wgt>
  <wgt id="88">6.09322e-12</wgt>
  <wgt id="89">6.08731e-12</wgt>
  <wgt id="90">6.09932e-12</wgt>
  <wgt id="91">6.08601e-12</wgt>
  <wgt id="92">6.09419e-12</wgt>
  <wgt id="93">6.08658e-12</wgt>
  <wgt id="94">6.06472e-12</wgt>
  <wgt id="95">6.0992e-12</wgt>
  <wgt id="96">6.0921e-12</wgt>
  <wgt id="97">6.05704e-12</wgt>
  <wgt id="98">6.0784e-12</wgt>
  <wgt id="99">6.06758e-12</wgt>
  <wgt id="100">6.09343e-12</wgt>
  <wgt id="101">6.07392e-12</wgt>
  <wgt id="102">6.0702e-12</wgt>
  <wgt id="103">6.09895e-12</wgt>
  <wgt id="104">6.06752e-12</wgt>
  <wgt id="105">6.09027e-12</wgt>
  <wgt id="106">6.06417e-12</wgt>
  <wgt id="107">6.11192e-12</wgt>
  <wgt id="108">6.06758e-12</wgt>
  <wgt id="109">6.08566e-12</wgt>
  <wgt id="110">6.07567e-12</wgt>
  <wgt id="111">6.09649e-12</wgt>
  <wgt id="112">6.14514e-12</wgt>
  <wgt id="113">8.63897e-12</wgt>
  <wgt id="114">8.19353e-12</wgt>
  <wgt id="115">8.04516e-12</wgt>
  <wgt id="116">1.11435e-11</wgt>
  <wgt id="117">6.71506e-12</wgt>
  <wgt id="118">6.73992e-12</wgt>
  <wgt id="119">6.70094e-12</wgt>
  <wgt id="120">6.71536e-12</wgt>
  <wgt id="121">6.71491e-12</wgt>
  <wgt id="122">6.70431e-12</wgt>
  <wgt id="123">6.73002e-12</wgt>
  <wgt id="124">6.70604e-12</wgt>
  <wgt id="125">6.72094e-12</wgt>
  <wgt id="126">6.72537e-12</wgt>
  <wgt id="127">6.70822e-12</wgt>
  <wgt id="128">6.73564e-12</wgt>
  <wgt id="129">6.6946e-12</wgt>
  <wgt id="130">6.74943e-12</wgt>
  <wgt id="131">6.67952e-12</wgt>
  <wgt id="132">6.5309e-12</wgt>
  <wgt id="133">6.93425e-12</wgt>
  <wgt id="134">6.64258e-12</wgt>
  <wgt id="135">6.77195e-12</wgt>
  <wgt id="136">6.81506e-12</wgt>
  <wgt id="137">6.59482e-12</wgt>
  <wgt id="138">7.01263e-12</wgt>
  <wgt id="139">6.43189e-12</wgt>
  <wgt id="140">6.68053e-12</wgt>
  <wgt id="141">6.74137e-12</wgt>
  <wgt id="142">6.71386e-12</wgt>
  <wgt id="143">6.73402e-12</wgt>
  <wgt id="144">6.45276e-12</wgt>
  <wgt id="145">6.96816e-12</wgt>
  <wgt id="146">6.79892e-12</wgt>
  <wgt id="147">6.64684e-12</wgt>
  <wgt id="148">6.73917e-12</wgt>
  <wgt id="149">6.71333e-12</wgt>
  <wgt id="150">6.77211e-12</wgt>
  <wgt id="151">6.68842e-12</wgt>
  <wgt id="152">6.71721e-12</wgt>
  <wgt id="153">6.71432e-12</wgt>
  <wgt id="154">6.73798e-12</wgt>
  <wgt id="155">6.67739e-12</wgt>
  <wgt id="156">6.92492e-12</wgt>
  <wgt id="157">6.51993e-12</wgt>
  <wgt id="158">8.05381e-12</wgt>
  <wgt id="159">8.08803e-12</wgt>
  <wgt id="160">8.0263e-12</wgt>
  <wgt id="161">8.03326e-12</wgt>
  <wgt id="162">8.07674e-12</wgt>
  <wgt id="163">8.04466e-12</wgt>
  <wgt id="164">8.06729e-12</wgt>
  <wgt id="165">8.05691e-12</wgt>
  <wgt id="166">8.0514e-12</wgt>
  <wgt id="167">8.04809e-12</wgt>
  <wgt id="168">8.0617e-12</wgt>
  <wgt id="169">8.02059e-12</wgt>
  <wgt id="170">8.07451e-12</wgt>
  <wgt id="171">8.04713e-12</wgt>
  <wgt id="172">8.06323e-12</wgt>
  <wgt id="173">8.0418e-12</wgt>
  <wgt id="174">8.05783e-12</wgt>
  <wgt id="175">7.81998e-12</wgt>
  <wgt id="176">8.36013e-12</wgt>
  <wgt id="177">8.09272e-12</wgt>
  <wgt id="178">8.01836e-12</wgt>
  <wgt id="179">8.4511e-12</wgt>
  <wgt id="180">7.43914e-12</wgt>
  <wgt id="181">7.79045e-12</wgt>
  <wgt id="182">8.22917e-12</wgt>
  <wgt id="183">7.89394e-12</wgt>
  <wgt id="184">8.1332e-12</wgt>
  <wgt id="185">7.96837e-12</wgt>
  <wgt id="186">8.15699e-12</wgt>
  <wgt id="187">7.96631e-12</wgt>
  <wgt id="188">8.20853e-12</wgt>
  <wgt id="189">7.99251e-12</wgt>
  <wgt id="190">8.07865e-12</wgt>
  <wgt id="191">8.08146e-12</wgt>
  <wgt id="192">8.03753e-12</wgt>
  <wgt id="193">8.18564e-12</wgt>
  <wgt id="194">7.98762e-12</wgt>
  <wgt id="195">7.77971e-12</wgt>
  <wgt id="196">8.50772e-12</wgt>
  <wgt id="197">8.0968e-12</wgt>
  <wgt id="198">8.0435e-12</wgt>
  <wgt id="199">8.05381e-12</wgt>
  <wgt id="200">8.13063e-12</wgt>
  <wgt id="201">8.10419e-12</wgt>
  <wgt id="202">8.07855e-12</wgt>
  <wgt id="203">8.04146e-12</wgt>
  <wgt id="204">8.02292e-12</wgt>
  <wgt id="205">8.00774e-12</wgt>
  <wgt id="206">7.86449e-12</wgt>
  <wgt id="207">7.91148e-12</wgt>
  <wgt id="208">7.81798e-12</wgt>
  <wgt id="209">7.88833e-12</wgt>
  <wgt id="210">7.84702e-12</wgt>
  <wgt id="211">7.86167e-12</wgt>
  <wgt id="212">7.86664e-12</wgt>
  <wgt id="213">7.86378e-12</wgt>
  <wgt id="214">7.86552e-12</wgt>
  <wgt id="215">7.87036e-12</wgt>
  <wgt id="216">7.86029e-12</wgt>
  <wgt id="217">7.88354e-12</wgt>
  <wgt id="218">7.84978e-12</wgt>
  <wgt id="219">7.85505e-12</wgt>
  <wgt id="220">7.87018e-12</wgt>
  <wgt id="221">7.86612e-12</wgt>
  <wgt id="222">7.85894e-12</wgt>
  <wgt id="223">7.42135e-12</wgt>
  <wgt id="224">8.27048e-12</wgt>
  <wgt id="225">7.76691e-12</wgt>
  <wgt id="226">7.98827e-12</wgt>
  <wgt id="227">7.78874e-12</wgt>
  <wgt id="228">7.89768e-12</wgt>
  <wgt id="229">7.75188e-12</wgt>
  <wgt id="230">7.92039e-12</wgt>
  <wgt id="231">8.12434e-12</wgt>
  <wgt id="232">7.65188e-12</wgt>
  <wgt id="233">7.81641e-12</wgt>
  <wgt id="234">7.94423e-12</wgt>
  <wgt id="235">7.5719e-12</wgt>
  <wgt id="236">8.1067e-12</wgt>
  <wgt id="237">7.69091e-12</wgt>
  <wgt id="238">7.9224e-12</wgt>
  <wgt id="239">7.79371e-12</wgt>
  <wgt id="240">7.99137e-12</wgt>
  <wgt id="241">7.77128e-12</wgt>
  <wgt id="242">7.97516e-12</wgt>
  <wgt id="243">7.99427e-12</wgt>
  <wgt id="244">7.87291e-12</wgt>
  <wgt id="245">7.8608e-12</wgt>
  <wgt id="246">7.91111e-12</wgt>
  <wgt id="247">7.86449e-12</wgt>
  <wgt id="248">7.94619e-12</wgt>
  <wgt id="249">7.9177e-12</wgt>
  <wgt id="250">7.8883e-12</wgt>
  <wgt id="251">7.8481e-12</wgt>
  <wgt id="252">7.82775e-12</wgt>
  <wgt id="253">7.81365e-12</wgt>
  <wgt id="254">7.60487e-12</wgt>
  <wgt id="255">7.61169e-12</wgt>
  <wgt id="256">7.59747e-12</wgt>
  <wgt id="257">7.61082e-12</wgt>
  <wgt id="258">7.6005e-12</wgt>
  <wgt id="259">7.65584e-12</wgt>
  <wgt id="260">7.55567e-12</wgt>
  <wgt id="261">7.61685e-12</wgt>
  <wgt id="262">7.59073e-12</wgt>
  <wgt id="263">7.59963e-12</wgt>
  <wgt id="264">7.61096e-12</wgt>
  <wgt id="265">7.59568e-12</wgt>
  <wgt id="266">7.62333e-12</wgt>
  <wgt id="267">7.60738e-12</wgt>
  <wgt id="268">7.60115e-12</wgt>
  <wgt id="269">7.62872e-12</wgt>
  <wgt id="270">7.58867e-12</wgt>
  <wgt id="271">7.58562e-12</wgt>
  <wgt id="272">7.6263e-12</wgt>
  <wgt id="273">7.5839e-12</wgt>
  <wgt id="274">7.62082e-12</wgt>
  <wgt id="275">7.56137e-12</wgt>
  <wgt id="276">7.64986e-12</wgt>
  <wgt id="277">7.56052e-12</wgt>
  <wgt id="278">7.64539e-12</wgt>
  <wgt id="279">7.46178e-12</wgt>
  <wgt id="280">7.78501e-12</wgt>
  <wgt id="281">7.56933e-12</wgt>
  <wgt id="282">7.61334e-12</wgt>
  <wgt id="283">7.36129e-12</wgt>
  <wgt id="284">7.90828e-12</wgt>
  <wgt id="285">7.2026e-12</wgt>
  <wgt id="286">7.94375e-12</wgt>
  <wgt id="287">7.63141e-12</wgt>
  <wgt id="288">7.57087e-12</wgt>
  <wgt id="289">7.6652e-12</wgt>
  <wgt id="290">7.47055e-12</wgt>
  <wgt id="291">7.5769e-12</wgt>
  <wgt id="292">7.60649e-12</wgt>
  <wgt id="293">7.53923e-12</wgt>
  <wgt id="294">7.67005e-12</wgt>
  <wgt id="295">7.44591e-12</wgt>
  <wgt id="296">7.79958e-12</wgt>
  <wgt id="297">7.58962e-12</wgt>
  <wgt id="298">7.64186e-12</wgt>
  <wgt id="299">7.57905e-12</wgt>
  <wgt id="300">7.67335e-12</wgt>
  <wgt id="301">7.45876e-12</wgt>
  <wgt id="302">7.94572e-12</wgt>
  <wgt id="303">7.52528e-12</wgt>
  <wgt id="304">7.64955e-12</wgt>
  <wgt id="305">7.5543e-12</wgt>
  <wgt id="306">7.56144e-12</wgt>
  <wgt id="307">7.54663e-12</wgt>
  <wgt id="308">7.56076e-12</wgt>
  <wgt id="309">7.54991e-12</wgt>
  <wgt id="310">7.60642e-12</wgt>
  <wgt id="311">7.50612e-12</wgt>
  <wgt id="312">7.56482e-12</wgt>
  <wgt id="313">7.54312e-12</wgt>
  <wgt id="314">7.54883e-12</wgt>
  <wgt id="315">7.55942e-12</wgt>
  <wgt id="316">7.54509e-12</wgt>
  <wgt id="317">7.57423e-12</wgt>
  <wgt id="318">7.55989e-12</wgt>
  <wgt id="319">7.54437e-12</wgt>
  <wgt id="320">7.57984e-12</wgt>
  <wgt id="321">7.54003e-12</wgt>
  <wgt id="322">7.53274e-12</wgt>
  <wgt id="323">7.57935e-12</wgt>
  <wgt id="324">7.53838e-12</wgt>
  <wgt id="325">7.56811e-12</wgt>
  <wgt id="326">7.51861e-12</wgt>
  <wgt id="327">7.60003e-12</wgt>
  <wgt id="328">7.51475e-12</wgt>
  <wgt id="329">7.57646e-12</wgt>
  <wgt id="330">7.77237e-12</wgt>
  <wgt id="331">7.3469e-12</wgt>
  <wgt id="332">7.52479e-12</wgt>
  <wgt id="333">7.55948e-12</wgt>
  <wgt id="334">7.36792e-12</wgt>
  <wgt id="335">7.78781e-12</wgt>
  <wgt id="336">7.268e-12</wgt>
  <wgt id="337">7.90826e-12</wgt>
  <wgt id="338">7.64661e-12</wgt>
  <wgt id="339">7.46916e-12</wgt>
  <wgt id="340">7.60921e-12</wgt>
  <wgt id="341">7.41828e-12</wgt>
  <wgt id="342">7.53428e-12</wgt>
  <wgt id="343">7.54132e-12</wgt>
  <wgt id="344">7.49659e-12</wgt>
  <wgt id="345">7.62141e-12</wgt>
  <wgt id="346">7.39141e-12</wgt>
  <wgt id="347">7.7413e-12</wgt>
  <wgt id="348">7.54075e-12</wgt>
  <wgt id="349">7.58713e-12</wgt>
  <wgt id="350">7.52234e-12</wgt>
  <wgt id="351">7.63538e-12</wgt>
  <wgt id="352">7.40404e-12</wgt>
  <wgt id="353">7.89078e-12</wgt>
  <wgt id="354">7.44011e-12</wgt>
  <wgt id="355">7.62242e-12</wgt>
  <wgt id="356">7.60487e-12</wgt>
  <wgt id="357">7.56478e-12</wgt>
  <wgt id="358">7.5543e-12</wgt>
  <wgt id="359">7.60896e-12</wgt>
  <wgt id="360">7.72194e-12</wgt>
  <wgt id="361">7.64174e-12</wgt>
  <wgt id="362">7.79147e-12</wgt>
  <wgt id="363">7.77175e-12</wgt>
  <wgt id="364">7.73549e-12</wgt>
  <wgt id="365">7.70649e-12</wgt>
  <wgt id="366">7.67639e-12</wgt>
  <wgt id="367">7.6185e-12</wgt>
  <wgt id="368">7.58249e-12</wgt>
  <wgt id="369">7.54365e-12</wgt>
  <wgt id="370">7.64174e-12</wgt>
  <wgt id="371">7.67405e-12</wgt>
  <wgt id="372">7.6559e-12</wgt>
  <wgt id="373">7.63028e-12</wgt>
  <wgt id="374">7.63764e-12</wgt>
  <wgt id="375">8.6205e-12</wgt>
  <wgt id="376">8.62128e-12</wgt>
  <wgt id="377">8.61962e-12</wgt>
  <wgt id="378">8.65313e-12</wgt>
  <wgt id="379">8.58829e-12</wgt>
  <wgt id="380">8.64514e-12</wgt>
  <wgt id="381">8.61076e-12</wgt>
  <wgt id="382">8.66172e-12</wgt>
  <wgt id="383">8.57987e-12</wgt>
  <wgt id="384">8.62615e-12</wgt>
  <wgt id="385">8.61532e-12</wgt>
  <wgt id="386">8.65013e-12</wgt>
  <wgt id="387">8.60789e-12</wgt>
  <wgt id="388">8.61297e-12</wgt>
  <wgt id="389">8.63002e-12</wgt>
  <wgt id="390">8.64098e-12</wgt>
  <wgt id="391">8.59882e-12</wgt>
  <wgt id="392">8.54491e-12</wgt>
  <wgt id="393">8.66344e-12</wgt>
  <wgt id="394">8.62779e-12</wgt>
  <wgt id="395">8.61036e-12</wgt>
  <wgt id="396">8.63429e-12</wgt>
  <wgt id="397">8.61074e-12</wgt>
  <wgt id="398">8.60107e-12</wgt>
  <wgt id="399">8.63946e-12</wgt>
  <wgt id="400">8.60713e-12</wgt>
  <wgt id="401">8.65062e-12</wgt>
  <wgt id="402">8.54224e-12</wgt>
  <wgt id="403">8.66747e-12</wgt>
  <wgt id="404">8.86239e-12</wgt>
  <wgt id="405">8.04497e-12</wgt>
  <wgt id="406">8.44649e-12</wgt>
  <wgt id="407">9.00626e-12</wgt>
  <wgt id="408">8.7114e-12</wgt>
  <wgt id="409">8.45241e-12</wgt>
  <wgt id="410">8.33811e-12</wgt>
  <wgt id="411">8.75598e-12</wgt>
  <wgt id="412">8.60109e-12</wgt>
  <wgt id="413">8.64947e-12</wgt>
  <wgt id="414">8.50784e-12</wgt>
  <wgt id="415">8.70822e-12</wgt>
  <wgt id="416">8.90538e-12</wgt>
  <wgt id="417">8.22942e-12</wgt>
  <wgt id="418">8.63716e-12</wgt>
  <wgt id="419">8.53144e-12</wgt>
  <wgt id="420">8.81802e-12</wgt>
  <wgt id="421">8.49154e-12</wgt>
  <wgt id="422">8.57476e-12</wgt>
  <wgt id="423">8.64233e-12</wgt>
  <wgt id="424">8.86497e-12</wgt>
  <wgt id="425">8.45623e-12</wgt>
  <wgt id="426">8.6205e-12</wgt>
  <wgt id="427">8.46535e-12</wgt>
  <wgt id="428">8.98563e-12</wgt>
  <wgt id="429">8.73189e-12</wgt>
  <wgt id="430">9.01328e-12</wgt>
  <wgt id="431">8.95622e-12</wgt>
  <wgt id="432">8.90417e-12</wgt>
  <wgt id="433">8.85317e-12</wgt>
  <wgt id="434">8.78843e-12</wgt>
  <wgt id="435">8.66109e-12</wgt>
  <wgt id="436">8.59661e-12</wgt>
  <wgt id="437">8.53407e-12</wgt>
  <wgt id="438">8.73189e-12</wgt>
  <wgt id="439">8.75886e-12</wgt>
  <wgt id="440">8.74222e-12</wgt>
  <wgt id="441">8.72454e-12</wgt>
  <wgt id="442">8.71871e-12</wgt>
  <wgt id="443">7.98381e-12</wgt>
  <wgt id="444">8.06242e-12</wgt>
  <wgt id="445">8.04787e-12</wgt>
  <wgt id="446">7.92498e-12</wgt>
  <wgt id="447">7.98247e-12</wgt>
  <wgt id="448">7.78436e-12</wgt>
  <wgt id="449">8.14462e-12</wgt>
  <wgt id="450">8.06763e-12</wgt>
  <wgt id="451">7.96202e-12</wgt>
  <wgt id="452">8.16331e-12</wgt>
  <wgt id="453">8.08023e-12</wgt>
  <wgt id="454">7.58047e-12</wgt>
  <wgt id="455">8.04178e-12</wgt>
  <wgt id="456">8.10132e-12</wgt>
  <wgt id="457">8.0115e-12</wgt>
  <wgt id="458">8.1211e-12</wgt>
  <wgt id="459">8.0559e-12</wgt>
  <wgt id="460">8.12816e-12</wgt>
  <wgt id="461">7.79435e-12</wgt>
  <wgt id="462">7.92472e-12</wgt>
  <wgt id="463">7.85905e-12</wgt>
  <wgt id="464">7.94323e-12</wgt>
  <wgt id="465">8.07207e-12</wgt>
  <wgt id="466">7.80678e-12</wgt>
  <wgt id="467">7.9167e-12</wgt>
  <wgt id="468">7.97386e-12</wgt>
  <wgt id="469">7.96332e-12</wgt>
  <wgt id="470">7.86505e-12</wgt>
  <wgt id="471">7.88662e-12</wgt>
  <wgt id="472">8.03686e-12</wgt>
  <wgt id="473">7.71791e-12</wgt>
  <wgt id="474">5.79e-12</wgt>
  <wgt id="475">5.80633e-12</wgt>
  <wgt id="476">5.74374e-12</wgt>
  <wgt id="477">5.84914e-12</wgt>
  <wgt id="478">5.85846e-12</wgt>
  <wgt id="479">5.53592e-12</wgt>
  <wgt id="480">6.08462e-12</wgt>
  <wgt id="481">5.81839e-12</wgt>
  <wgt id="482">5.77927e-12</wgt>
  <wgt id="483">5.76883e-12</wgt>
  <wgt id="484">6.0312e-12</wgt>
  <wgt id="485">5.3694e-12</wgt>
  <wgt id="486">6.08548e-12</wgt>
  <wgt id="487">5.66379e-12</wgt>
  <wgt id="488">5.86344e-12</wgt>
  <wgt id="489">5.26294e-12</wgt>
  <wgt id="490">5.66411e-12</wgt>
  <wgt id="491">5.72485e-12</wgt>
  <wgt id="492">5.69526e-12</wgt>
  <wgt id="493">5.38905e-12</wgt>
  <wgt id="494">5.42259e-12</wgt>
  <wgt id="495">5.80312e-12</wgt>
  <wgt id="496">5.51742e-12</wgt>
  <wgt id="497">5.43177e-12</wgt>
  <wgt id="498">5.96196e-12</wgt>
  <wgt id="499">5.81484e-12</wgt>
  <wgt id="500">5.68777e-12</wgt>
  <wgt id="501">6.01675e-12</wgt>
  <wgt id="502">5.96576e-12</wgt>
  <wgt id="503">5.7098e-12</wgt>
  <wgt id="504">5.97511e-12</wgt>
  <wgt id="505">5.9667e-12</wgt>
  <wgt id="506">5.46211e-12</wgt>
  <wgt id="507">5.72847e-12</wgt>
  <wgt id="508">6.08499e-12</wgt>
  <wgt id="509">5.52846e-12</wgt>
  <wgt id="510">5.85471e-12</wgt>
  <wgt id="511">5.50561e-12</wgt>
  <wgt id="512">6.14535e-12</wgt>
  <wgt id="513">6.02305e-12</wgt>
  <wgt id="514">6.0613e-12</wgt>
  <wgt id="515">5.90661e-12</wgt>
  <wgt id="516">6.34738e-12</wgt>
  <wgt id="517">5.92978e-12</wgt>
  <wgt id="518">5.9922e-12</wgt>
  <wgt id="519">5.56303e-12</wgt>
  <wgt id="520">5.89591e-12</wgt>
  <wgt id="521">5.71321e-12</wgt>
  <wgt id="522">6.03369e-12</wgt>
  <wgt id="523">5.53789e-12</wgt>
  <wgt id="524">5.85971e-12</wgt>
  <wgt id="525">5.73506e-12</wgt>
  <wgt id="526">6.0444e-12</wgt>
  <wgt id="527">5.73416e-12</wgt>
  <wgt id="528">5.78937e-12</wgt>
  <wgt id="529">5.57195e-12</wgt>
  <wgt id="530">6.06131e-12</wgt>
  <wgt id="531">5.57258e-12</wgt>
  <wgt id="532">6.26094e-12</wgt>
  <wgt id="533">5.71775e-12</wgt>
  <wgt id="534">5.60474e-12</wgt>
  <wgt id="535">5.83239e-12</wgt>
  <wgt id="536">5.94959e-12</wgt>
  <wgt id="537">5.55147e-12</wgt>
  <wgt id="538">5.76338e-12</wgt>
  <wgt id="539">5.65822e-12</wgt>
  <wgt id="540">6.08886e-12</wgt>
  <wgt id="541">5.75697e-12</wgt>
  <wgt id="542">5.68721e-12</wgt>
  <wgt id="543">5.62537e-12</wgt>
  <wgt id="544">5.87619e-12</wgt>
  <wgt id="545">5.51135e-12</wgt>
  <wgt id="546">5.37654e-12</wgt>
  <wgt id="547">5.60419e-12</wgt>
  <wgt id="548">5.5771e-12</wgt>
  <wgt id="549">5.68016e-12</wgt>
  <wgt id="550">5.65199e-12</wgt>
  <wgt id="551">5.82979e-12</wgt>
  <wgt id="552">5.35778e-12</wgt>
  <wgt id="553">5.49e-12</wgt>
  <wgt id="554">6.1081e-12</wgt>
  <wgt id="555">5.93484e-12</wgt>
  <wgt id="556">5.66411e-12</wgt>
  <wgt id="557">5.93055e-12</wgt>
  <wgt id="558">5.71694e-12</wgt>
  <wgt id="559">5.80204e-12</wgt>
  <wgt id="560">6.40838e-12</wgt>
  <wgt id="561">5.89309e-12</wgt>
  <wgt id="562">6.00669e-12</wgt>
  <wgt id="563">6.32062e-12</wgt>
  <wgt id="564">6.10457e-12</wgt>
  <wgt id="565">5.91926e-12</wgt>
  <wgt id="566">5.66673e-12</wgt>
  <wgt id="567">5.77811e-12</wgt>
  <wgt id="568">5.61714e-12</wgt>
  <wgt id="569">5.84969e-12</wgt>
  <wgt id="570">5.69783e-12</wgt>
  <wgt id="571">6.40899e-12</wgt>
  <wgt id="572">5.61754e-12</wgt>
  <wgt id="573">5.62036e-12</wgt>
  <wgt id="574">5.64672e-12</wgt>
  <wgt id="575">6.39825e-12</wgt>
  <wgt id="576">6.89337e-12</wgt>
  <wgt id="577">6.6783e-12</wgt>
  <wgt id="578">6.52206e-12</wgt>
  <wgt id="579">6.64649e-12</wgt>
  <wgt id="580">6.79942e-12</wgt>
  <wgt id="581">7.04659e-12</wgt>
  <wgt id="582">6.79038e-12</wgt>
  <wgt id="583">6.50775e-12</wgt>
  <wgt id="584">6.33149e-12</wgt>
  <wgt id="585">5.97787e-12</wgt>
  <wgt id="586">6.04106e-12</wgt>
  <wgt id="587">6.5209e-12</wgt>
  <wgt id="588">6.89233e-12</wgt>
  <wgt id="589">6.93141e-12</wgt>
  <wgt id="590">6.34713e-12</wgt>
  <wgt id="591">6.58751e-12</wgt>
  <wgt id="592">5.94087e-12</wgt>
  <wgt id="593">6.22291e-12</wgt>
  <wgt id="594">6.30382e-12</wgt>
  <wgt id="595">6.67116e-12</wgt>
  <wgt id="596">7.4373e-12</wgt>
  <wgt id="597">6.4649e-12</wgt>
  <wgt id="598">6.44208e-12</wgt>
  <wgt id="599">6.79577e-12</wgt>
  <wgt id="600">6.75413e-12</wgt>
  <wgt id="601">6.14318e-12</wgt>
  <wgt id="602">6.20162e-12</wgt>
  <wgt id="603">6.02495e-12</wgt>
  <wgt id="604">6.55187e-12</wgt>
  <wgt id="605">6.48869e-12</wgt>
  <wgt id="606">6.50987e-12</wgt>
  <wgt id="607">6.64408e-12</wgt>
  <wgt id="608">6.63296e-12</wgt>
  <wgt id="609">6.29827e-12</wgt>
  <wgt id="610">6.12415e-12</wgt>
  <wgt id="611">6.13948e-12</wgt>
  <wgt id="612">6.63411e-12</wgt>
  <wgt id="613">6.13327e-12</wgt>
  <wgt id="614">6.34592e-12</wgt>
  <wgt id="615">6.4773e-12</wgt>
  <wgt id="616">6.2195e-12</wgt>
  <wgt id="617">6.63708e-12</wgt>
  <wgt id="618">7.02189e-12</wgt>
  <wgt id="619">6.27385e-12</wgt>
  <wgt id="620">6.6143e-12</wgt>
  <wgt id="621">6.32939e-12</wgt>
  <wgt id="622">6.5209e-12</wgt>
  <wgt id="623">6.44405e-12</wgt>
  <wgt id="624">6.43813e-12</wgt>
  <wgt id="625">6.11913e-12</wgt>
  <wgt id="626">5.76471e-12</wgt>
  <wgt id="627">5.83135e-12</wgt>
  <wgt id="628">6.37684e-12</wgt>
  <wgt id="629">6.47051e-12</wgt>
  <wgt id="630">6.19955e-12</wgt>
  <wgt id="631">6.54402e-12</wgt>
  <wgt id="632">5.87035e-12</wgt>
  <wgt id="633">6.3642e-12</wgt>
  <wgt id="634">6.13856e-12</wgt>
  <wgt id="635">5.91109e-12</wgt>
  <wgt id="636">6.48067e-12</wgt>
  <wgt id="637">6.36347e-12</wgt>
  <wgt id="638">6.11245e-12</wgt>
  <wgt id="639">6.14577e-12</wgt>
  <wgt id="640">6.26585e-12</wgt>
  <wgt id="641">6.68832e-12</wgt>
  <wgt id="642">5.87513e-12</wgt>
  <wgt id="643">6.24577e-12</wgt>
  <wgt id="644">5.73992e-12</wgt>
  <wgt id="645">6.3915e-12</wgt>
  <wgt id="646">5.93402e-12</wgt>
  <wgt id="647">6.45205e-12</wgt>
  <wgt id="648">6.67441e-12</wgt>
  <wgt id="649">6.42845e-12</wgt>
  <wgt id="650">6.11284e-12</wgt>
  <wgt id="651">6.83449e-12</wgt>
  <wgt id="652">6.14874e-12</wgt>
  <wgt id="653">6.14668e-12</wgt>
  <wgt id="654">6.43123e-12</wgt>
  <wgt id="655">6.1685e-12</wgt>
  <wgt id="656">6.41388e-12</wgt>
  <wgt id="657">6.99894e-12</wgt>
  <wgt id="658">6.42051e-12</wgt>
  <wgt id="659">6.12179e-12</wgt>
  <wgt id="660">6.23254e-12</wgt>
  <wgt id="661">6.24289e-12</wgt>
  <wgt id="662">6.29964e-12</wgt>
  <wgt id="663">6.50507e-12</wgt>
  <wgt id="664">6.45994e-12</wgt>
  <wgt id="665">6.33839e-12</wgt>
  <wgt id="666">6.25547e-12</wgt>
  <wgt id="667">6.73758e-12</wgt>
  <wgt id="668">6.32527e-12</wgt>
  <wgt id="669">6.40766e-12</wgt>
  <wgt id="670">6.70155e-12</wgt>
  <wgt id="671">6.45858e-12</wgt>
  <wgt id="672">6.20833e-12</wgt>
  <wgt id="673">6.76211e-12</wgt>
  <wgt id="674">6.2016e-12</wgt>
  <wgt id="675">6.19049e-12</wgt>
  <wgt id="676">8.28213e-12</wgt>
  <wgt id="677">8.37413e-12</wgt>
  <wgt id="678">9.03666e-12</wgt>
  <wgt id="679">8.37917e-12</wgt>
  <wgt id="680">8.33006e-12</wgt>
  <wgt id="681">8.12251e-12</wgt>
  <wgt id="682">8.68358e-12</wgt>
  <wgt id="683">7.69711e-12</wgt>
  <wgt id="684">8.71291e-12</wgt>
  <wgt id="685">8.22625e-12</wgt>
  <wgt id="686">8.3559e-12</wgt>
  <wgt id="687">8.56219e-12</wgt>
  <wgt id="688">8.03554e-12</wgt>
  <wgt id="689">8.67134e-12</wgt>
  <wgt id="690">8.50861e-12</wgt>
  <wgt id="691">8.51605e-12</wgt>
  <wgt id="692">8.09372e-12</wgt>
  <wgt id="693">1.08236e-11</wgt>
  <wgt id="694">9.08791e-12</wgt>
  <wgt id="695">7.79546e-12</wgt>
  <wgt id="696">7.94237e-12</wgt>
  <wgt id="697">7.54325e-12</wgt>
  <wgt id="698">6.9067e-12</wgt>
  <wgt id="699">7.03662e-12</wgt>
  <wgt id="700">7.29907e-12</wgt>
  <wgt id="701">8.27416e-12</wgt>
  <wgt id="702">8.00394e-12</wgt>
  <wgt id="703">1.01845e-11</wgt>
  <wgt id="704">9.32062e-12</wgt>
  <wgt id="705">9.265e-12</wgt>
  <wgt id="706">7.75174e-12</wgt>
  <wgt id="707">7.77223e-12</wgt>
  <wgt id="708">7.94821e-12</wgt>
  <wgt id="709">8.02582e-12</wgt>
  <wgt id="710">7.06534e-12</wgt>
  <wgt id="711">8.71871e-12</wgt>
  <wgt id="712">7.79367e-12</wgt>
  <wgt id="713">8.93425e-12</wgt>
  <wgt id="714">7.52081e-12</wgt>
  <wgt id="715">7.94013e-12</wgt>
  <wgt id="716">7.96865e-12</wgt>
  <wgt id="717">7.27804e-12</wgt>
  <wgt id="718">8.47007e-12</wgt>
  <wgt id="719">7.5302e-12</wgt>
  <wgt id="720">8.39126e-12</wgt>
  <wgt id="721">7.09856e-12</wgt>
  <wgt id="722">6.61837e-12</wgt>
  <wgt id="723">9.26314e-12</wgt>
  <wgt id="724">8.95661e-12</wgt>
  <wgt id="725">8.66562e-12</wgt>
  <wgt id="726">8.24486e-12</wgt>
  <wgt id="727">8.2868e-12</wgt>
  <wgt id="728">8.0801e-12</wgt>
  <wgt id="729">7.68284e-12</wgt>
  <wgt id="730">9.15009e-12</wgt>
  <wgt id="731">8.13886e-12</wgt>
  <wgt id="732">9.59402e-12</wgt>
  <wgt id="733">7.74918e-12</wgt>
  <wgt id="734">8.55472e-12</wgt>
  <wgt id="735">8.3171e-12</wgt>
  <wgt id="736">7.71849e-12</wgt>
  <wgt id="737">7.83721e-12</wgt>
  <wgt id="738">7.88033e-12</wgt>
  <wgt id="739">8.83657e-12</wgt>
  <wgt id="740">9.73234e-12</wgt>
  <wgt id="741">8.46215e-12</wgt>
  <wgt id="742">8.00379e-12</wgt>
  <wgt id="743">7.57302e-12</wgt>
  <wgt id="744">8.11905e-12</wgt>
  <wgt id="745">9.0048e-12</wgt>
  <wgt id="746">9.25314e-12</wgt>
  <wgt id="747">6.92937e-12</wgt>
  <wgt id="748">8.01655e-12</wgt>
  <wgt id="749">8.61063e-12</wgt>
  <wgt id="750">8.93118e-12</wgt>
  <wgt id="751">8.35185e-12</wgt>
  <wgt id="752">7.46004e-12</wgt>
  <wgt id="753">7.45441e-12</wgt>
  <wgt id="754">8.66213e-12</wgt>
  <wgt id="755">8.11741e-12</wgt>
  <wgt id="756">8.06063e-12</wgt>
  <wgt id="757">7.20592e-12</wgt>
  <wgt id="758">8.07714e-12</wgt>
  <wgt id="759">9.0841e-12</wgt>
  <wgt id="760">7.98387e-12</wgt>
  <wgt id="761">9.12607e-12</wgt>
  <wgt id="762">9.16788e-12</wgt>
  <wgt id="763">8.43214e-12</wgt>
  <wgt id="764">8.8245e-12</wgt>
  <wgt id="765">8.39002e-12</wgt>
  <wgt id="766">8.37326e-12</wgt>
  <wgt id="767">8.45067e-12</wgt>
  <wgt id="768">7.55496e-12</wgt>
  <wgt id="769">8.74164e-12</wgt>
  <wgt id="770">7.83496e-12</wgt>
  <wgt id="771">1.014e-11</wgt>
  <wgt id="772">8.04192e-12</wgt>
  <wgt id="773">8.29176e-12</wgt>
  <wgt id="774">6.61381e-12</wgt>
  <wgt id="775">8.68649e-12</wgt>
  <wgt id="776">9.44616e-12</wgt>
  <wgt id="777">7.40104e-12</wgt>
  <wgt id="778">5.50332e-12</wgt>
  <wgt id="779">3.50733e-12</wgt>
  <wgt id="780">2.17405e-12</wgt>
  <wgt id="781">6.29574e-12</wgt>
  <wgt id="782">6.65709e-12</wgt>
  <wgt id="783">3.2131e-12</wgt>
  <wgt id="784">3.96628e-12</wgt>
  <wgt id="785">8.12637e-12</wgt>
  <wgt id="786">3.18694e-12</wgt>
  <wgt id="787">7.05907e-12</wgt>
  <wgt id="788">1.32845e-12</wgt>
  <wgt id="789">3.9314e-12</wgt>
  <wgt id="790">3.19736e-12</wgt>
  <wgt id="791">6.26635e-12</wgt>
  <wgt id="792">7.47587e-12</wgt>
  <wgt id="793">5.22634e-12</wgt>
  <wgt id="794">2.93821e-12</wgt>
  <wgt id="795">7.5244e-12</wgt>
  <wgt id="796">7.76775e-12</wgt>
  <wgt id="797">7.13885e-12</wgt>
  <wgt id="798">4.2676e-12</wgt>
  <wgt id="799">6.91813e-12</wgt>
  <wgt id="800">4.2538e-12</wgt>
  <wgt id="801">5.27614e-12</wgt>
  <wgt id="802">2.8368e-12</wgt>
  <wgt id="803">8.79848e-12</wgt>
  <wgt id="804">7.53101e-12</wgt>
  <wgt id="805">7.35138e-12</wgt>
  <wgt id="806">6.05355e-12</wgt>
  <wgt id="807">5.37701e-12</wgt>
  <wgt id="808">5.2677e-12</wgt>
  <wgt id="809">4.96216e-12</wgt>
  <wgt id="810">6.48071e-12</wgt>
  <wgt id="811">5.80905e-12</wgt>
  <wgt id="812">3.26027e-12</wgt>
  <wgt id="813">3.49599e-12</wgt>
  <wgt id="814">3.86557e-12</wgt>
  <wgt id="815">3.28216e-12</wgt>
  <wgt id="816">3.56075e-12</wgt>
  <wgt id="817">5.58699e-12</wgt>
  <wgt id="818">7.18913e-12</wgt>
  <wgt id="819">3.45891e-12</wgt>
  <wgt id="820">5.21112e-12</wgt>
  <wgt id="821">6.7006e-12</wgt>
  <wgt id="822">4.41677e-12</wgt>
  <wgt id="823">7.04519e-12</wgt>
  <wgt id="824">8.39618e-12</wgt>
  <wgt id="825">2.699e-12</wgt>
  <wgt id="826">6.86979e-12</wgt>
  <wgt id="827">2.41318e-12</wgt>
  <wgt id="828">7.15159e-12</wgt>
  <wgt id="829">5.69446e-12</wgt>
  <wgt id="830">2.55997e-12</wgt>
  <wgt id="831">6.50011e-12</wgt>
  <wgt id="832">9.95847e-12</wgt>
  <wgt id="833">4.42484e-12</wgt>
  <wgt id="834">9.71617e-12</wgt>
  <wgt id="835">3.87003e-12</wgt>
  <wgt id="836">4.55668e-12</wgt>
  <wgt id="837">6.53439e-12</wgt>
  <wgt id="838">4.44788e-12</wgt>
  <wgt id="839">6.47935e-12</wgt>
  <wgt id="840">4.69991e-12</wgt>
  <wgt id="841">7.79278e-12</wgt>
  <wgt id="842">5.44894e-12</wgt>
  <wgt id="843">5.94628e-12</wgt>
  <wgt id="844">6.14108e-12</wgt>
  <wgt id="845">9.79459e-12</wgt>
  <wgt id="846">5.5723e-12</wgt>
  <wgt id="847">5.9007e-12</wgt>
  <wgt id="848">3.42227e-12</wgt>
  <wgt id="849">6.01811e-12</wgt>
  <wgt id="850">8.4994e-12</wgt>
  <wgt id="851">6.54532e-12</wgt>
  <wgt id="852">2.92108e-12</wgt>
  <wgt id="853">6.8332e-12</wgt>
  <wgt id="854">7.73496e-12</wgt>
  <wgt id="855">6.85151e-12</wgt>
  <wgt id="856">2.53614e-12</wgt>
  <wgt id="857">4.84153e-12</wgt>
  <wgt id="858">5.16859e-12</wgt>
  <wgt id="859">5.29254e-12</wgt>
  <wgt id="860">7.08563e-12</wgt>
  <wgt id="861">4.5535e-12</wgt>
  <wgt id="862">5.65286e-12</wgt>
  <wgt id="863">6.39856e-12</wgt>
  <wgt id="864">5.71389e-12</wgt>
  <wgt id="865">8.9968e-12</wgt>
  <wgt id="866">9.95815e-12</wgt>
  <wgt id="867">5.61531e-12</wgt>
  <wgt id="868">5.73184e-12</wgt>
  <wgt id="869">3.1603e-12</wgt>
  <wgt id="870">3.76474e-12</wgt>
  <wgt id="871">3.77859e-12</wgt>
  <wgt id="872">7.94557e-12</wgt>
  <wgt id="873">4.35125e-12</wgt>
  <wgt id="874">6.14473e-12</wgt>
  <wgt id="875">4.25964e-12</wgt>
  <wgt id="876">7.61139e-12</wgt>
  <wgt id="877">6.34834e-12</wgt>
  <wgt id="878">4.40045e-12</wgt>
  <wgt id="879">8.28213e-12</wgt>
  <wgt id="880">8.37413e-12</wgt>
  <wgt id="881">9.03666e-12</wgt>
  <wgt id="882">8.37917e-12</wgt>
  <wgt id="883">8.33006e-12</wgt>
  <wgt id="884">8.12251e-12</wgt>
  <wgt id="885">8.68358e-12</wgt>
  <wgt id="886">7.69711e-12</wgt>
  <wgt id="887">8.71291e-12</wgt>
  <wgt id="888">8.22625e-12</wgt>
  <wgt id="889">8.3559e-12</wgt>
  <wgt id="890">8.56219e-12</wgt>
  <wgt id="891">8.03554e-12</wgt>
  <wgt id="892">8.67134e-12</wgt>
  <wgt id="893">8.50861e-12</wgt>
  <wgt id="894">8.51605e-12</wgt>
  <wgt id="895">8.09372e-12</wgt>
  <wgt id="896">1.08236e-11</wgt>
  <wgt id="897">9.08791e-12</wgt>
  <wgt id="898">7.79546e-12</wgt>
  <wgt id="899">7.94237e-12</wgt>
  <wgt id="900">7.54325e-12</wgt>
  <wgt id="901">6.9067e-12</wgt>
  <wgt id="902">7.03662e-12</wgt>
  <wgt id="903">7.29907e-12</wgt>
  <wgt id="904">8.27416e-12</wgt>
  <wgt id="905">8.00394e-12</wgt>
  <wgt id="906">1.01845e-11</wgt>
  <wgt id="907">9.32062e-12</wgt>
  <wgt id="908">9.265e-12</wgt>
  <wgt id="909">7.75174e-12</wgt>
  <wgt id="910">7.77223e-12</wgt>
  <wgt id="911">7.94821e-12</wgt>
  <wgt id="912">8.02582e-12</wgt>
  <wgt id="913">7.06534e-12</wgt>
  <wgt id="914">8.71871e-12</wgt>
  <wgt id="915">7.79367e-12</wgt>
  <wgt id="916">8.93425e-12</wgt>
  <wgt id="917">7.52081e-12</wgt>
  <wgt id="918">7.94013e-12</wgt>
  <wgt id="919">7.96865e-12</wgt>
  <wgt id="920">7.27804e-12</wgt>
  <wgt id="921">8.47007e-12</wgt>
  <wgt id="922">7.5302e-12</wgt>
  <wgt id="923">8.39126e-12</wgt>
  <wgt id="924">7.09856e-12</wgt>
  <wgt id="925">6.61837e-12</wgt>
  <wgt id="926">9.26314e-12</wgt>
  <wgt id="927">8.95661e-12</wgt>
  <wgt id="928">8.66562e-12</wgt>
  <wgt id="929">8.24486e-12</wgt>
  <wgt id="930">8.2868e-12</wgt>
  <wgt id="931">8.0801e-12</wgt>
  <wgt id="932">7.68284e-12</wgt>
  <wgt id="933">9.15009e-12</wgt>
  <wgt id="934">8.13886e-12</wgt>
  <wgt id="935">9.59402e-12</wgt>
  <wgt id="936">7.74918e-12</wgt>
  <wgt id="937">8.55472e-12</wgt>
  <wgt id="938">8.3171e-12</wgt>
  <wgt id="939">7.71849e-12</wgt>
  <wgt id="940">7.83721e-12</wgt>
  <wgt id="941">7.88033e-12</wgt>
  <wgt id="942">8.83657e-12</wgt>
  <wgt id="943">9.73234e-12</wgt>
  <wgt id="944">8.46215e-12</wgt>
  <wgt id="945">8.00379e-12</wgt>
  <wgt id="946">7.57302e-12</wgt>
  <wgt id="947">8.11905e-12</wgt>
  <wgt id="948">9.0048e-12</wgt>
  <wgt id="949">9.25314e-12</wgt>
  <wgt id="950">6.92937e-12</wgt>
  <wgt id="951">8.01655e-12</wgt>
  <wgt id="952">8.61063e-12</wgt>
  <wgt id="953">8.93118e-12</wgt>
  <wgt id="954">8.35185e-12</wgt>
  <wgt id="955">7.46004e-12</wgt>
  <wgt id="956">7.45441e-12</wgt>
  <wgt id="957">8.66213e-12</wgt>
  <wgt id="958">8.11741e-12</wgt>
  <wgt id="959">8.06063e-12</wgt>
  <wgt id="960">7.20592e-12</wgt>
  <wgt id="961">8.07714e-12</wgt>
  <wgt id="962">9.0841e-12</wgt>
  <wgt id="963">7.98387e-12</wgt>
  <wgt id="964">9.12607e-12</wgt>
  <wgt id="965">9.16788e-12</wgt>
  <wgt id="966">8.43214e-12</wgt>
  <wgt id="967">8.8245e-12</wgt>
  <wgt id="968">8.39002e-12</wgt>
  <wgt id="969">8.37326e-12</wgt>
  <wgt id="970">8.45067e-12</wgt>
  <wgt id="971">7.55496e-12</wgt>
  <wgt id="972">8.74164e-12</wgt>
  <wgt id="973">7.83496e-12</wgt>
  <wgt id="974">1.014e-11</wgt>
  <wgt id="975">8.04192e-12</wgt>
  <wgt id="976">8.29176e-12</wgt>
  <wgt id="977">6.61381e-12</wgt>
  <wgt id="978">8.68649e-12</wgt>
  <wgt id="979">9.44616e-12</wgt>
  <wgt id="980">8.22684e-12</wgt>
  <wgt id="981">8.44827e-12</wgt>
  <wgt id="982">8.02264e-12</wgt>
</rwgt>
</event>
<event>
 5   1  0.5790000E-11  0.2338743E+04  0.7818608E-02  0.7698542E-01
       21   -1    0    0  502  501  0.00000000000E+00  0.00000000000E+00  0.25768653928E+04  0.25768653928E+04  0.00000000000E+00 0.  1.
       21   -1    0    0  501  502 -0.00000000000E+00 -0.00000000000E+00 -0.53065609895E+03  0.53065609895E+03  0.00000000000E+00 0. -1.
       39    2    1    2    0    0  0.00000000000E+00  0.00000000000E+00  0.20462092939E+04  0.31075214918E+04  0.23387426852E+04 0.  0.
       25    1    3    3    0    0 -0.65299645183E+03 -0.72181073913E+03  0.18680555759E+04  0.21101354800E+04  0.12500000000E+03 0.  0.
       25    1    3    3    0    0  0.65299645183E+03  0.72181073913E+03  0.17815371793E+03  0.99738601175E+03  0.12500000000E+03 0.  0.
<mgrwt>
<rscale>  0 0.23387427E+04</rscale>
<asrwt>0</asrwt>
<pdfrwt beam="1">  1       21 0.39644082E+00 0.23387427E+04</pdfrwt>
<pdfrwt beam="2">  1       21 0.81639401E-01 0.23387427E+04</pdfrwt>
<totfact> 0.40260964E+00</totfact>
</mgrwt>
<rwgt>
  <wgt id="1">5.79e-12</wgt>
  <wgt id="2">4.94629e-12</wgt>
  <wgt id="3">6.86271e-12</wgt>
  <wgt id="4">5.79e-12</wgt>
  <wgt id="5">4.94629e-12</wgt>
  <wgt id="6">6.86271e-12</wgt>
  <wgt id="7">5.79e-12</wgt>
  <wgt id="8">4.94629e-12</wgt>
  <wgt id="9">6.86271e-12</wgt>
  <wgt id="10">6.19384e-12</wgt>
  <wgt id="11">6.19891e-12</wgt>
  <wgt id="12">6.17198e-12</wgt>
  <wgt id="13">6.18948e-12</wgt>
  <wgt id="14">6.19764e-12</wgt>
  <wgt id="15">6.19952e-12</wgt>
  <wgt id="16">6.1601e-12</wgt>
  <wgt id="17">6.2475e-12</wgt>
  <wgt id="18">6.19427e-12</wgt>
  <wgt id="19">6.22979e-12</wgt>
  <wgt id="20">6.20461e-12</wgt>
  <wgt id="21">6.12828e-12</wgt>
  <wgt id="22">6.13606e-12</wgt>
  <wgt id="23">6.07812e-12</wgt>
  <wgt id="24">6.13746e-12</wgt>
  <wgt id="25">6.177e-12</wgt>
  <wgt id="26">6.20743e-12</wgt>
  <wgt id="27">6.1786e-12</wgt>
  <wgt id="28">6.1515e-12</wgt>
  <wgt id="29">6.1935e-12</wgt>
  <wgt id="30">6.1263e-12</wgt>
  <wgt id="31">6.21997e-12</wgt>
  <wgt id="32">6.11672e-12</wgt>
  <wgt id="33">6.19734e-12</wgt>
  <wgt id="34">6.13536e-12</wgt>
  <wgt id="35">6.11813e-12</wgt>
  <wgt id="36">6.22833e-12</wgt>
  <wgt id="37">6.17415e-12</wgt>
  <wgt id="38">6.1586e-12</wgt>
  <wgt id="39">6.33927e-12</wgt>
  <wgt id="40">6.21404e-12</wgt>
  <wgt id="41">6.18664e-12</wgt>
  <wgt id="42">6.20676e-12</wgt>
  <wgt id="43">6.20737e-12</wgt>
  <wgt id="44">6.24766e-12</wgt>
  <wgt id="45">6.20557e-12</wgt>
  <wgt id="46">6.14088e-12</wgt>
  <wgt id="47">6.31573e-12</wgt>
  <wgt id="48">6.27344e-12</wgt>
  <wgt id="49">6.16405e-12</wgt>
  <wgt id="50">6.10344e-12</wgt>
  <wgt id="51">6.12872e-12</wgt>
  <wgt id="52">6.2027e-12</wgt>
  <wgt id="53">6.3573e-12</wgt>
  <wgt id="54">6.25305e-12</wgt>
  <wgt id="55">6.16974e-12</wgt>
  <wgt id="56">6.07052e-12</wgt>
  <wgt id="57">6.09096e-12</wgt>
  <wgt id="58">6.19405e-12</wgt>
  <wgt id="59">6.2285e-12</wgt>
  <wgt id="60">6.07863e-12</wgt>
  <wgt id="61">6.20051e-12</wgt>
  <wgt id="62">6.23524e-12</wgt>
  <wgt id="63">6.18088e-12</wgt>
  <wgt id="64">6.18205e-12</wgt>
  <wgt id="65">6.13593e-12</wgt>
  <wgt id="66">6.24642e-12</wgt>
  <wgt id="67">6.26503e-12</wgt>
  <wgt id="68">6.1908e-12</wgt>
  <wgt id="69">6.18087e-12</wgt>
  <wgt id="70">6.12703e-12</wgt>
  <wgt id="71">6.23972e-12</wgt>
  <wgt id="72">6.22141e-12</wgt>
  <wgt id="73">6.16705e-12</wgt>
  <wgt id="74">6.24656e-12</wgt>
  <wgt id="75">6.11428e-12</wgt>
  <wgt id="76">6.2448e-12</wgt>
  <wgt id="77">6.17282e-12</wgt>
  <wgt id="78">6.18677e-12</wgt>
  <wgt id="79">6.20662e-12</wgt>
  <wgt id="80">6.14223e-12</wgt>
  <wgt id="81">6.18051e-12</wgt>
  <wgt id="82">6.19817e-12</wgt>
  <wgt id="83">6.1329e-12</wgt>
  <wgt id="84">6.1427e-12</wgt>
  <wgt id="85">6.13747e-12</wgt>
  <wgt id="86">6.26519e-12</wgt>
  <wgt id="87">6.08747e-12</wgt>
  <wgt id="88">6.22485e-12</wgt>
  <wgt id="89">6.21955e-12</wgt>
  <wgt id="90">6.23784e-12</wgt>
  <wgt id="91">6.20011e-12</wgt>
  <wgt id="92">6.22759e-12</wgt>
  <wgt id="93">6.20431e-12</wgt>
  <wgt id="94">6.15574e-12</wgt>
  <wgt id="95">6.23347e-12</wgt>
  <wgt id="96">6.23425e-12</wgt>
  <wgt id="97">6.13827e-12</wgt>
  <wgt id="98">6.19671e-12</wgt>
  <wgt id="99">6.18386e-12</wgt>
  <wgt id="100">6.20925e-12</wgt>
  <wgt id="101">6.16786e-12</wgt>
  <wgt id="102">6.17502e-12</wgt>
  <wgt id="103">6.23197e-12</wgt>
  <wgt id="104">6.18613e-12</wgt>
  <wgt id="105">6.23818e-12</wgt>
  <wgt id="106">6.15666e-12</wgt>
  <wgt id="107">6.26285e-12</wgt>
  <wgt id="108">6.17313e-12</wgt>
  <wgt id="109">6.18642e-12</wgt>
  <wgt id="110">6.19767e-12</wgt>
  <wgt id="111">6.11828e-12</wgt>
  <wgt id="112">6.31992e-12</wgt>
  <wgt id="113">9.54178e-12</wgt>
  <wgt id="114">7.90647e-12</wgt>
  <wgt id="115">7.74864e-12</wgt>
  <wgt id="116">1.06653e-11</wgt>
  <wgt id="117">6.783e-12</wgt>
  <wgt id="118">6.80995e-12</wgt>
  <wgt id="119">6.76756e-12</wgt>
  <wgt id="120">6.78289e-12</wgt>
  <wgt id="121">6.78302e-12</wgt>
  <wgt id="122">6.77347e-12</wgt>
  <wgt id="123">6.7963e-12</wgt>
  <wgt id="124">6.77463e-12</wgt>
  <wgt id="125">6.78827e-12</wgt>
  <wgt id="126">6.79086e-12</wgt>
  <wgt id="127">6.77773e-12</wgt>
  <wgt id="128">6.803e-12</wgt>
  <wgt id="129">6.76305e-12</wgt>
  <wgt id="130">6.81105e-12</wgt>
  <wgt id="131">6.7535e-12</wgt>
  <wgt id="132">6.58215e-12</wgt>
  <wgt id="133">7.02379e-12</wgt>
  <wgt id="134">6.71062e-12</wgt>
  <wgt id="135">6.83996e-12</wgt>
  <wgt id="136">6.90535e-12</wgt>
  <wgt id="137">6.63691e-12</wgt>
  <wgt id="138">7.14096e-12</wgt>
  <wgt id="139">6.44949e-12</wgt>
  <wgt id="140">6.76308e-12</wgt>
  <wgt id="141">6.79665e-12</wgt>
  <wgt id="142">6.77926e-12</wgt>
  <wgt id="143">6.81288e-12</wgt>
  <wgt id="144">6.41369e-12</wgt>
  <wgt id="145">7.15656e-12</wgt>
  <wgt id="146">6.90726e-12</wgt>
  <wgt id="147">6.6795e-12</wgt>
  <wgt id="148">6.80996e-12</wgt>
  <wgt id="149">6.78103e-12</wgt>
  <wgt id="150">6.83875e-12</wgt>
  <wgt id="151">6.7569e-12</wgt>
  <wgt id="152">6.78348e-12</wgt>
  <wgt id="153">6.78266e-12</wgt>
  <wgt id="154">6.76032e-12</wgt>
  <wgt id="155">6.78555e-12</wgt>
  <wgt id="156">7.11306e-12</wgt>
  <wgt id="157">6.505e-12</wgt>
  <wgt id="158">8.07324e-12</wgt>
  <wgt id="159">8.1089e-12</wgt>
  <wgt id="160">8.04502e-12</wgt>
  <wgt id="161">8.05222e-12</wgt>
  <wgt id="162">8.09737e-12</wgt>
  <wgt id="163">8.0639e-12</wgt>
  <wgt id="164">8.08752e-12</wgt>
  <wgt id="165">8.07624e-12</wgt>
  <wgt id="166">8.07152e-12</wgt>
  <wgt id="167">8.0685e-12</wgt>
  <wgt id="168">8.08094e-12</wgt>
  <wgt id="169">8.04235e-12</wgt>
  <wgt id="170">8.09303e-12</wgt>
  <wgt id="171">8.07001e-12</wgt>
  <wgt id="172">8.07826e-12</wgt>
  <wgt id="173">8.04646e-12</wgt>
  <wgt id="174">8.08356e-12</wgt>
  <wgt id="175">7.82636e-12</wgt>
  <wgt id="176">8.3989e-12</wgt>
  <wgt id="177">8.10395e-12</wgt>
  <wgt id="178">8.04631e-12</wgt>
  <wgt id="179">8.56269e-12</wgt>
  <wgt id="180">7.33728e-12</wgt>
  <wgt id="181">7.76713e-12</wgt>
  <wgt id="182">8.27986e-12</wgt>
  <wgt id="183">7.88791e-12</wgt>
  <wgt id="184">8.16598e-12</wgt>
  <wgt id="185">7.9632e-12</wgt>
  <wgt id="186">8.20692e-12</wgt>
  <wgt id="187">7.96315e-12</wgt>
  <wgt id="188">8.26648e-12</wgt>
  <wgt id="189">7.99943e-12</wgt>
  <wgt id="190">8.10393e-12</wgt>
  <wgt id="191">8.10913e-12</wgt>
  <wgt id="192">8.05202e-12</wgt>
  <wgt id="193">8.2305e-12</wgt>
  <wgt id="194">7.99357e-12</wgt>
  <wgt id="195">7.6856e-12</wgt>
  <wgt id="196">8.68774e-12</wgt>
  <wgt id="197">8.11904e-12</wgt>
  <wgt id="198">8.06261e-12</wgt>
  <wgt id="199">8.07324e-12</wgt>
  <wgt id="200">8.16122e-12</wgt>
  <wgt id="201">8.13317e-12</wgt>
  <wgt id="202">8.10547e-12</wgt>
  <wgt id="203">8.06843e-12</wgt>
  <wgt id="204">8.04783e-12</wgt>
  <wgt id="205">8.03131e-12</wgt>
  <wgt id="206">7.95927e-12</wgt>
  <wgt id="207">8.00785e-12</wgt>
  <wgt id="208">7.91056e-12</wgt>
  <wgt id="209">7.98295e-12</wgt>
  <wgt id="210">7.94178e-12</wgt>
  <wgt id="211">7.9564e-12</wgt>
  <wgt id="212">7.96128e-12</wgt>
  <wgt id="213">7.95808e-12</wgt>
  <wgt id="214">7.95977e-12</wgt>
  <wgt id="215">7.96527e-12</wgt>
  <wgt id="216">7.95515e-12</wgt>
  <wgt id="217">7.97303e-12</wgt>
  <wgt id="218">7.94747e-12</wgt>
  <wgt id="219">7.94855e-12</wgt>
  <wgt id="220">7.9658e-12</wgt>
  <wgt id="221">7.96704e-12</wgt>
  <wgt id="222">7.93637e-12</wgt>
  <wgt id="223">7.46001e-12</wgt>
  <wgt id="224">8.41921e-12</wgt>
  <wgt id="225">7.85639e-12</wgt>
  <wgt id="226">8.09054e-12</wgt>
  <wgt id="227">7.87996e-12</wgt>
  <wgt id="228">7.99417e-12</wgt>
  <wgt id="229">7.83712e-12</wgt>
  <wgt id="230">8.01925e-12</wgt>
  <wgt id="231">8.27803e-12</wgt>
  <wgt id="232">7.69991e-12</wgt>
  <wgt id="233">7.89584e-12</wgt>
  <wgt id="234">8.06722e-12</wgt>
  <wgt id="235">7.46421e-12</wgt>
  <wgt id="236">8.35479e-12</wgt>
  <wgt id="237">7.68463e-12</wgt>
  <wgt id="238">8.05027e-12</wgt>
  <wgt id="239">7.8514e-12</wgt>
  <wgt id="240">8.15253e-12</wgt>
  <wgt id="241">7.84303e-12</wgt>
  <wgt id="242">8.09373e-12</wgt>
  <wgt id="243">8.14576e-12</wgt>
  <wgt id="244">7.92498e-12</wgt>
  <wgt id="245">7.95869e-12</wgt>
  <wgt id="246">7.99099e-12</wgt>
  <wgt id="247">7.95927e-12</wgt>
  <wgt id="248">8.05994e-12</wgt>
  <wgt id="249">8.02756e-12</wgt>
  <wgt id="250">7.98931e-12</wgt>
  <wgt id="251">7.9432e-12</wgt>
  <wgt id="252">7.91688e-12</wgt>
  <wgt id="253">7.9004e-12</wgt>
  <wgt id="254">7.57104e-12</wgt>
  <wgt id="255">7.57703e-12</wgt>
  <wgt id="256">7.56389e-12</wgt>
  <wgt id="257">7.57669e-12</wgt>
  <wgt id="258">7.56627e-12</wgt>
  <wgt id="259">7.62194e-12</wgt>
  <wgt id="260">7.52156e-12</wgt>
  <wgt id="261">7.58466e-12</wgt>
  <wgt id="262">7.55491e-12</wgt>
  <wgt id="263">7.5632e-12</wgt>
  <wgt id="264">7.57908e-12</wgt>
  <wgt id="265">7.56127e-12</wgt>
  <wgt id="266">7.59027e-12</wgt>
  <wgt id="267">7.57362e-12</wgt>
  <wgt id="268">7.56755e-12</wgt>
  <wgt id="269">7.59373e-12</wgt>
  <wgt id="270">7.55517e-12</wgt>
  <wgt id="271">7.54313e-12</wgt>
  <wgt id="272">7.60243e-12</wgt>
  <wgt id="273">7.55289e-12</wgt>
  <wgt id="274">7.58453e-12</wgt>
  <wgt id="275">7.51061e-12</wgt>
  <wgt id="276">7.63374e-12</wgt>
  <wgt id="277">7.52891e-12</wgt>
  <wgt id="278">7.60934e-12</wgt>
  <wgt id="279">7.4271e-12</wgt>
  <wgt id="280">7.75256e-12</wgt>
  <wgt id="281">7.52626e-12</wgt>
  <wgt id="282">7.59762e-12</wgt>
  <wgt id="283">7.28448e-12</wgt>
  <wgt id="284">7.93365e-12</wgt>
  <wgt id="285">7.10157e-12</wgt>
  <wgt id="286">7.9768e-12</wgt>
  <wgt id="287">7.60063e-12</wgt>
  <wgt id="288">7.53254e-12</wgt>
  <wgt id="289">7.64173e-12</wgt>
  <wgt id="290">7.42069e-12</wgt>
  <wgt id="291">7.53608e-12</wgt>
  <wgt id="292">7.56254e-12</wgt>
  <wgt id="293">7.49453e-12</wgt>
  <wgt id="294">7.64737e-12</wgt>
  <wgt id="295">7.38528e-12</wgt>
  <wgt id="296">7.79839e-12</wgt>
  <wgt id="297">7.53074e-12</wgt>
  <wgt id="298">7.62094e-12</wgt>
  <wgt id="299">7.54275e-12</wgt>
  <wgt id="300">7.64553e-12</wgt>
  <wgt id="301">7.35772e-12</wgt>
  <wgt id="302">8.04218e-12</wgt>
  <wgt id="303">7.45537e-12</wgt>
  <wgt id="304">7.63455e-12</wgt>
  <wgt id="305">7.40857e-12</wgt>
  <wgt id="306">7.41522e-12</wgt>
  <wgt id="307">7.40146e-12</wgt>
  <wgt id="308">7.4152e-12</wgt>
  <wgt id="309">7.40497e-12</wgt>
  <wgt id="310">7.46004e-12</wgt>
  <wgt id="311">7.36202e-12</wgt>
  <wgt id="312">7.42218e-12</wgt>
  <wgt id="313">7.3945e-12</wgt>
  <wgt id="314">7.40094e-12</wgt>
  <wgt id="315">7.41641e-12</wgt>
  <wgt id="316">7.399e-12</wgt>
  <wgt id="317">7.43095e-12</wgt>
  <wgt id="318">7.41462e-12</wgt>
  <wgt id="319">7.3984e-12</wgt>
  <wgt id="320">7.43396e-12</wgt>
  <wgt id="321">7.3954e-12</wgt>
  <wgt id="322">7.38085e-12</wgt>
  <wgt id="323">7.44165e-12</wgt>
  <wgt id="324">7.39797e-12</wgt>
  <wgt id="325">7.41815e-12</wgt>
  <wgt id="326">7.35855e-12</wgt>
  <wgt id="327">7.47342e-12</wgt>
  <wgt id="328">7.37455e-12</wgt>
  <wgt id="329">7.42682e-12</wgt>
  <wgt id="330">7.62223e-12</wgt>
  <wgt id="331">7.20709e-12</wgt>
  <wgt id="332">7.37168e-12</wgt>
  <wgt id="333">7.42805e-12</wgt>
  <wgt id="334">7.19785e-12</wgt>
  <wgt id="335">7.67655e-12</wgt>
  <wgt id="336">7.08508e-12</wgt>
  <wgt id="337">7.81756e-12</wgt>
  <wgt id="338">7.51177e-12</wgt>
  <wgt id="339">7.31563e-12</wgt>
  <wgt id="340">7.46937e-12</wgt>
  <wgt id="341">7.26458e-12</wgt>
  <wgt id="342">7.38662e-12</wgt>
  <wgt id="343">7.38102e-12</wgt>
  <wgt id="344">7.34436e-12</wgt>
  <wgt id="345">7.4841e-12</wgt>
  <wgt id="346">7.22409e-12</wgt>
  <wgt id="347">7.6198e-12</wgt>
  <wgt id="348">7.3691e-12</wgt>
  <wgt id="349">7.45589e-12</wgt>
  <wgt id="350">7.37505e-12</wgt>
  <wgt id="351">7.49558e-12</wgt>
  <wgt id="352">7.20309e-12</wgt>
  <wgt id="353">7.84381e-12</wgt>
  <wgt id="354">7.25328e-12</wgt>
  <wgt id="355">7.49914e-12</wgt>
  <wgt id="356">7.57104e-12</wgt>
  <wgt id="357">7.38936e-12</wgt>
  <wgt id="358">7.40857e-12</wgt>
  <wgt id="359">7.53928e-12</wgt>
  <wgt id="360">7.79098e-12</wgt>
  <wgt id="361">7.62702e-12</wgt>
  <wgt id="362">7.80791e-12</wgt>
  <wgt id="363">7.78505e-12</wgt>
  <wgt id="364">7.73298e-12</wgt>
  <wgt id="365">7.69887e-12</wgt>
  <wgt id="366">7.66633e-12</wgt>
  <wgt id="367">7.60848e-12</wgt>
  <wgt id="368">7.5672e-12</wgt>
  <wgt id="369">7.52226e-12</wgt>
  <wgt id="370">7.62702e-12</wgt>
  <wgt id="371">7.65588e-12</wgt>
  <wgt id="372">7.63907e-12</wgt>
  <wgt id="373">7.61672e-12</wgt>
  <wgt id="374">7.63867e-12</wgt>
  <wgt id="375">9.45813e-12</wgt>
  <wgt id="376">9.45811e-12</wgt>
  <wgt id="377">9.45801e-12</wgt>
  <wgt id="378">9.49662e-12</wgt>
  <wgt id="379">9.42006e-12</wgt>
  <wgt id="380">9.48662e-12</wgt>
  <wgt id="381">9.4466e-12</wgt>
  <wgt id="382">9.49707e-12</wgt>
  <wgt id="383">9.41961e-12</wgt>
  <wgt id="384">9.46453e-12</wgt>
  <wgt id="385">9.45212e-12</wgt>
  <wgt id="386">9.48029e-12</wgt>
  <wgt id="387">9.44864e-12</wgt>
  <wgt id="388">9.45065e-12</wgt>
  <wgt id="389">9.46688e-12</wgt>
  <wgt id="390">9.47541e-12</wgt>
  <wgt id="391">9.44029e-12</wgt>
  <wgt id="392">9.36083e-12</wgt>
  <wgt id="393">9.51309e-12</wgt>
  <wgt id="394">9.45906e-12</wgt>
  <wgt id="395">9.45689e-12</wgt>
  <wgt id="396">9.48307e-12</wgt>
  <wgt id="397">9.44066e-12</wgt>
  <wgt id="398">9.45775e-12</wgt>
  <wgt id="399">9.4584e-12</wgt>
  <wgt id="400">9.44167e-12</wgt>
  <wgt id="401">9.49449e-12</wgt>
  <wgt id="402">9.3488e-12</wgt>
  <wgt id="403">9.54675e-12</wgt>
  <wgt id="404">9.80724e-12</wgt>
  <wgt id="405">8.63992e-12</wgt>
  <wgt id="406">9.20567e-12</wgt>
  <wgt id="407">1.00283e-11</wgt>
  <wgt id="408">9.59029e-12</wgt>
  <wgt id="409">9.21848e-12</wgt>
  <wgt id="410">9.05432e-12</wgt>
  <wgt id="411">9.6573e-12</wgt>
  <wgt id="412">9.43047e-12</wgt>
  <wgt id="413">9.49611e-12</wgt>
  <wgt id="414">9.29901e-12</wgt>
  <wgt id="415">9.58191e-12</wgt>
  <wgt id="416">9.88302e-12</wgt>
  <wgt id="417">8.88267e-12</wgt>
  <wgt id="418">9.4847e-12</wgt>
  <wgt id="419">9.31463e-12</wgt>
  <wgt id="420">9.80925e-12</wgt>
  <wgt id="421">9.21271e-12</wgt>
  <wgt id="422">9.34439e-12</wgt>
  <wgt id="423">9.50879e-12</wgt>
  <wgt id="424">9.8663e-12</wgt>
  <wgt id="425">9.17286e-12</wgt>
  <wgt id="426">9.45813e-12</wgt>
  <wgt id="427">9.13891e-12</wgt>
  <wgt id="428">1.01299e-11</wgt>
  <wgt id="429">9.64414e-12</wgt>
  <wgt id="430">1.00436e-11</wgt>
  <wgt id="431">9.95918e-12</wgt>
  <wgt id="432">9.88714e-12</wgt>
  <wgt id="433">9.81537e-12</wgt>
  <wgt id="434">9.72082e-12</wgt>
  <wgt id="435">9.549e-12</wgt>
  <wgt id="436">9.46486e-12</wgt>
  <wgt id="437">9.37985e-12</wgt>
  <wgt id="438">9.64414e-12</wgt>
  <wgt id="439">9.67183e-12</wgt>
  <wgt id="440">9.65276e-12</wgt>
  <wgt id="441">9.63922e-12</wgt>
  <wgt id="442">9.63572e-12</wgt>
  <wgt id="443">7.89743e-12</wgt>
  <wgt id="444">8.01927e-12</wgt>
  <wgt id="445">8.07749e-12</wgt>
  <wgt id="446">7.84469e-12</wgt>
  <wgt id="447">7.89468e-12</wgt>
  <wgt id="448">7.72493e-12</wgt>
  <wgt id="449">8.13476e-12</wgt>
  <wgt id="450">8.08702e-12</wgt>
  <wgt id="451">7.87178e-12</wgt>
  <wgt id="452">8.06555e-12</wgt>
  <wgt id="453">8.06802e-12</wgt>
  <wgt id="454">7.38547e-12</wgt>
  <wgt id="455">8.01731e-12</wgt>
  <wgt id="456">8.1562e-12</wgt>
  <wgt id="457">7.9213e-12</wgt>
  <wgt id="458">8.0758e-12</wgt>
  <wgt id="459">7.97263e-12</wgt>
  <wgt id="460">8.1702e-12</wgt>
  <wgt id="461">7.66074e-12</wgt>
  <wgt id="462">7.83436e-12</wgt>
  <wgt id="463">7.73876e-12</wgt>
  <wgt id="464">7.86318e-12</wgt>
  <wgt id="465">7.97996e-12</wgt>
  <wgt id="466">7.57715e-12</wgt>
  <wgt id="467">7.85233e-12</wgt>
  <wgt id="468">7.91591e-12</wgt>
  <wgt id="469">7.865e-12</wgt>
  <wgt id="470">7.72146e-12</wgt>
  <wgt id="471">7.75671e-12</wgt>
  <wgt id="472">7.97527e-12</wgt>
  <wgt id="473">7.6006e-12</wgt>
  <wgt id="474">5.79e-12</wgt>
  <wgt id="475">5.84926e-12</wgt>
  <wgt id="476">5.91137e-12</wgt>
  <wgt id="477">6.16014e-12</wgt>
  <wgt id="478">6.07768e-12</wgt>
  <wgt id="479">5.17021e-12</wgt>
  <wgt id="480">6.28471e-12</wgt>
  <wgt id="481">5.89954e-12</wgt>
  <wgt id="482">6.08249e-12</wgt>
  <wgt id="483">6.36959e-12</wgt>
  <wgt id="484">6.18366e-12</wgt>
  <wgt id="485">5.0821e-12</wgt>
  <wgt id="486">6.10862e-12</wgt>
  <wgt id="487">5.42842e-12</wgt>
  <wgt id="488">5.63567e-12</wgt>
  <wgt id="489">4.71436e-12</wgt>
  <wgt id="490">5.88178e-12</wgt>
  <wgt id="491">5.65816e-12</wgt>
  <wgt id="492">5.69936e-12</wgt>
  <wgt id="493">4.96446e-12</wgt>
  <wgt id="494">4.9254e-12</wgt>
  <wgt id="495">6.02476e-12</wgt>
  <wgt id="496">5.16836e-12</wgt>
  <wgt id="497">5.27884e-12</wgt>
  <wgt id="498">5.91815e-12</wgt>
  <wgt id="499">5.98783e-12</wgt>
  <wgt id="500">6.07415e-12</wgt>
  <wgt id="501">6.18088e-12</wgt>
  <wgt id="502">6.53673e-12</wgt>
  <wgt id="503">5.57371e-12</wgt>
  <wgt id="504">6.0422e-12</wgt>
  <wgt id="505">6.3067e-12</wgt>
  <wgt id="506">4.86069e-12</wgt>
  <wgt id="507">5.33742e-12</wgt>
  <wgt id="508">6.18968e-12</wgt>
  <wgt id="509">5.80876e-12</wgt>
  <wgt id="510">5.64464e-12</wgt>
  <wgt id="511">5.39643e-12</wgt>
  <wgt id="512">6.45971e-12</wgt>
  <wgt id="513">6.32391e-12</wgt>
  <wgt id="514">6.55035e-12</wgt>
  <wgt id="515">6.42057e-12</wgt>
  <wgt id="516">6.76058e-12</wgt>
  <wgt id="517">5.94322e-12</wgt>
  <wgt id="518">6.27436e-12</wgt>
  <wgt id="519">5.60176e-12</wgt>
  <wgt id="520">5.58726e-12</wgt>
  <wgt id="521">5.33571e-12</wgt>
  <wgt id="522">5.86724e-12</wgt>
  <wgt id="523">5.49362e-12</wgt>
  <wgt id="524">6.14304e-12</wgt>
  <wgt id="525">5.48162e-12</wgt>
  <wgt id="526">6.42559e-12</wgt>
  <wgt id="527">5.70304e-12</wgt>
  <wgt id="528">5.52672e-12</wgt>
  <wgt id="529">5.00698e-12</wgt>
  <wgt id="530">6.31878e-12</wgt>
  <wgt id="531">5.40668e-12</wgt>
  <wgt id="532">6.34476e-12</wgt>
  <wgt id="533">6.08499e-12</wgt>
  <wgt id="534">5.21641e-12</wgt>
  <wgt id="535">6.13643e-12</wgt>
  <wgt id="536">6.25088e-12</wgt>
  <wgt id="537">5.14941e-12</wgt>
  <wgt id="538">5.6822e-12</wgt>
  <wgt id="539">5.64392e-12</wgt>
  <wgt id="540">5.80218e-12</wgt>
  <wgt id="541">5.75263e-12</wgt>
  <wgt id="542">5.37039e-12</wgt>
  <wgt id="543">5.28806e-12</wgt>
  <wgt id="544">5.71053e-12</wgt>
  <wgt id="545">5.21509e-12</wgt>
  <wgt id="546">5.08883e-12</wgt>
  <wgt id="547">5.38772e-12</wgt>
  <wgt id="548">5.8585e-12</wgt>
  <wgt id="549">5.67469e-12</wgt>
  <wgt id="550">5.09734e-12</wgt>
  <wgt id="551">5.58232e-12</wgt>
  <wgt id="552">5.61256e-12</wgt>
  <wgt id="553">5.02112e-12</wgt>
  <wgt id="554">5.92645e-12</wgt>
  <wgt id="555">5.84408e-12</wgt>
  <wgt id="556">5.88178e-12</wgt>
  <wgt id="557">5.68557e-12</wgt>
  <wgt id="558">5.79091e-12</wgt>
  <wgt id="559">6.08774e-12</wgt>
  <wgt id="560">6.38023e-12</wgt>
  <wgt id="561">6.37816e-12</wgt>
  <wgt id="562">6.07699e-12</wgt>
  <wgt id="563">6.29302e-12</wgt>
  <wgt id="564">6.39557e-12</wgt>
  <wgt id="565">6.58684e-12</wgt>
  <wgt id="566">5.08359e-12</wgt>
  <wgt id="567">5.97514e-12</wgt>
  <wgt id="568">5.21935e-12</wgt>
  <wgt id="569">5.9294e-12</wgt>
  <wgt id="570">6.25947e-12</wgt>
  <wgt id="571">6.55632e-12</wgt>
  <wgt id="572">5.32379e-12</wgt>
  <wgt id="573">5.64025e-12</wgt>
  <wgt id="574">5.77887e-12</wgt>
  <wgt id="575">6.32412e-12</wgt>
  <wgt id="576">7.2939e-12</wgt>
  <wgt id="577">6.32359e-12</wgt>
  <wgt id="578">5.94528e-12</wgt>
  <wgt id="579">6.59271e-12</wgt>
  <wgt id="580">6.55957e-12</wgt>
  <wgt id="581">7.01913e-12</wgt>
  <wgt id="582">7.01224e-12</wgt>
  <wgt id="583">6.74693e-12</wgt>
  <wgt id="584">6.31783e-12</wgt>
  <wgt id="585">5.58796e-12</wgt>
  <wgt id="586">5.81002e-12</wgt>
  <wgt id="587">6.49067e-12</wgt>
  <wgt id="588">7.76825e-12</wgt>
  <wgt id="589">7.46065e-12</wgt>
  <wgt id="590">6.47437e-12</wgt>
  <wgt id="591">6.55816e-12</wgt>
  <wgt id="592">6.14067e-12</wgt>
  <wgt id="593">6.0239e-12</wgt>
  <wgt id="594">5.80597e-12</wgt>
  <wgt id="595">7.19733e-12</wgt>
  <wgt id="596">7.33822e-12</wgt>
  <wgt id="597">6.49546e-12</wgt>
  <wgt id="598">6.85888e-12</wgt>
  <wgt id="599">7.06002e-12</wgt>
  <wgt id="600">7.59123e-12</wgt>
  <wgt id="601">5.98026e-12</wgt>
  <wgt id="602">5.80862e-12</wgt>
  <wgt id="603">5.5415e-12</wgt>
  <wgt id="604">6.78317e-12</wgt>
  <wgt id="605">6.11935e-12</wgt>
  <wgt id="606">6.1194e-12</wgt>
  <wgt id="607">6.99441e-12</wgt>
  <wgt id="608">6.54251e-12</wgt>
  <wgt id="609">6.10077e-12</wgt>
  <wgt id="610">5.8057e-12</wgt>
  <wgt id="611">5.73239e-12</wgt>
  <wgt id="612">6.24619e-12</wgt>
  <wgt id="613">5.78669e-12</wgt>
  <wgt id="614">6.38255e-12</wgt>
  <wgt id="615">6.83465e-12</wgt>
  <wgt id="616">5.38254e-12</wgt>
  <wgt id="617">6.67504e-12</wgt>
  <wgt id="618">7.08292e-12</wgt>
  <wgt id="619">6.20262e-12</wgt>
  <wgt id="620">6.41776e-12</wgt>
  <wgt id="621">6.22746e-12</wgt>
  <wgt id="622">6.49067e-12</wgt>
  <wgt id="623">6.17277e-12</wgt>
  <wgt id="624">6.20596e-12</wgt>
  <wgt id="625">5.87923e-12</wgt>
  <wgt id="626">4.64656e-12</wgt>
  <wgt id="627">5.36135e-12</wgt>
  <wgt id="628">6.26364e-12</wgt>
  <wgt id="629">7.59573e-12</wgt>
  <wgt id="630">6.30034e-12</wgt>
  <wgt id="631">6.85022e-12</wgt>
  <wgt id="632">5.63974e-12</wgt>
  <wgt id="633">6.26504e-12</wgt>
  <wgt id="634">5.80791e-12</wgt>
  <wgt id="635">5.84623e-12</wgt>
  <wgt id="636">6.14137e-12</wgt>
  <wgt id="637">6.52605e-12</wgt>
  <wgt id="638">5.86803e-12</wgt>
  <wgt id="639">5.73485e-12</wgt>
  <wgt id="640">5.85122e-12</wgt>
  <wgt id="641">6.86691e-12</wgt>
  <wgt id="642">5.16885e-12</wgt>
  <wgt id="643">6.01455e-12</wgt>
  <wgt id="644">5.77621e-12</wgt>
  <wgt id="645">6.40628e-12</wgt>
  <wgt id="646">5.15825e-12</wgt>
  <wgt id="647">6.82507e-12</wgt>
  <wgt id="648">7.00775e-12</wgt>
  <wgt id="649">6.49088e-12</wgt>
  <wgt id="650">6.29882e-12</wgt>
  <wgt id="651">6.71414e-12</wgt>
  <wgt id="652">5.86771e-12</wgt>
  <wgt id="653">5.97681e-12</wgt>
  <wgt id="654">6.30978e-12</wgt>
  <wgt id="655">5.62922e-12</wgt>
  <wgt id="656">6.50954e-12</wgt>
  <wgt id="657">7.16364e-12</wgt>
  <wgt id="658">6.09477e-12</wgt>
  <wgt id="659">6.13077e-12</wgt>
  <wgt id="660">5.66824e-12</wgt>
  <wgt id="661">6.00435e-12</wgt>
  <wgt id="662">6.28523e-12</wgt>
  <wgt id="663">6.63784e-12</wgt>
  <wgt id="664">6.77953e-12</wgt>
  <wgt id="665">6.05065e-12</wgt>
  <wgt id="666">6.07031e-12</wgt>
  <wgt id="667">6.729e-12</wgt>
  <wgt id="668">6.11784e-12</wgt>
  <wgt id="669">6.04703e-12</wgt>
  <wgt id="670">6.84089e-12</wgt>
  <wgt id="671">6.54512e-12</wgt>
  <wgt id="672">6.6974e-12</wgt>
  <wgt id="673">7.17889e-12</wgt>
  <wgt id="674">5.98833e-12</wgt>
  <wgt id="675">5.7999e-12</wgt>
  <wgt id="676">8.40225e-12</wgt>
  <wgt id="677">8.37075e-12</wgt>
  <wgt id="678">9.76296e-12</wgt>
  <wgt id="679">9.67011e-12</wgt>
  <wgt id="680">8.60698e-12</wgt>
  <wgt id="681">7.93962e-12</wgt>
  <wgt id="682">9.08304e-12</wgt>
  <wgt id="683">7.135e-12</wgt>
  <wgt id="684">9.31056e-12</wgt>
  <wgt id="685">8.70856e-12</wgt>
  <wgt id="686">9.11439e-12</wgt>
  <wgt id="687">8.37251e-12</wgt>
  <wgt id="688">8.18866e-12</wgt>
  <wgt id="689">9.25076e-12</wgt>
  <wgt id="690">8.83405e-12</wgt>
  <wgt id="691">8.67683e-12</wgt>
  <wgt id="692">7.95543e-12</wgt>
  <wgt id="693">1.30438e-11</wgt>
  <wgt id="694">9.80961e-12</wgt>
  <wgt id="695">7.24733e-12</wgt>
  <wgt id="696">7.51749e-12</wgt>
  <wgt id="697">6.74592e-12</wgt>
  <wgt id="698">6.02712e-12</wgt>
  <wgt id="699">6.80093e-12</wgt>
  <wgt id="700">7.20312e-12</wgt>
  <wgt id="701">8.44414e-12</wgt>
  <wgt id="702">7.59777e-12</wgt>
  <wgt id="703">1.18973e-11</wgt>
  <wgt id="704">9.80358e-12</wgt>
  <wgt id="705">9.54385e-12</wgt>
  <wgt id="706">7.21779e-12</wgt>
  <wgt id="707">7.53223e-12</wgt>
  <wgt id="708">7.44922e-12</wgt>
  <wgt id="709">7.79651e-12</wgt>
  <wgt id="710">5.39399e-12</wgt>
  <wgt id="711">9.7111e-12</wgt>
  <wgt id="712">7.65794e-12</wgt>
  <wgt id="713">9.10964e-12</wgt>
  <wgt id="714">6.79354e-12</wgt>
  <wgt id="715">7.52262e-12</wgt>
  <wgt id="716">7.8718e-12</wgt>
  <wgt id="717">6.37555e-12</wgt>
  <wgt id="718">8.60058e-12</wgt>
  <wgt id="719">7.76925e-12</wgt>
  <wgt id="720">9.10954e-12</wgt>
  <wgt id="721">6.87349e-12</wgt>
  <wgt id="722">5.20599e-12</wgt>
  <wgt id="723">1.03712e-11</wgt>
  <wgt id="724">9.53489e-12</wgt>
  <wgt id="725">8.99874e-12</wgt>
  <wgt id="726">8.27955e-12</wgt>
  <wgt id="727">8.68577e-12</wgt>
  <wgt id="728">9.00922e-12</wgt>
  <wgt id="729">6.47407e-12</wgt>
  <wgt id="730">9.87685e-12</wgt>
  <wgt id="731">8.37477e-12</wgt>
  <wgt id="732">1.03322e-11</wgt>
  <wgt id="733">7.37453e-12</wgt>
  <wgt id="734">8.87038e-12</wgt>
  <wgt id="735">7.88931e-12</wgt>
  <wgt id="736">7.31078e-12</wgt>
  <wgt id="737">6.10774e-12</wgt>
  <wgt id="738">7.78343e-12</wgt>
  <wgt id="739">8.49739e-12</wgt>
  <wgt id="740">1.10608e-11</wgt>
  <wgt id="741">9.82006e-12</wgt>
  <wgt id="742">7.06071e-12</wgt>
  <wgt id="743">7.42042e-12</wgt>
  <wgt id="744">7.95014e-12</wgt>
  <wgt id="745">9.95804e-12</wgt>
  <wgt id="746">1.03111e-11</wgt>
  <wgt id="747">6.45357e-12</wgt>
  <wgt id="748">7.8024e-12</wgt>
  <wgt id="749">9.13215e-12</wgt>
  <wgt id="750">9.42332e-12</wgt>
  <wgt id="751">8.62164e-12</wgt>
  <wgt id="752">7.23936e-12</wgt>
  <wgt id="753">7.03929e-12</wgt>
  <wgt id="754">8.79655e-12</wgt>
  <wgt id="755">7.85471e-12</wgt>
  <wgt id="756">7.82503e-12</wgt>
  <wgt id="757">6.70582e-12</wgt>
  <wgt id="758">8.11813e-12</wgt>
  <wgt id="759">9.11634e-12</wgt>
  <wgt id="760">7.48628e-12</wgt>
  <wgt id="761">1.01067e-11</wgt>
  <wgt id="762">1.02145e-11</wgt>
  <wgt id="763">9.5905e-12</wgt>
  <wgt id="764">9.60837e-12</wgt>
  <wgt id="765">8.7159e-12</wgt>
  <wgt id="766">8.91788e-12</wgt>
  <wgt id="767">8.80702e-12</wgt>
  <wgt id="768">7.22177e-12</wgt>
  <wgt id="769">8.71811e-12</wgt>
  <wgt id="770">6.80002e-12</wgt>
  <wgt id="771">1.14002e-11</wgt>
  <wgt id="772">7.94501e-12</wgt>
  <wgt id="773">8.83322e-12</wgt>
  <wgt id="774">6.17127e-12</wgt>
  <wgt id="775">9.01899e-12</wgt>
  <wgt id="776">1.12585e-11</wgt>
  <wgt id="777">6.2489e-12</wgt>
  <wgt id="778">4.34036e-12</wgt>
  <wgt id="779">1.04731e-12</wgt>
  <wgt id="780">3.87146e-20</wgt>
  <wgt id="781">4.45135e-12</wgt>
  <wgt id="782">5.4917e-12</wgt>
  <wgt id="783">3.93514e-20</wgt>
  <wgt id="784">1.07232e-12</wgt>
  <wgt id="785">8.10957e-12</wgt>
  <wgt id="786">3.83328e-20</wgt>
  <wgt id="787">7.10935e-12</wgt>
  <wgt id="788">3.74799e-20</wgt>
  <wgt id="789">8.24808e-13</wgt>
  <wgt id="790">3.83453e-20</wgt>
  <wgt id="791">5.341e-12</wgt>
  <wgt id="792">6.33317e-12</wgt>
  <wgt id="793">2.75201e-12</wgt>
  <wgt id="794">3.86745e-20</wgt>
  <wgt id="795">7.81017e-12</wgt>
  <wgt id="796">7.87522e-12</wgt>
  <wgt id="797">6.52891e-12</wgt>
  <wgt id="798">1.9769e-12</wgt>
  <wgt id="799">7.43992e-12</wgt>
  <wgt id="800">2.04536e-12</wgt>
  <wgt id="801">5.92069e-12</wgt>
  <wgt id="802">3.93293e-20</wgt>
  <wgt id="803">8.09602e-12</wgt>
  <wgt id="804">8.0124e-12</wgt>
  <wgt id="805">7.62849e-12</wgt>
  <wgt id="806">5.70487e-12</wgt>
  <wgt id="807">4.47755e-12</wgt>
  <wgt id="808">4.80902e-12</wgt>
  <wgt id="809">3.23292e-12</wgt>
  <wgt id="810">9.00326e-12</wgt>
  <wgt id="811">5.01274e-12</wgt>
  <wgt id="812">3.91944e-20</wgt>
  <wgt id="813">3.11244e-14</wgt>
  <wgt id="814">1.75373e-12</wgt>
  <wgt id="815">3.89889e-20</wgt>
  <wgt id="816">6.50939e-13</wgt>
  <wgt id="817">5.00028e-12</wgt>
  <wgt id="818">7.41495e-12</wgt>
  <wgt id="819">8.85124e-13</wgt>
  <wgt id="820">3.44272e-12</wgt>
  <wgt id="821">6.33722e-12</wgt>
  <wgt id="822">2.48885e-12</wgt>
  <wgt id="823">7.27036e-12</wgt>
  <wgt id="824">7.34084e-12</wgt>
  <wgt id="825">3.84767e-20</wgt>
  <wgt id="826">7.67649e-12</wgt>
  <wgt id="827">3.82968e-20</wgt>
  <wgt id="828">6.31172e-12</wgt>
  <wgt id="829">4.76709e-12</wgt>
  <wgt id="830">3.83789e-20</wgt>
  <wgt id="831">6.50525e-12</wgt>
  <wgt id="832">1.04056e-11</wgt>
  <wgt id="833">2.51978e-12</wgt>
  <wgt id="834">1.05288e-11</wgt>
  <wgt id="835">1.16172e-12</wgt>
  <wgt id="836">2.03102e-12</wgt>
  <wgt id="837">6.1864e-12</wgt>
  <wgt id="838">1.89634e-12</wgt>
  <wgt id="839">6.92382e-12</wgt>
  <wgt id="840">3.3276e-12</wgt>
  <wgt id="841">7.53329e-12</wgt>
  <wgt id="842">4.8533e-12</wgt>
  <wgt id="843">4.48987e-12</wgt>
  <wgt id="844">6.01967e-12</wgt>
  <wgt id="845">1.08732e-11</wgt>
  <wgt id="846">2.70416e-12</wgt>
  <wgt id="847">5.45815e-12</wgt>
  <wgt id="848">3.98769e-20</wgt>
  <wgt id="849">6.00572e-12</wgt>
  <wgt id="850">9.55533e-12</wgt>
  <wgt id="851">6.40689e-12</wgt>
  <wgt id="852">3.88848e-20</wgt>
  <wgt id="853">6.75533e-12</wgt>
  <wgt id="854">8.49178e-12</wgt>
  <wgt id="855">6.27011e-12</wgt>
  <wgt id="856">3.83338e-20</wgt>
  <wgt id="857">2.43828e-12</wgt>
  <wgt id="858">4.94862e-12</wgt>
  <wgt id="859">4.18554e-12</wgt>
  <wgt id="860">6.02812e-12</wgt>
  <wgt id="861">2.34997e-12</wgt>
  <wgt id="862">5.10362e-12</wgt>
  <wgt id="863">6.29947e-12</wgt>
  <wgt id="864">4.44479e-12</wgt>
  <wgt id="865">9.63594e-12</wgt>
  <wgt id="866">1.02125e-11</wgt>
  <wgt id="867">4.4592e-12</wgt>
  <wgt id="868">5.68956e-12</wgt>
  <wgt id="869">3.8716e-20</wgt>
  <wgt id="870">1.64608e-12</wgt>
  <wgt id="871">2.7107e-12</wgt>
  <wgt id="872">9.31253e-12</wgt>
  <wgt id="873">2.5673e-12</wgt>
  <wgt id="874">5.8725e-12</wgt>
  <wgt id="875">1.70444e-12</wgt>
  <wgt id="876">8.44046e-12</wgt>
  <wgt id="877">5.90238e-12</wgt>
  <wgt id="878">2.49486e-12</wgt>
  <wgt id="879">8.40225e-12</wgt>
  <wgt id="880">8.37075e-12</wgt>
  <wgt id="881">9.76296e-12</wgt>
  <wgt id="882">9.67011e-12</wgt>
  <wgt id="883">8.60698e-12</wgt>
  <wgt id="884">7.93962e-12</wgt>
  <wgt id="885">9.08304e-12</wgt>
  <wgt id="886">7.135e-12</wgt>
  <wgt id="887">9.31056e-12</wgt>
  <wgt id="888">8.70856e-12</wgt>
  <wgt id="889">9.11439e-12</wgt>
  <wgt id="890">8.37251e-12</wgt>
  <wgt id="891">8.18866e-12</wgt>
  <wgt id="892">9.25076e-12</wgt>
  <wgt id="893">8.83405e-12</wgt>
  <wgt id="894">8.67683e-12</wgt>
  <wgt id="895">7.95543e-12</wgt>
  <wgt id="896">1.30438e-11</wgt>
  <wgt id="897">9.80961e-12</wgt>
  <wgt id="898">7.24733e-12</wgt>
  <wgt id="899">7.51749e-12</wgt>
  <wgt id="900">6.74592e-12</wgt>
  <wgt id="901">6.02712e-12</wgt>
  <wgt id="902">6.80093e-12</wgt>
  <wgt id="903">7.20312e-12</wgt>
  <wgt id="904">8.44414e-12</wgt>
  <wgt id="905">7.59777e-12</wgt>
  <wgt id="906">1.18973e-11</wgt>
  <wgt id="907">9.80358e-12</wgt>
  <wgt id="908">9.54385e-12</wgt>
  <wgt id="909">7.21779e-12</wgt>
  <wgt id="910">7.53223e-12</wgt>
  <wgt id="911">7.44922e-12</wgt>
  <wgt id="912">7.79651e-12</wgt>
  <wgt id="913">5.39399e-12</wgt>
  <wgt id="914">9.7111e-12</wgt>
  <wgt id="915">7.65794e-12</wgt>
  <wgt id="916">9.10964e-12</wgt>
  <wgt id="917">6.79354e-12</wgt>
  <wgt id="918">7.52262e-12</wgt>
  <wgt id="919">7.8718e-12</wgt>
  <wgt id="920">6.37555e-12</wgt>
  <wgt id="921">8.60058e-12</wgt>
  <wgt id="922">7.76925e-12</wgt>
  <wgt id="923">9.10954e-12</wgt>
  <wgt id="924">6.87349e-12</wgt>
  <wgt id="925">5.20599e-12</wgt>
  <wgt id="926">1.03712e-11</wgt>
  <wgt id="927">9.53489e-12</wgt>
  <wgt id="928">8.99874e-12</wgt>
  <wgt id="929">8.27955e-12</wgt>
  <wgt id="930">8.68577e-12</wgt>
  <wgt id="931">9.00922e-12</wgt>
  <wgt id="932">6.47407e-12</wgt>
  <wgt id="933">9.87685e-12</wgt>
  <wgt id="934">8.37477e-12</wgt>
  <wgt id="935">1.03322e-11</wgt>
  <wgt id="936">7.37453e-12</wgt>
  <wgt id="937">8.87038e-12</wgt>
  <wgt id="938">7.88931e-12</wgt>
  <wgt id="939">7.31078e-12</wgt>
  <wgt id="940">6.10774e-12</wgt>
  <wgt id="941">7.78343e-12</wgt>
  <wgt id="942">8.49739e-12</wgt>
  <wgt id="943">1.10608e-11</wgt>
  <wgt id="944">9.82006e-12</wgt>
  <wgt id="945">7.06071e-12</wgt>
  <wgt id="946">7.42042e-12</wgt>
  <wgt id="947">7.95014e-12</wgt>
  <wgt id="948">9.95804e-12</wgt>
  <wgt id="949">1.03111e-11</wgt>
  <wgt id="950">6.45357e-12</wgt>
  <wgt id="951">7.8024e-12</wgt>
  <wgt id="952">9.13215e-12</wgt>
  <wgt id="953">9.42332e-12</wgt>
  <wgt id="954">8.62164e-12</wgt>
  <wgt id="955">7.23936e-12</wgt>
  <wgt id="956">7.03929e-12</wgt>
  <wgt id="957">8.79655e-12</wgt>
  <wgt id="958">7.85471e-12</wgt>
  <wgt id="959">7.82503e-12</wgt>
  <wgt id="960">6.70582e-12</wgt>
  <wgt id="961">8.11813e-12</wgt>
  <wgt id="962">9.11634e-12</wgt>
  <wgt id="963">7.48628e-12</wgt>
  <wgt id="964">1.01067e-11</wgt>
  <wgt id="965">1.02145e-11</wgt>
  <wgt id="966">9.5905e-12</wgt>
  <wgt id="967">9.60837e-12</wgt>
  <wgt id="968">8.7159e-12</wgt>
  <wgt id="969">8.91788e-12</wgt>
  <wgt id="970">8.80702e-12</wgt>
  <wgt id="971">7.22177e-12</wgt>
  <wgt id="972">8.71811e-12</wgt>
  <wgt id="973">6.80002e-12</wgt>
  <wgt id="974">1.14002e-11</wgt>
  <wgt id="975">7.94501e-12</wgt>
  <wgt id="976">8.83322e-12</wgt>
  <wgt id="977">6.17127e-12</wgt>
  <wgt id="978">9.01899e-12</wgt>
  <wgt id="979">1.12585e-11</wgt>
  <wgt id="980">8.31578e-12</wgt>
  <wgt id="981">8.86348e-12</wgt>
  <wgt id="982">8.27614e-12</wgt>
</rwgt>
</event>
<event>
 5   1  0.5790000E-11  0.2424088E+04  0.7818608E-02  0.7669366E-01
       21   -1    0    0  502  501  0.00000000000E+00  0.00000000000E+00  0.13613686706E+04  0.13613686706E+04  0.00000000000E+00 0.  1.
       21   -1    0    0  501  502 -0.00000000000E+00 -0.00000000000E+00 -0.10790986956E+04  0.10790986956E+04  0.00000000000E+00 0. -1.
       39    2    1    2    0    0  0.00000000000E+00  0.00000000000E+00  0.28226997493E+03  0.24404673662E+04  0.24240884115E+04 0.  0.
       25    1    3    3    0    0  0.49923986498E+03 -0.97882726249E+03  0.64055422922E+03  0.12779976421E+04  0.12500000000E+03 0.  0.
       25    1    3    3    0    0 -0.49923986498E+03  0.97882726249E+03 -0.35828425429E+03  0.11624697241E+04  0.12500000000E+03 0.  0.
<mgrwt>
<rscale>  0 0.24240884E+04</rscale>
<asrwt>0</asrwt>
<pdfrwt beam="1">  1       21 0.20944133E+00 0.24240884E+04</pdfrwt>
<pdfrwt beam="2">  1       21 0.16601518E+00 0.24240884E+04</pdfrwt>
<totfact> 0.95141260E+00</totfact>
</mgrwt>
<rwgt>
  <wgt id="1">5.79e-12</wgt>
  <wgt id="2">5.02913e-12</wgt>
  <wgt id="3">6.73715e-12</wgt>
  <wgt id="4">5.79e-12</wgt>
  <wgt id="5">5.02913e-12</wgt>
  <wgt id="6">6.73715e-12</wgt>
  <wgt id="7">5.79e-12</wgt>
  <wgt id="8">5.02913e-12</wgt>
  <wgt id="9">6.73715e-12</wgt>
  <wgt id="10">6.01164e-12</wgt>
  <wgt id="11">6.00537e-12</wgt>
  <wgt id="12">5.99968e-12</wgt>
  <wgt id="13">5.99062e-12</wgt>
  <wgt id="14">6.03411e-12</wgt>
  <wgt id="15">6.02087e-12</wgt>
  <wgt id="16">5.9999e-12</wgt>
  <wgt id="17">6.02144e-12</wgt>
  <wgt id="18">5.99942e-12</wgt>
  <wgt id="19">6.02595e-12</wgt>
  <wgt id="20">5.99292e-12</wgt>
  <wgt id="21">5.97602e-12</wgt>
  <wgt id="22">5.99076e-12</wgt>
  <wgt id="23">5.95769e-12</wgt>
  <wgt id="24">5.98504e-12</wgt>
  <wgt id="25">5.99792e-12</wgt>
  <wgt id="26">6.03765e-12</wgt>
  <wgt id="27">6.01205e-12</wgt>
  <wgt id="28">5.98456e-12</wgt>
  <wgt id="29">6.017e-12</wgt>
  <wgt id="30">5.99894e-12</wgt>
  <wgt id="31">6.02711e-12</wgt>
  <wgt id="32">6.00487e-12</wgt>
  <wgt id="33">6.02777e-12</wgt>
  <wgt id="34">5.99311e-12</wgt>
  <wgt id="35">6.01082e-12</wgt>
  <wgt id="36">6.03271e-12</wgt>
  <wgt id="37">5.99621e-12</wgt>
  <wgt id="38">5.99271e-12</wgt>
  <wgt id="39">6.0717e-12</wgt>
  <wgt id="40">6.02405e-12</wgt>
  <wgt id="41">6.01062e-12</wgt>
  <wgt id="42">6.023e-12</wgt>
  <wgt id="43">6.01166e-12</wgt>
  <wgt id="44">5.99398e-12</wgt>
  <wgt id="45">6.02695e-12</wgt>
  <wgt id="46">6.02357e-12</wgt>
  <wgt id="47">5.98796e-12</wgt>
  <wgt id="48">6.01066e-12</wgt>
  <wgt id="49">6.02111e-12</wgt>
  <wgt id="50">6.04643e-12</wgt>
  <wgt id="51">6.04061e-12</wgt>
  <wgt id="52">6.00855e-12</wgt>
  <wgt id="53">5.96253e-12</wgt>
  <wgt id="54">5.99691e-12</wgt>
  <wgt id="55">6.01142e-12</wgt>
  <wgt id="56">6.03409e-12</wgt>
  <wgt id="57">6.03195e-12</wgt>
  <wgt id="58">5.96851e-12</wgt>
  <wgt id="59">5.98887e-12</wgt>
  <wgt id="60">6.01389e-12</wgt>
  <wgt id="61">5.99396e-12</wgt>
  <wgt id="62">6.0076e-12</wgt>
  <wgt id="63">6.01642e-12</wgt>
  <wgt id="64">6.01833e-12</wgt>
  <wgt id="65">6.01896e-12</wgt>
  <wgt id="66">6.00273e-12</wgt>
  <wgt id="67">5.99801e-12</wgt>
  <wgt id="68">6.00501e-12</wgt>
  <wgt id="69">6.01148e-12</wgt>
  <wgt id="70">6.00719e-12</wgt>
  <wgt id="71">6.01137e-12</wgt>
  <wgt id="72">6.00409e-12</wgt>
  <wgt id="73">6.01548e-12</wgt>
  <wgt id="74">6.01622e-12</wgt>
  <wgt id="75">6.00591e-12</wgt>
  <wgt id="76">6.02882e-12</wgt>
  <wgt id="77">6.01059e-12</wgt>
  <wgt id="78">6.01289e-12</wgt>
  <wgt id="79">6.0237e-12</wgt>
  <wgt id="80">5.98556e-12</wgt>
  <wgt id="81">6.00415e-12</wgt>
  <wgt id="82">6.01169e-12</wgt>
  <wgt id="83">5.98696e-12</wgt>
  <wgt id="84">5.99869e-12</wgt>
  <wgt id="85">5.99928e-12</wgt>
  <wgt id="86">6.02753e-12</wgt>
  <wgt id="87">5.97901e-12</wgt>
  <wgt id="88">6.01936e-12</wgt>
  <wgt id="89">6.01767e-12</wgt>
  <wgt id="90">6.02106e-12</wgt>
  <wgt id="91">6.01637e-12</wgt>
  <wgt id="92">6.02354e-12</wgt>
  <wgt id="93">6.01115e-12</wgt>
  <wgt id="94">6.00553e-12</wgt>
  <wgt id="95">6.01641e-12</wgt>
  <wgt id="96">6.01626e-12</wgt>
  <wgt id="97">6.00279e-12</wgt>
  <wgt id="98">6.01438e-12</wgt>
  <wgt id="99">6.00818e-12</wgt>
  <wgt id="100">6.01754e-12</wgt>
  <wgt id="101">6.00947e-12</wgt>
  <wgt id="102">6.00493e-12</wgt>
  <wgt id="103">6.02066e-12</wgt>
  <wgt id="104">6.00711e-12</wgt>
  <wgt id="105">6.01798e-12</wgt>
  <wgt id="106">6.00329e-12</wgt>
  <wgt id="107">6.02834e-12</wgt>
  <wgt id="108">6.00553e-12</wgt>
  <wgt id="109">6.01315e-12</wgt>
  <wgt id="110">6.01119e-12</wgt>
  <wgt id="111">6.06673e-12</wgt>
  <wgt id="112">6.01224e-12</wgt>
  <wgt id="113">8.17587e-12</wgt>
  <wgt id="114">8.40793e-12</wgt>
  <wgt id="115">8.29154e-12</wgt>
  <wgt id="116">1.17831e-11</wgt>
  <wgt id="117">6.73859e-12</wgt>
  <wgt id="118">6.76333e-12</wgt>
  <wgt id="119">6.72469e-12</wgt>
  <wgt id="120">6.73918e-12</wgt>
  <wgt id="121">6.73835e-12</wgt>
  <wgt id="122">6.72698e-12</wgt>
  <wgt id="123">6.75458e-12</wgt>
  <wgt id="124">6.72906e-12</wgt>
  <wgt id="125">6.74481e-12</wgt>
  <wgt id="126">6.75151e-12</wgt>
  <wgt id="127">6.73008e-12</wgt>
  <wgt id="128">6.75977e-12</wgt>
  <wgt id="129">6.71771e-12</wgt>
  <wgt id="130">6.77821e-12</wgt>
  <wgt id="131">6.69813e-12</wgt>
  <wgt id="132">6.56048e-12</wgt>
  <wgt id="133">6.94989e-12</wgt>
  <wgt id="134">6.66456e-12</wgt>
  <wgt id="135">6.79661e-12</wgt>
  <wgt id="136">6.8275e-12</wgt>
  <wgt id="137">6.63112e-12</wgt>
  <wgt id="138">7.00713e-12</wgt>
  <wgt id="139">6.4798e-12</wgt>
  <wgt id="140">6.69462e-12</wgt>
  <wgt id="141">6.77288e-12</wgt>
  <wgt id="142">6.73947e-12</wgt>
  <wgt id="143">6.74887e-12</wgt>
  <wgt id="144">6.53726e-12</wgt>
  <wgt id="145">6.92671e-12</wgt>
  <wgt id="146">6.80309e-12</wgt>
  <wgt id="147">6.68732e-12</wgt>
  <wgt id="148">6.76006e-12</wgt>
  <wgt id="149">6.73709e-12</wgt>
  <wgt id="150">6.79792e-12</wgt>
  <wgt id="151">6.71092e-12</wgt>
  <wgt id="152">6.74202e-12</wgt>
  <wgt id="153">6.73742e-12</wgt>
  <wgt id="154">6.7902e-12</wgt>
  <wgt id="155">6.67644e-12</wgt>
  <wgt id="156">6.88335e-12</wgt>
  <wgt id="157">6.58966e-12</wgt>
  <wgt id="158">8.10471e-12</wgt>
  <wgt id="159">8.13873e-12</wgt>
  <wgt id="160">8.07745e-12</wgt>
  <wgt id="161">8.08356e-12</wgt>
  <wgt id="162">8.12847e-12</wgt>
  <wgt id="163">8.09563e-12</wgt>
  <wgt id="164">8.11844e-12</wgt>
  <wgt id="165">8.10779e-12</wgt>
  <wgt id="166">8.10242e-12</wgt>
  <wgt id="167">8.09887e-12</wgt>
  <wgt id="168">8.11308e-12</wgt>
  <wgt id="169">8.07041e-12</wgt>
  <wgt id="170">8.12644e-12</wgt>
  <wgt id="171">8.09553e-12</wgt>
  <wgt id="172">8.11788e-12</wgt>
  <wgt id="173">8.10345e-12</wgt>
  <wgt id="174">8.10507e-12</wgt>
  <wgt id="175">7.87231e-12</wgt>
  <wgt id="176">8.40847e-12</wgt>
  <wgt id="177">8.14963e-12</wgt>
  <wgt id="178">8.06357e-12</wgt>
  <wgt id="179">8.45507e-12</wgt>
  <wgt id="180">7.55334e-12</wgt>
  <wgt id="181">7.86219e-12</wgt>
  <wgt id="182">8.26499e-12</wgt>
  <wgt id="183">7.95674e-12</wgt>
  <wgt id="184">8.17832e-12</wgt>
  <wgt id="185">8.03772e-12</wgt>
  <wgt id="186">8.18709e-12</wgt>
  <wgt id="187">8.03058e-12</wgt>
  <wgt id="188">8.23895e-12</wgt>
  <wgt id="189">8.05097e-12</wgt>
  <wgt id="190">8.12689e-12</wgt>
  <wgt id="191">8.12766e-12</wgt>
  <wgt id="192">8.09124e-12</wgt>
  <wgt id="193">8.22425e-12</wgt>
  <wgt id="194">8.04591e-12</wgt>
  <wgt id="195">7.88775e-12</wgt>
  <wgt id="196">8.48323e-12</wgt>
  <wgt id="197">8.14636e-12</wgt>
  <wgt id="198">8.09502e-12</wgt>
  <wgt id="199">8.10471e-12</wgt>
  <wgt id="200">8.17559e-12</wgt>
  <wgt id="201">8.14996e-12</wgt>
  <wgt id="202">8.12476e-12</wgt>
  <wgt id="203">8.08715e-12</wgt>
  <wgt id="204">8.06926e-12</wgt>
  <wgt id="205">8.0548e-12</wgt>
  <wgt id="206">7.84512e-12</wgt>
  <wgt id="207">7.89126e-12</wgt>
  <wgt id="208">7.79957e-12</wgt>
  <wgt id="209">7.8709e-12</wgt>
  <wgt id="210">7.82644e-12</wgt>
  <wgt id="211">7.84218e-12</wgt>
  <wgt id="212">7.84766e-12</wgt>
  <wgt id="213">7.84455e-12</wgt>
  <wgt id="214">7.84625e-12</wgt>
  <wgt id="215">7.85121e-12</wgt>
  <wgt id="216">7.84073e-12</wgt>
  <wgt id="217">7.86813e-12</wgt>
  <wgt id="218">7.82728e-12</wgt>
  <wgt id="219">7.83825e-12</wgt>
  <wgt id="220">7.84951e-12</wgt>
  <wgt id="221">7.84188e-12</wgt>
  <wgt id="222">7.85287e-12</wgt>
  <wgt id="223">7.42323e-12</wgt>
  <wgt id="224">8.22985e-12</wgt>
  <wgt id="225">7.74868e-12</wgt>
  <wgt id="226">7.96652e-12</wgt>
  <wgt id="227">7.76984e-12</wgt>
  <wgt id="228">7.87825e-12</wgt>
  <wgt id="229">7.73448e-12</wgt>
  <wgt id="230">7.90034e-12</wgt>
  <wgt id="231">8.07372e-12</wgt>
  <wgt id="232">7.65758e-12</wgt>
  <wgt id="233">7.80332e-12</wgt>
  <wgt id="234">7.91155e-12</wgt>
  <wgt id="235">7.67175e-12</wgt>
  <wgt id="236">8.00329e-12</wgt>
  <wgt id="237">7.73002e-12</wgt>
  <wgt id="238">7.88449e-12</wgt>
  <wgt id="239">7.79562e-12</wgt>
  <wgt id="240">7.9347e-12</wgt>
  <wgt id="241">7.76362e-12</wgt>
  <wgt id="242">7.94387e-12</wgt>
  <wgt id="243">7.95145e-12</wgt>
  <wgt id="244">7.88148e-12</wgt>
  <wgt id="245">7.84025e-12</wgt>
  <wgt id="246">7.90145e-12</wgt>
  <wgt id="247">7.84512e-12</wgt>
  <wgt id="248">7.91394e-12</wgt>
  <wgt id="249">7.88759e-12</wgt>
  <wgt id="250">7.86338e-12</wgt>
  <wgt id="251">7.82666e-12</wgt>
  <wgt id="252">7.80957e-12</wgt>
  <wgt id="253">7.79723e-12</wgt>
  <wgt id="254">7.68639e-12</wgt>
  <wgt id="255">7.69359e-12</wgt>
  <wgt id="256">7.67818e-12</wgt>
  <wgt id="257">7.69188e-12</wgt>
  <wgt id="258">7.68218e-12</wgt>
  <wgt id="259">7.73776e-12</wgt>
  <wgt id="260">7.63664e-12</wgt>
  <wgt id="261">7.69835e-12</wgt>
  <wgt id="262">7.67176e-12</wgt>
  <wgt id="263">7.68249e-12</wgt>
  <wgt id="264">7.69055e-12</wgt>
  <wgt id="265">7.67692e-12</wgt>
  <wgt id="266">7.70494e-12</wgt>
  <wgt id="267">7.68884e-12</wgt>
  <wgt id="268">7.68263e-12</wgt>
  <wgt id="269">7.71206e-12</wgt>
  <wgt id="270">7.66885e-12</wgt>
  <wgt id="271">7.67318e-12</wgt>
  <wgt id="272">7.70108e-12</wgt>
  <wgt id="273">7.66187e-12</wgt>
  <wgt id="274">7.70482e-12</wgt>
  <wgt id="275">7.65359e-12</wgt>
  <wgt id="276">7.72008e-12</wgt>
  <wgt id="277">7.64182e-12</wgt>
  <wgt id="278">7.72716e-12</wgt>
  <wgt id="279">7.5355e-12</wgt>
  <wgt id="280">7.87527e-12</wgt>
  <wgt id="281">7.65144e-12</wgt>
  <wgt id="282">7.68825e-12</wgt>
  <wgt id="283">7.46265e-12</wgt>
  <wgt id="284">7.96174e-12</wgt>
  <wgt id="285">7.31604e-12</wgt>
  <wgt id="286">7.99278e-12</wgt>
  <wgt id="287">7.71066e-12</wgt>
  <wgt id="288">7.65517e-12</wgt>
  <wgt id="289">7.74074e-12</wgt>
  <wgt id="290">7.55975e-12</wgt>
  <wgt id="291">7.66474e-12</wgt>
  <wgt id="292">7.69123e-12</wgt>
  <wgt id="293">7.62633e-12</wgt>
  <wgt id="294">7.74567e-12</wgt>
  <wgt id="295">7.53947e-12</wgt>
  <wgt id="296">7.86531e-12</wgt>
  <wgt id="297">7.68449e-12</wgt>
  <wgt id="298">7.71654e-12</wgt>
  <wgt id="299">7.66096e-12</wgt>
  <wgt id="300">7.75277e-12</wgt>
  <wgt id="301">7.57263e-12</wgt>
  <wgt id="302">7.96751e-12</wgt>
  <wgt id="303">7.62497e-12</wgt>
  <wgt id="304">7.72133e-12</wgt>
  <wgt id="305">7.70662e-12</wgt>
  <wgt id="306">7.71484e-12</wgt>
  <wgt id="307">7.69814e-12</wgt>
  <wgt id="308">7.71307e-12</wgt>
  <wgt id="309">7.70263e-12</wgt>
  <wgt id="310">7.76027e-12</wgt>
  <wgt id="311">7.65722e-12</wgt>
  <wgt id="312">7.71699e-12</wgt>
  <wgt id="313">7.6963e-12</wgt>
  <wgt id="314">7.70322e-12</wgt>
  <wgt id="315">7.71033e-12</wgt>
  <wgt id="316">7.69772e-12</wgt>
  <wgt id="317">7.72638e-12</wgt>
  <wgt id="318">7.71276e-12</wgt>
  <wgt id="319">7.69678e-12</wgt>
  <wgt id="320">7.73381e-12</wgt>
  <wgt id="321">7.69185e-12</wgt>
  <wgt id="322">7.68979e-12</wgt>
  <wgt id="323">7.72678e-12</wgt>
  <wgt id="324">7.68652e-12</wgt>
  <wgt id="325">7.7246e-12</wgt>
  <wgt id="326">7.68055e-12</wgt>
  <wgt id="327">7.74037e-12</wgt>
  <wgt id="328">7.66694e-12</wgt>
  <wgt id="329">7.72932e-12</wgt>
  <wgt id="330">7.93787e-12</wgt>
  <wgt id="331">7.48657e-12</wgt>
  <wgt id="332">7.6776e-12</wgt>
  <wgt id="333">7.70746e-12</wgt>
  <wgt id="334">7.53117e-12</wgt>
  <wgt id="335">7.92502e-12</wgt>
  <wgt id="336">7.43772e-12</wgt>
  <wgt id="337">8.03412e-12</wgt>
  <wgt id="338">7.79293e-12</wgt>
  <wgt id="339">7.62705e-12</wgt>
  <wgt id="340">7.75829e-12</wgt>
  <wgt id="341">7.57443e-12</wgt>
  <wgt id="342">7.69146e-12</wgt>
  <wgt id="343">7.69925e-12</wgt>
  <wgt id="344">7.65249e-12</wgt>
  <wgt id="345">7.76971e-12</wgt>
  <wgt id="346">7.55427e-12</wgt>
  <wgt id="347">7.88249e-12</wgt>
  <wgt id="348">7.70783e-12</wgt>
  <wgt id="349">7.7322e-12</wgt>
  <wgt id="350">7.67506e-12</wgt>
  <wgt id="351">7.78698e-12</wgt>
  <wgt id="352">7.58109e-12</wgt>
  <wgt id="353">8.00055e-12</wgt>
  <wgt id="354">7.61312e-12</wgt>
  <wgt id="355">7.76372e-12</wgt>
  <wgt id="356">7.68639e-12</wgt>
  <wgt id="357">7.73758e-12</wgt>
  <wgt id="358">7.70662e-12</wgt>
  <wgt id="359">7.71241e-12</wgt>
  <wgt id="360">7.74141e-12</wgt>
  <wgt id="361">7.71146e-12</wgt>
  <wgt id="362">7.84769e-12</wgt>
  <wgt id="363">7.82831e-12</wgt>
  <wgt id="364">7.80093e-12</wgt>
  <wgt id="365">7.77409e-12</wgt>
  <wgt id="366">7.74435e-12</wgt>
  <wgt id="367">7.68323e-12</wgt>
  <wgt id="368">7.64965e-12</wgt>
  <wgt id="369">7.6133e-12</wgt>
  <wgt id="370">7.71146e-12</wgt>
  <wgt id="371">7.74633e-12</wgt>
  <wgt id="372">7.72715e-12</wgt>
  <wgt id="373">7.69872e-12</wgt>
  <wgt id="374">7.6965e-12</wgt>
  <wgt id="375">8.24816e-12</wgt>
  <wgt id="376">8.24923e-12</wgt>
  <wgt id="377">8.24656e-12</wgt>
  <wgt id="378">8.27808e-12</wgt>
  <wgt id="379">8.21805e-12</wgt>
  <wgt id="380">8.26989e-12</wgt>
  <wgt id="381">8.2393e-12</wgt>
  <wgt id="382">8.29207e-12</wgt>
  <wgt id="383">8.20443e-12</wgt>
  <wgt id="384">8.2535e-12</wgt>
  <wgt id="385">8.24291e-12</wgt>
  <wgt id="386">8.28222e-12</wgt>
  <wgt id="387">8.23315e-12</wgt>
  <wgt id="388">8.2399e-12</wgt>
  <wgt id="389">8.25765e-12</wgt>
  <wgt id="390">8.27107e-12</wgt>
  <wgt id="391">8.22388e-12</wgt>
  <wgt id="392">8.18248e-12</wgt>
  <wgt id="393">8.28531e-12</wgt>
  <wgt id="394">8.25979e-12</wgt>
  <wgt id="395">8.23202e-12</wgt>
  <wgt id="396">8.25447e-12</wgt>
  <wgt id="397">8.24367e-12</wgt>
  <wgt id="398">8.21065e-12</wgt>
  <wgt id="399">8.28434e-12</wgt>
  <wgt id="400">8.23352e-12</wgt>
  <wgt id="401">8.28072e-12</wgt>
  <wgt id="402">8.17924e-12</wgt>
  <wgt id="403">8.27885e-12</wgt>
  <wgt id="404">8.44218e-12</wgt>
  <wgt id="405">7.78071e-12</wgt>
  <wgt id="406">8.10903e-12</wgt>
  <wgt id="407">8.54994e-12</wgt>
  <wgt id="408">8.31953e-12</wgt>
  <wgt id="409">8.11158e-12</wgt>
  <wgt id="410">8.0203e-12</wgt>
  <wgt id="411">8.35371e-12</wgt>
  <wgt id="412">8.23325e-12</wgt>
  <wgt id="413">8.27024e-12</wgt>
  <wgt id="414">8.15695e-12</wgt>
  <wgt id="415">8.31881e-12</wgt>
  <wgt id="416">8.47166e-12</wgt>
  <wgt id="417">7.93942e-12</wgt>
  <wgt id="418">8.25933e-12</wgt>
  <wgt id="419">8.18807e-12</wgt>
  <wgt id="420">8.3792e-12</wgt>
  <wgt id="421">8.17196e-12</wgt>
  <wgt id="422">8.23227e-12</wgt>
  <wgt id="423">8.25704e-12</wgt>
  <wgt id="424">8.42243e-12</wgt>
  <wgt id="425">8.13791e-12</wgt>
  <wgt id="426">8.24816e-12</wgt>
  <wgt id="427">8.17163e-12</wgt>
  <wgt id="428">8.47181e-12</wgt>
  <wgt id="429">8.3252e-12</wgt>
  <wgt id="430">8.56127e-12</wgt>
  <wgt id="431">8.51397e-12</wgt>
  <wgt id="432">8.46949e-12</wgt>
  <wgt id="433">8.42624e-12</wgt>
  <wgt id="434">8.3737e-12</wgt>
  <wgt id="435">8.26453e-12</wgt>
  <wgt id="436">8.20863e-12</wgt>
  <wgt id="437">8.1552e-12</wgt>
  <wgt id="438">8.3252e-12</wgt>
  <wgt id="439">8.35275e-12</wgt>
  <wgt id="440">8.33645e-12</wgt>
  <wgt id="441">8.31687e-12</wgt>
  <wgt id="442">8.30965e-12</wgt>
  <wgt id="443">8.04792e-12</wgt>
  <wgt id="444">8.09434e-12</wgt>
  <wgt id="445">8.013e-12</wgt>
  <wgt id="446">7.99602e-12</wgt>
  <wgt id="447">8.01804e-12</wgt>
  <wgt id="448">7.83165e-12</wgt>
  <wgt id="449">8.17419e-12</wgt>
  <wgt id="450">8.01816e-12</wgt>
  <wgt id="451">8.03444e-12</wgt>
  <wgt id="452">8.2333e-12</wgt>
  <wgt id="453">8.12813e-12</wgt>
  <wgt id="454">7.72576e-12</wgt>
  <wgt id="455">8.0574e-12</wgt>
  <wgt id="456">7.97512e-12</wgt>
  <wgt id="457">8.0826e-12</wgt>
  <wgt id="458">8.14058e-12</wgt>
  <wgt id="459">8.1021e-12</wgt>
  <wgt id="460">8.0921e-12</wgt>
  <wgt id="461">7.89574e-12</wgt>
  <wgt id="462">7.97903e-12</wgt>
  <wgt id="463">7.95914e-12</wgt>
  <wgt id="464">7.99993e-12</wgt>
  <wgt id="465">8.13537e-12</wgt>
  <wgt id="466">7.95352e-12</wgt>
  <wgt id="467">7.96727e-12</wgt>
  <wgt id="468">8.02521e-12</wgt>
  <wgt id="469">8.02365e-12</wgt>
  <wgt id="470">7.97596e-12</wgt>
  <wgt id="471">7.97469e-12</wgt>
  <wgt id="472">8.08662e-12</wgt>
  <wgt id="473">7.77811e-12</wgt>
  <wgt id="474">5.79e-12</wgt>
  <wgt id="475">6.14624e-12</wgt>
  <wgt id="476">5.65514e-12</wgt>
  <wgt id="477">5.57607e-12</wgt>
  <wgt id="478">5.81759e-12</wgt>
  <wgt id="479">5.66978e-12</wgt>
  <wgt id="480">6.00858e-12</wgt>
  <wgt id="481">5.67654e-12</wgt>
  <wgt id="482">5.58088e-12</wgt>
  <wgt id="483">5.63549e-12</wgt>
  <wgt id="484">6.17456e-12</wgt>
  <wgt id="485">5.78292e-12</wgt>
  <wgt id="486">5.95687e-12</wgt>
  <wgt id="487">5.91202e-12</wgt>
  <wgt id="488">5.87696e-12</wgt>
  <wgt id="489">5.60183e-12</wgt>
  <wgt id="490">5.60114e-12</wgt>
  <wgt id="491">5.72463e-12</wgt>
  <wgt id="492">5.6132e-12</wgt>
  <wgt id="493">5.56974e-12</wgt>
  <wgt id="494">5.61484e-12</wgt>
  <wgt id="495">5.92421e-12</wgt>
  <wgt id="496">5.59965e-12</wgt>
  <wgt id="497">5.55763e-12</wgt>
  <wgt id="498">5.87857e-12</wgt>
  <wgt id="499">5.64844e-12</wgt>
  <wgt id="500">5.70126e-12</wgt>
  <wgt id="501">6.06213e-12</wgt>
  <wgt id="502">5.6489e-12</wgt>
  <wgt id="503">5.78737e-12</wgt>
  <wgt id="504">5.84753e-12</wgt>
  <wgt id="505">5.75198e-12</wgt>
  <wgt id="506">5.92951e-12</wgt>
  <wgt id="507">5.73965e-12</wgt>
  <wgt id="508">5.8735e-12</wgt>
  <wgt id="509">5.63931e-12</wgt>
  <wgt id="510">5.95273e-12</wgt>
  <wgt id="511">5.67618e-12</wgt>
  <wgt id="512">5.88476e-12</wgt>
  <wgt id="513">6.06245e-12</wgt>
  <wgt id="514">5.75173e-12</wgt>
  <wgt id="515">5.7122e-12</wgt>
  <wgt id="516">5.96011e-12</wgt>
  <wgt id="517">5.90894e-12</wgt>
  <wgt id="518">5.92089e-12</wgt>
  <wgt id="519">5.61648e-12</wgt>
  <wgt id="520">5.85403e-12</wgt>
  <wgt id="521">5.98601e-12</wgt>
  <wgt id="522">6.01591e-12</wgt>
  <wgt id="523">5.92799e-12</wgt>
  <wgt id="524">5.8737e-12</wgt>
  <wgt id="525">5.98158e-12</wgt>
  <wgt id="526">5.81959e-12</wgt>
  <wgt id="527">5.87306e-12</wgt>
  <wgt id="528">5.82739e-12</wgt>
  <wgt id="529">5.68124e-12</wgt>
  <wgt id="530">5.8546e-12</wgt>
  <wgt id="531">5.7317e-12</wgt>
  <wgt id="532">6.12335e-12</wgt>
  <wgt id="533">5.44746e-12</wgt>
  <wgt id="534">5.81942e-12</wgt>
  <wgt id="535">5.91268e-12</wgt>
  <wgt id="536">5.7553e-12</wgt>
  <wgt id="537">5.80925e-12</wgt>
  <wgt id="538">5.85124e-12</wgt>
  <wgt id="539">5.68619e-12</wgt>
  <wgt id="540">5.66869e-12</wgt>
  <wgt id="541">5.61927e-12</wgt>
  <wgt id="542">5.6971e-12</wgt>
  <wgt id="543">5.78072e-12</wgt>
  <wgt id="544">6.07538e-12</wgt>
  <wgt id="545">5.71569e-12</wgt>
  <wgt id="546">5.71276e-12</wgt>
  <wgt id="547">5.61236e-12</wgt>
  <wgt id="548">5.55317e-12</wgt>
  <wgt id="549">5.68528e-12</wgt>
  <wgt id="550">5.73894e-12</wgt>
  <wgt id="551">5.84385e-12</wgt>
  <wgt id="552">5.73552e-12</wgt>
  <wgt id="553">5.77194e-12</wgt>
  <wgt id="554">6.2158e-12</wgt>
  <wgt id="555">5.93361e-12</wgt>
  <wgt id="556">5.60114e-12</wgt>
  <wgt id="557">5.88905e-12</wgt>
  <wgt id="558">5.60323e-12</wgt>
  <wgt id="559">5.70949e-12</wgt>
  <wgt id="560">6.28332e-12</wgt>
  <wgt id="561">5.68154e-12</wgt>
  <wgt id="562">5.88848e-12</wgt>
  <wgt id="563">5.61909e-12</wgt>
  <wgt id="564">5.79672e-12</wgt>
  <wgt id="565">5.5659e-12</wgt>
  <wgt id="566">5.88996e-12</wgt>
  <wgt id="567">5.71054e-12</wgt>
  <wgt id="568">5.76243e-12</wgt>
  <wgt id="569">5.91112e-12</wgt>
  <wgt id="570">5.59836e-12</wgt>
  <wgt id="571">6.42141e-12</wgt>
  <wgt id="572">5.65324e-12</wgt>
  <wgt id="573">5.53369e-12</wgt>
  <wgt id="574">5.58307e-12</wgt>
  <wgt id="575">6.38463e-12</wgt>
  <wgt id="576">6.34119e-12</wgt>
  <wgt id="577">6.54788e-12</wgt>
  <wgt id="578">6.56247e-12</wgt>
  <wgt id="579">6.50266e-12</wgt>
  <wgt id="580">6.51486e-12</wgt>
  <wgt id="581">6.80505e-12</wgt>
  <wgt id="582">6.3262e-12</wgt>
  <wgt id="583">6.45672e-12</wgt>
  <wgt id="584">6.39444e-12</wgt>
  <wgt id="585">6.42727e-12</wgt>
  <wgt id="586">6.2414e-12</wgt>
  <wgt id="587">6.47973e-12</wgt>
  <wgt id="588">6.35407e-12</wgt>
  <wgt id="589">6.52011e-12</wgt>
  <wgt id="590">6.49583e-12</wgt>
  <wgt id="591">6.62309e-12</wgt>
  <wgt id="592">6.23957e-12</wgt>
  <wgt id="593">6.35731e-12</wgt>
  <wgt id="594">6.56419e-12</wgt>
  <wgt id="595">6.3643e-12</wgt>
  <wgt id="596">6.43401e-12</wgt>
  <wgt id="597">6.19847e-12</wgt>
  <wgt id="598">6.19086e-12</wgt>
  <wgt id="599">6.72544e-12</wgt>
  <wgt id="600">6.32225e-12</wgt>
  <wgt id="601">6.20623e-12</wgt>
  <wgt id="602">6.24435e-12</wgt>
  <wgt id="603">6.257e-12</wgt>
  <wgt id="604">6.48107e-12</wgt>
  <wgt id="605">6.64233e-12</wgt>
  <wgt id="606">6.24585e-12</wgt>
  <wgt id="607">6.30697e-12</wgt>
  <wgt id="608">6.4439e-12</wgt>
  <wgt id="609">6.0431e-12</wgt>
  <wgt id="610">6.14652e-12</wgt>
  <wgt id="611">6.43958e-12</wgt>
  <wgt id="612">6.82021e-12</wgt>
  <wgt id="613">6.36575e-12</wgt>
  <wgt id="614">6.47204e-12</wgt>
  <wgt id="615">6.25455e-12</wgt>
  <wgt id="616">6.73319e-12</wgt>
  <wgt id="617">6.62879e-12</wgt>
  <wgt id="618">6.52508e-12</wgt>
  <wgt id="619">6.303e-12</wgt>
  <wgt id="620">6.67323e-12</wgt>
  <wgt id="621">6.47357e-12</wgt>
  <wgt id="622">6.47973e-12</wgt>
  <wgt id="623">6.57163e-12</wgt>
  <wgt id="624">6.3685e-12</wgt>
  <wgt id="625">6.30944e-12</wgt>
  <wgt id="626">6.22238e-12</wgt>
  <wgt id="627">6.12625e-12</wgt>
  <wgt id="628">6.7626e-12</wgt>
  <wgt id="629">6.23555e-12</wgt>
  <wgt id="630">6.13928e-12</wgt>
  <wgt id="631">6.42192e-12</wgt>
  <wgt id="632">6.15286e-12</wgt>
  <wgt id="633">6.31568e-12</wgt>
  <wgt id="634">6.36223e-12</wgt>
  <wgt id="635">6.23759e-12</wgt>
  <wgt id="636">6.4217e-12</wgt>
  <wgt id="637">6.35481e-12</wgt>
  <wgt id="638">6.13404e-12</wgt>
  <wgt id="639">6.2946e-12</wgt>
  <wgt id="640">6.38513e-12</wgt>
  <wgt id="641">6.42983e-12</wgt>
  <wgt id="642">6.1011e-12</wgt>
  <wgt id="643">6.34372e-12</wgt>
  <wgt id="644">6.12633e-12</wgt>
  <wgt id="645">6.44797e-12</wgt>
  <wgt id="646">6.4675e-12</wgt>
  <wgt id="647">6.30748e-12</wgt>
  <wgt id="648">6.4233e-12</wgt>
  <wgt id="649">6.48278e-12</wgt>
  <wgt id="650">6.26326e-12</wgt>
  <wgt id="651">6.40828e-12</wgt>
  <wgt id="652">6.33426e-12</wgt>
  <wgt id="653">6.20275e-12</wgt>
  <wgt id="654">6.34697e-12</wgt>
  <wgt id="655">6.28761e-12</wgt>
  <wgt id="656">6.43412e-12</wgt>
  <wgt id="657">6.6317e-12</wgt>
  <wgt id="658">6.39582e-12</wgt>
  <wgt id="659">6.13122e-12</wgt>
  <wgt id="660">6.50917e-12</wgt>
  <wgt id="661">6.27602e-12</wgt>
  <wgt id="662">6.38893e-12</wgt>
  <wgt id="663">6.38773e-12</wgt>
  <wgt id="664">6.2932e-12</wgt>
  <wgt id="665">6.36469e-12</wgt>
  <wgt id="666">6.32689e-12</wgt>
  <wgt id="667">6.58398e-12</wgt>
  <wgt id="668">6.37941e-12</wgt>
  <wgt id="669">6.53768e-12</wgt>
  <wgt id="670">6.51934e-12</wgt>
  <wgt id="671">6.3335e-12</wgt>
  <wgt id="672">6.11762e-12</wgt>
  <wgt id="673">6.40646e-12</wgt>
  <wgt id="674">6.2644e-12</wgt>
  <wgt id="675">6.30254e-12</wgt>
  <wgt id="676">8.07777e-12</wgt>
  <wgt id="677">8.16408e-12</wgt>
  <wgt id="678">8.46744e-12</wgt>
  <wgt id="679">7.54517e-12</wgt>
  <wgt id="680">7.89361e-12</wgt>
  <wgt id="681">8.25143e-12</wgt>
  <wgt id="682">8.33169e-12</wgt>
  <wgt id="683">7.9629e-12</wgt>
  <wgt id="684">8.44929e-12</wgt>
  <wgt id="685">7.64829e-12</wgt>
  <wgt id="686">7.91202e-12</wgt>
  <wgt id="687">8.48874e-12</wgt>
  <wgt id="688">8.05713e-12</wgt>
  <wgt id="689">8.76077e-12</wgt>
  <wgt id="690">8.4886e-12</wgt>
  <wgt id="691">8.58954e-12</wgt>
  <wgt id="692">7.9806e-12</wgt>
  <wgt id="693">9.50803e-12</wgt>
  <wgt id="694">8.56268e-12</wgt>
  <wgt id="695">7.82834e-12</wgt>
  <wgt id="696">7.63469e-12</wgt>
  <wgt id="697">7.87e-12</wgt>
  <wgt id="698">7.39749e-12</wgt>
  <wgt id="699">7.34528e-12</wgt>
  <wgt id="700">7.03163e-12</wgt>
  <wgt id="701">8.10972e-12</wgt>
  <wgt id="702">7.81404e-12</wgt>
  <wgt id="703">9.29022e-12</wgt>
  <wgt id="704">8.83789e-12</wgt>
  <wgt id="705">8.43948e-12</wgt>
  <wgt id="706">7.5201e-12</wgt>
  <wgt id="707">7.75174e-12</wgt>
  <wgt id="708">7.97113e-12</wgt>
  <wgt id="709">7.93503e-12</wgt>
  <wgt id="710">7.25e-12</wgt>
  <wgt id="711">8.02602e-12</wgt>
  <wgt id="712">7.93607e-12</wgt>
  <wgt id="713">8.76358e-12</wgt>
  <wgt id="714">7.94147e-12</wgt>
  <wgt id="715">7.99678e-12</wgt>
  <wgt id="716">7.76211e-12</wgt>
  <wgt id="717">7.69557e-12</wgt>
  <wgt id="718">8.06489e-12</wgt>
  <wgt id="719">7.32316e-12</wgt>
  <wgt id="720">7.59089e-12</wgt>
  <wgt id="721">7.4163e-12</wgt>
  <wgt id="722">7.14634e-12</wgt>
  <wgt id="723">8.62696e-12</wgt>
  <wgt id="724">8.4687e-12</wgt>
  <wgt id="725">8.52724e-12</wgt>
  <wgt id="726">8.15654e-12</wgt>
  <wgt id="727">7.88734e-12</wgt>
  <wgt id="728">7.89405e-12</wgt>
  <wgt id="729">7.34585e-12</wgt>
  <wgt id="730">8.74916e-12</wgt>
  <wgt id="731">7.97643e-12</wgt>
  <wgt id="732">8.88692e-12</wgt>
  <wgt id="733">8.07273e-12</wgt>
  <wgt id="734">8.27745e-12</wgt>
  <wgt id="735">8.03965e-12</wgt>
  <wgt id="736">7.91716e-12</wgt>
  <wgt id="737">8.21453e-12</wgt>
  <wgt id="738">7.65186e-12</wgt>
  <wgt id="739">8.20977e-12</wgt>
  <wgt id="740">8.98674e-12</wgt>
  <wgt id="741">7.19348e-12</wgt>
  <wgt id="742">7.94705e-12</wgt>
  <wgt id="743">7.69474e-12</wgt>
  <wgt id="744">7.91225e-12</wgt>
  <wgt id="745">8.46229e-12</wgt>
  <wgt id="746">8.6072e-12</wgt>
  <wgt id="747">7.29786e-12</wgt>
  <wgt id="748">7.98132e-12</wgt>
  <wgt id="749">8.50556e-12</wgt>
  <wgt id="750">8.22305e-12</wgt>
  <wgt id="751">8.33611e-12</wgt>
  <wgt id="752">7.38949e-12</wgt>
  <wgt id="753">7.6829e-12</wgt>
  <wgt id="754">8.48437e-12</wgt>
  <wgt id="755">8.10487e-12</wgt>
  <wgt id="756">8.13558e-12</wgt>
  <wgt id="757">7.41702e-12</wgt>
  <wgt id="758">8.14714e-12</wgt>
  <wgt id="759">8.25428e-12</wgt>
  <wgt id="760">8.17009e-12</wgt>
  <wgt id="761">8.51225e-12</wgt>
  <wgt id="762">8.5738e-12</wgt>
  <wgt id="763">8.03917e-12</wgt>
  <wgt id="764">8.40923e-12</wgt>
  <wgt id="765">8.24912e-12</wgt>
  <wgt id="766">8.06765e-12</wgt>
  <wgt id="767">8.2949e-12</wgt>
  <wgt id="768">7.60891e-12</wgt>
  <wgt id="769">8.57869e-12</wgt>
  <wgt id="770">7.8309e-12</wgt>
  <wgt id="771">9.58337e-12</wgt>
  <wgt id="772">7.62365e-12</wgt>
  <wgt id="773">8.0121e-12</wgt>
  <wgt id="774">7.15906e-12</wgt>
  <wgt id="775">8.5426e-12</wgt>
  <wgt id="776">8.83257e-12</wgt>
  <wgt id="777">7.65062e-12</wgt>
  <wgt id="778">5.91866e-12</wgt>
  <wgt id="779">4.87715e-12</wgt>
  <wgt id="780">3.91503e-12</wgt>
  <wgt id="781">6.07516e-12</wgt>
  <wgt id="782">6.28071e-12</wgt>
  <wgt id="783">4.9245e-12</wgt>
  <wgt id="784">5.13477e-12</wgt>
  <wgt id="785">7.24902e-12</wgt>
  <wgt id="786">4.52705e-12</wgt>
  <wgt id="787">6.79267e-12</wgt>
  <wgt id="788">3.62914e-12</wgt>
  <wgt id="789">4.70033e-12</wgt>
  <wgt id="790">4.45935e-12</wgt>
  <wgt id="791">5.55532e-12</wgt>
  <wgt id="792">7.73668e-12</wgt>
  <wgt id="793">5.78792e-12</wgt>
  <wgt id="794">4.45104e-12</wgt>
  <wgt id="795">7.01986e-12</wgt>
  <wgt id="796">7.84372e-12</wgt>
  <wgt id="797">6.92339e-12</wgt>
  <wgt id="798">5.42027e-12</wgt>
  <wgt id="799">6.78628e-12</wgt>
  <wgt id="800">4.75758e-12</wgt>
  <wgt id="801">5.49892e-12</wgt>
  <wgt id="802">4.47482e-12</wgt>
  <wgt id="803">7.71604e-12</wgt>
  <wgt id="804">6.9618e-12</wgt>
  <wgt id="805">7.09044e-12</wgt>
  <wgt id="806">6.61755e-12</wgt>
  <wgt id="807">5.61586e-12</wgt>
  <wgt id="808">5.75068e-12</wgt>
  <wgt id="809">5.43963e-12</wgt>
  <wgt id="810">6.73717e-12</wgt>
  <wgt id="811">6.48664e-12</wgt>
  <wgt id="812">4.41824e-12</wgt>
  <wgt id="813">4.54194e-12</wgt>
  <wgt id="814">5.06729e-12</wgt>
  <wgt id="815">4.88535e-12</wgt>
  <wgt id="816">4.26777e-12</wgt>
  <wgt id="817">6.21136e-12</wgt>
  <wgt id="818">5.91157e-12</wgt>
  <wgt id="819">4.86661e-12</wgt>
  <wgt id="820">5.92207e-12</wgt>
  <wgt id="821">6.87577e-12</wgt>
  <wgt id="822">4.84046e-12</wgt>
  <wgt id="823">6.92823e-12</wgt>
  <wgt id="824">8.01532e-12</wgt>
  <wgt id="825">4.29898e-12</wgt>
  <wgt id="826">6.31126e-12</wgt>
  <wgt id="827">3.51235e-12</wgt>
  <wgt id="828">7.60605e-12</wgt>
  <wgt id="829">6.18716e-12</wgt>
  <wgt id="830">4.0698e-12</wgt>
  <wgt id="831">6.41477e-12</wgt>
  <wgt id="832">9.84924e-12</wgt>
  <wgt id="833">5.47114e-12</wgt>
  <wgt id="834">9.18877e-12</wgt>
  <wgt id="835">4.76497e-12</wgt>
  <wgt id="836">5.86035e-12</wgt>
  <wgt id="837">6.78444e-12</wgt>
  <wgt id="838">5.63336e-12</wgt>
  <wgt id="839">6.36654e-12</wgt>
  <wgt id="840">5.4935e-12</wgt>
  <wgt id="841">7.39721e-12</wgt>
  <wgt id="842">5.3255e-12</wgt>
  <wgt id="843">5.84773e-12</wgt>
  <wgt id="844">6.216e-12</wgt>
  <wgt id="845">8.43725e-12</wgt>
  <wgt id="846">5.52525e-12</wgt>
  <wgt id="847">6.03183e-12</wgt>
  <wgt id="848">5.04484e-12</wgt>
  <wgt id="849">6.0876e-12</wgt>
  <wgt id="850">7.83836e-12</wgt>
  <wgt id="851">6.5241e-12</wgt>
  <wgt id="852">5.0112e-12</wgt>
  <wgt id="853">6.54179e-12</wgt>
  <wgt id="854">7.2806e-12</wgt>
  <wgt id="855">6.95911e-12</wgt>
  <wgt id="856">4.17937e-12</wgt>
  <wgt id="857">5.90822e-12</wgt>
  <wgt id="858">5.87159e-12</wgt>
  <wgt id="859">5.48657e-12</wgt>
  <wgt id="860">6.44159e-12</wgt>
  <wgt id="861">5.14376e-12</wgt>
  <wgt id="862">6.05084e-12</wgt>
  <wgt id="863">6.31153e-12</wgt>
  <wgt id="864">6.33784e-12</wgt>
  <wgt id="865">8.6451e-12</wgt>
  <wgt id="866">9.45671e-12</wgt>
  <wgt id="867">6.08134e-12</wgt>
  <wgt id="868">5.89957e-12</wgt>
  <wgt id="869">4.5307e-12</wgt>
  <wgt id="870">4.76673e-12</wgt>
  <wgt id="871">4.61958e-12</wgt>
  <wgt id="872">7.16943e-12</wgt>
  <wgt id="873">4.81974e-12</wgt>
  <wgt id="874">6.27105e-12</wgt>
  <wgt id="875">5.11983e-12</wgt>
  <wgt id="876">7.18869e-12</wgt>
  <wgt id="877">6.86821e-12</wgt>
  <wgt id="878">5.01718e-12</wgt>
  <wgt id="879">8.07777e-12</wgt>
  <wgt id="880">8.16408e-12</wgt>
  <wgt id="881">8.46744e-12</wgt>
  <wgt id="882">7.54517e-12</wgt>
  <wgt id="883">7.89361e-12</wgt>
  <wgt id="884">8.25143e-12</wgt>
  <wgt id="885">8.33169e-12</wgt>
  <wgt id="886">7.9629e-12</wgt>
  <wgt id="887">8.44929e-12</wgt>
  <wgt id="888">7.64829e-12</wgt>
  <wgt id="889">7.91202e-12</wgt>
  <wgt id="890">8.48874e-12</wgt>
  <wgt id="891">8.05713e-12</wgt>
  <wgt id="892">8.76077e-12</wgt>
  <wgt id="893">8.4886e-12</wgt>
  <wgt id="894">8.58954e-12</wgt>
  <wgt id="895">7.9806e-12</wgt>
  <wgt id="896">9.50803e-12</wgt>
  <wgt id="897">8.56268e-12</wgt>
  <wgt id="898">7.82834e-12</wgt>
  <wgt id="899">7.63469e-12</wgt>
  <wgt id="900">7.87e-12</wgt>
  <wgt id="901">7.39749e-12</wgt>
  <wgt id="902">7.34528e-12</wgt>
  <wgt id="903">7.03163e-12</wgt>
  <wgt id="904">8.10972e-12</wgt>
  <wgt id="905">7.81404e-12</wgt>
  <wgt id="906">9.29022e-12</wgt>
  <wgt id="907">8.83789e-12</wgt>
  <wgt id="908">8.43948e-12</wgt>
  <wgt id="909">7.5201e-12</wgt>
  <wgt id="910">7.75174e-12</wgt>
  <wgt id="911">7.97113e-12</wgt>
  <wgt id="912">7.93503e-12</wgt>
  <wgt id="913">7.25e-12</wgt>
  <wgt id="914">8.02602e-12</wgt>
  <wgt id="915">7.93607e-12</wgt>
  <wgt id="916">8.76358e-12</wgt>
  <wgt id="917">7.94147e-12</wgt>
  <wgt id="918">7.99678e-12</wgt>
  <wgt id="919">7.76211e-12</wgt>
  <wgt id="920">7.69557e-12</wgt>
  <wgt id="921">8.06489e-12</wgt>
  <wgt id="922">7.32316e-12</wgt>
  <wgt id="923">7.59089e-12</wgt>
  <wgt id="924">7.4163e-12</wgt>
  <wgt id="925">7.14634e-12</wgt>
  <wgt id="926">8.62696e-12</wgt>
  <wgt id="927">8.4687e-12</wgt>
  <wgt id="928">8.52724e-12</wgt>
  <wgt id="929">8.15654e-12</wgt>
  <wgt id="930">7.88734e-12</wgt>
  <wgt id="931">7.89405e-12</wgt>
  <wgt id="932">7.34585e-12</wgt>
  <wgt id="933">8.74916e-12</wgt>
  <wgt id="934">7.97643e-12</wgt>
  <wgt id="935">8.88692e-12</wgt>
  <wgt id="936">8.07273e-12</wgt>
  <wgt id="937">8.27745e-12</wgt>
  <wgt id="938">8.03965e-12</wgt>
  <wgt id="939">7.91716e-12</wgt>
  <wgt id="940">8.21453e-12</wgt>
  <wgt id="941">7.65186e-12</wgt>
  <wgt id="942">8.20977e-12</wgt>
  <wgt id="943">8.98674e-12</wgt>
  <wgt id="944">7.19348e-12</wgt>
  <wgt id="945">7.94705e-12</wgt>
  <wgt id="946">7.69474e-12</wgt>
  <wgt id="947">7.91225e-12</wgt>
  <wgt id="948">8.46229e-12</wgt>
  <wgt id="949">8.6072e-12</wgt>
  <wgt id="950">7.29786e-12</wgt>
  <wgt id="951">7.98132e-12</wgt>
  <wgt id="952">8.50556e-12</wgt>
  <wgt id="953">8.22305e-12</wgt>
  <wgt id="954">8.33611e-12</wgt>
  <wgt id="955">7.38949e-12</wgt>
  <wgt id="956">7.6829e-12</wgt>
  <wgt id="957">8.48437e-12</wgt>
  <wgt id="958">8.10487e-12</wgt>
  <wgt id="959">8.13558e-12</wgt>
  <wgt id="960">7.41702e-12</wgt>
  <wgt id="961">8.14714e-12</wgt>
  <wgt id="962">8.25428e-12</wgt>
  <wgt id="963">8.17009e-12</wgt>
  <wgt id="964">8.51225e-12</wgt>
  <wgt id="965">8.5738e-12</wgt>
  <wgt id="966">8.03917e-12</wgt>
  <wgt id="967">8.40923e-12</wgt>
  <wgt id="968">8.24912e-12</wgt>
  <wgt id="969">8.06765e-12</wgt>
  <wgt id="970">8.2949e-12</wgt>
  <wgt id="971">7.60891e-12</wgt>
  <wgt id="972">8.57869e-12</wgt>
  <wgt id="973">7.8309e-12</wgt>
  <wgt id="974">9.58337e-12</wgt>
  <wgt id="975">7.62365e-12</wgt>
  <wgt id="976">8.0121e-12</wgt>
  <wgt id="977">7.15906e-12</wgt>
  <wgt id="978">8.5426e-12</wgt>
  <wgt id="979">8.83257e-12</wgt>
  <wgt id="980">8.07225e-12</wgt>
  <wgt id="981">8.12948e-12</wgt>
  <wgt id="982">7.84361e-12</wgt>
</rwgt>
</event>
<event>
 5   1  0.5790000E-11  0.2194788E+04  0.7818608E-02  0.7750834E-01
       21   -1    0    0  502  501  0.00000000000E+00  0.00000000000E+00  0.46478353336E+03  0.46478353336E+03  0.00000000000E+00 0.  1.
       21   -1    0    0  501  502 -0.00000000000E+00 -0.00000000000E+00 -0.25910429783E+04  0.25910429783E+04  0.00000000000E+00 0. -1.
       39    2    1    2    0    0  0.00000000000E+00  0.00000000000E+00 -0.21262594449E+04  0.30558265116E+04  0.21947884732E+04 0.  0.
       25    1    3    3    0    0 -0.84443774905E+02 -0.10818800520E+04 -0.12095138654E+04  0.16297680782E+04  0.12500000000E+03 0.  0.
       25    1    3    3    0    0  0.84443774905E+02  0.10818800520E+04 -0.91674557949E+03  0.14260584334E+04  0.12500000000E+03 0.  0.
<mgrwt>
<rscale>  0 0.21947885E+04</rscale>
<asrwt>0</asrwt>
<pdfrwt beam="1">  1       21 0.71505159E-01 0.21947885E+04</pdfrwt>
<pdfrwt beam="2">  1       21 0.39862200E+00 0.21947885E+04</pdfrwt>
<totfact> 0.55080017E+00</totfact>
</mgrwt>
<rwgt>
  <wgt id="1">5.79e-12</wgt>
  <wgt id="2">4.95412e-12</wgt>
  <wgt id="3">6.85052e-12</wgt>
  <wgt id="4">5.79e-12</wgt>
  <wgt id="5">4.95412e-12</wgt>
  <wgt id="6">6.85052e-12</wgt>
  <wgt id="7">5.79e-12</wgt>
  <wgt id="8">4.95412e-12</wgt>
  <wgt id="9">6.85052e-12</wgt>
  <wgt id="10">6.17565e-12</wgt>
  <wgt id="11">6.18084e-12</wgt>
  <wgt id="12">6.15345e-12</wgt>
  <wgt id="13">6.17222e-12</wgt>
  <wgt id="14">6.17886e-12</wgt>
  <wgt id="15">6.18044e-12</wgt>
  <wgt id="16">6.14113e-12</wgt>
  <wgt id="17">6.22795e-12</wgt>
  <wgt id="18">6.17479e-12</wgt>
  <wgt id="19">6.21202e-12</wgt>
  <wgt id="20">6.18746e-12</wgt>
  <wgt id="21">6.10973e-12</wgt>
  <wgt id="22">6.11792e-12</wgt>
  <wgt id="23">6.06074e-12</wgt>
  <wgt id="24">6.12125e-12</wgt>
  <wgt id="25">6.16033e-12</wgt>
  <wgt id="26">6.18957e-12</wgt>
  <wgt id="27">6.16069e-12</wgt>
  <wgt id="28">6.13507e-12</wgt>
  <wgt id="29">6.17515e-12</wgt>
  <wgt id="30">6.1108e-12</wgt>
  <wgt id="31">6.20014e-12</wgt>
  <wgt id="32">6.10098e-12</wgt>
  <wgt id="33">6.17977e-12</wgt>
  <wgt id="34">6.11702e-12</wgt>
  <wgt id="35">6.10326e-12</wgt>
  <wgt id="36">6.21283e-12</wgt>
  <wgt id="37">6.15638e-12</wgt>
  <wgt id="38">6.1387e-12</wgt>
  <wgt id="39">6.31888e-12</wgt>
  <wgt id="40">6.19526e-12</wgt>
  <wgt id="41">6.16947e-12</wgt>
  <wgt id="42">6.18501e-12</wgt>
  <wgt id="43">6.18814e-12</wgt>
  <wgt id="44">6.23323e-12</wgt>
  <wgt id="45">6.1884e-12</wgt>
  <wgt id="46">6.12365e-12</wgt>
  <wgt id="47">6.3003e-12</wgt>
  <wgt id="48">6.25583e-12</wgt>
  <wgt id="49">6.14282e-12</wgt>
  <wgt id="50">6.08417e-12</wgt>
  <wgt id="51">6.11147e-12</wgt>
  <wgt id="52">6.18753e-12</wgt>
  <wgt id="53">6.34002e-12</wgt>
  <wgt id="54">6.23538e-12</wgt>
  <wgt id="55">6.15079e-12</wgt>
  <wgt id="56">6.04854e-12</wgt>
  <wgt id="57">6.0701e-12</wgt>
  <wgt id="58">6.17603e-12</wgt>
  <wgt id="59">6.2106e-12</wgt>
  <wgt id="60">6.05782e-12</wgt>
  <wgt id="61">6.18458e-12</wgt>
  <wgt id="62">6.22032e-12</wgt>
  <wgt id="63">6.16296e-12</wgt>
  <wgt id="64">6.16364e-12</wgt>
  <wgt id="65">6.11628e-12</wgt>
  <wgt id="66">6.23001e-12</wgt>
  <wgt id="67">6.25119e-12</wgt>
  <wgt id="68">6.17272e-12</wgt>
  <wgt id="69">6.16258e-12</wgt>
  <wgt id="70">6.10674e-12</wgt>
  <wgt id="71">6.22312e-12</wgt>
  <wgt id="72">6.20639e-12</wgt>
  <wgt id="73">6.14673e-12</wgt>
  <wgt id="74">6.22936e-12</wgt>
  <wgt id="75">6.09373e-12</wgt>
  <wgt id="76">6.22695e-12</wgt>
  <wgt id="77">6.15425e-12</wgt>
  <wgt id="78">6.16828e-12</wgt>
  <wgt id="79">6.18809e-12</wgt>
  <wgt id="80">6.12433e-12</wgt>
  <wgt id="81">6.16212e-12</wgt>
  <wgt id="82">6.17987e-12</wgt>
  <wgt id="83">6.11445e-12</wgt>
  <wgt id="84">6.12361e-12</wgt>
  <wgt id="85">6.11831e-12</wgt>
  <wgt id="86">6.24816e-12</wgt>
  <wgt id="87">6.06826e-12</wgt>
  <wgt id="88">6.20667e-12</wgt>
  <wgt id="89">6.20145e-12</wgt>
  <wgt id="90">6.22081e-12</wgt>
  <wgt id="91">6.18157e-12</wgt>
  <wgt id="92">6.20965e-12</wgt>
  <wgt id="93">6.18657e-12</wgt>
  <wgt id="94">6.13718e-12</wgt>
  <wgt id="95">6.21649e-12</wgt>
  <wgt id="96">6.21656e-12</wgt>
  <wgt id="97">6.11896e-12</wgt>
  <wgt id="98">6.17874e-12</wgt>
  <wgt id="99">6.16469e-12</wgt>
  <wgt id="100">6.19128e-12</wgt>
  <wgt id="101">6.14964e-12</wgt>
  <wgt id="102">6.15717e-12</wgt>
  <wgt id="103">6.21401e-12</wgt>
  <wgt id="104">6.16856e-12</wgt>
  <wgt id="105">6.22089e-12</wgt>
  <wgt id="106">6.13773e-12</wgt>
  <wgt id="107">6.24528e-12</wgt>
  <wgt id="108">6.15457e-12</wgt>
  <wgt id="109">6.16807e-12</wgt>
  <wgt id="110">6.17964e-12</wgt>
  <wgt id="111">6.09288e-12</wgt>
  <wgt id="112">6.30337e-12</wgt>
  <wgt id="113">9.48973e-12</wgt>
  <wgt id="114">7.83054e-12</wgt>
  <wgt id="115">7.66982e-12</wgt>
  <wgt id="116">1.03741e-11</wgt>
  <wgt id="117">6.72723e-12</wgt>
  <wgt id="118">6.75245e-12</wgt>
  <wgt id="119">6.71262e-12</wgt>
  <wgt id="120">6.72724e-12</wgt>
  <wgt id="121">6.7271e-12</wgt>
  <wgt id="122">6.7176e-12</wgt>
  <wgt id="123">6.74056e-12</wgt>
  <wgt id="124">6.71875e-12</wgt>
  <wgt id="125">6.73239e-12</wgt>
  <wgt id="126">6.73393e-12</wgt>
  <wgt id="127">6.72272e-12</wgt>
  <wgt id="128">6.74694e-12</wgt>
  <wgt id="129">6.70748e-12</wgt>
  <wgt id="130">6.75359e-12</wgt>
  <wgt id="131">6.69916e-12</wgt>
  <wgt id="132">6.53054e-12</wgt>
  <wgt id="133">6.96258e-12</wgt>
  <wgt id="134">6.65716e-12</wgt>
  <wgt id="135">6.78217e-12</wgt>
  <wgt id="136">6.84722e-12</wgt>
  <wgt id="137">6.58363e-12</wgt>
  <wgt id="138">7.07859e-12</wgt>
  <wgt id="139">6.39961e-12</wgt>
  <wgt id="140">6.70807e-12</wgt>
  <wgt id="141">6.7402e-12</wgt>
  <wgt id="142">6.72338e-12</wgt>
  <wgt id="143">6.7568e-12</wgt>
  <wgt id="144">6.36367e-12</wgt>
  <wgt id="145">7.09475e-12</wgt>
  <wgt id="146">6.84939e-12</wgt>
  <wgt id="147">6.62521e-12</wgt>
  <wgt id="148">6.75352e-12</wgt>
  <wgt id="149">6.7253e-12</wgt>
  <wgt id="150">6.7815e-12</wgt>
  <wgt id="151">6.70164e-12</wgt>
  <wgt id="152">6.72726e-12</wgt>
  <wgt id="153">6.72704e-12</wgt>
  <wgt id="154">6.70257e-12</wgt>
  <wgt id="155">6.73111e-12</wgt>
  <wgt id="156">7.05283e-12</wgt>
  <wgt id="157">6.45264e-12</wgt>
  <wgt id="158">8.00726e-12</wgt>
  <wgt id="159">8.04252e-12</wgt>
  <wgt id="160">7.9792e-12</wgt>
  <wgt id="161">7.98725e-12</wgt>
  <wgt id="162">8.02986e-12</wgt>
  <wgt id="163">7.99858e-12</wgt>
  <wgt id="164">8.02067e-12</wgt>
  <wgt id="165">8.01051e-12</wgt>
  <wgt id="166">8.00545e-12</wgt>
  <wgt id="167">8.0023e-12</wgt>
  <wgt id="168">8.01488e-12</wgt>
  <wgt id="169">7.97576e-12</wgt>
  <wgt id="170">8.02721e-12</wgt>
  <wgt id="171">8.0049e-12</wgt>
  <wgt id="172">8.0111e-12</wgt>
  <wgt id="173">7.9795e-12</wgt>
  <wgt id="174">8.01769e-12</wgt>
  <wgt id="175">7.76852e-12</wgt>
  <wgt id="176">8.32146e-12</wgt>
  <wgt id="177">8.03554e-12</wgt>
  <wgt id="178">7.9825e-12</wgt>
  <wgt id="179">8.48791e-12</wgt>
  <wgt id="180">7.28421e-12</wgt>
  <wgt id="181">7.70779e-12</wgt>
  <wgt id="182">8.20943e-12</wgt>
  <wgt id="183">7.82589e-12</wgt>
  <wgt id="184">8.0977e-12</wgt>
  <wgt id="185">7.89835e-12</wgt>
  <wgt id="186">8.139e-12</wgt>
  <wgt id="187">7.89678e-12</wgt>
  <wgt id="188">8.20008e-12</wgt>
  <wgt id="189">7.93483e-12</wgt>
  <wgt id="190">8.03726e-12</wgt>
  <wgt id="191">8.04319e-12</wgt>
  <wgt id="192">7.98601e-12</wgt>
  <wgt id="193">8.16029e-12</wgt>
  <wgt id="194">7.92947e-12</wgt>
  <wgt id="195">7.62762e-12</wgt>
  <wgt id="196">8.6056e-12</wgt>
  <wgt id="197">8.05138e-12</wgt>
  <wgt id="198">7.99698e-12</wgt>
  <wgt id="199">8.00726e-12</wgt>
  <wgt id="200">8.09339e-12</wgt>
  <wgt id="201">8.06625e-12</wgt>
  <wgt id="202">8.03895e-12</wgt>
  <wgt id="203">8.00343e-12</wgt>
  <wgt id="204">7.98335e-12</wgt>
  <wgt id="205">7.96729e-12</wgt>
  <wgt id="206">7.90732e-12</wgt>
  <wgt id="207">7.95546e-12</wgt>
  <wgt id="208">7.85943e-12</wgt>
  <wgt id="209">7.92893e-12</wgt>
  <wgt id="210">7.89156e-12</wgt>
  <wgt id="211">7.90475e-12</wgt>
  <wgt id="212">7.90911e-12</wgt>
  <wgt id="213">7.90637e-12</wgt>
  <wgt id="214">7.90793e-12</wgt>
  <wgt id="215">7.91274e-12</wgt>
  <wgt id="216">7.90353e-12</wgt>
  <wgt id="217">7.92014e-12</wgt>
  <wgt id="218">7.89681e-12</wgt>
  <wgt id="219">7.89467e-12</wgt>
  <wgt id="220">7.91506e-12</wgt>
  <wgt id="221">7.91605e-12</wgt>
  <wgt id="222">7.88263e-12</wgt>
  <wgt id="223">7.42039e-12</wgt>
  <wgt id="224">8.35602e-12</wgt>
  <wgt id="225">7.80773e-12</wgt>
  <wgt id="226">8.03459e-12</wgt>
  <wgt id="227">7.83023e-12</wgt>
  <wgt id="228">7.94116e-12</wgt>
  <wgt id="229">7.78869e-12</wgt>
  <wgt id="230">7.96581e-12</wgt>
  <wgt id="231">8.22186e-12</wgt>
  <wgt id="232">7.65167e-12</wgt>
  <wgt id="233">7.84407e-12</wgt>
  <wgt id="234">8.0155e-12</wgt>
  <wgt id="235">7.4116e-12</wgt>
  <wgt id="236">8.30249e-12</wgt>
  <wgt id="237">7.63363e-12</wgt>
  <wgt id="238">7.99826e-12</wgt>
  <wgt id="239">7.79963e-12</wgt>
  <wgt id="240">8.09995e-12</wgt>
  <wgt id="241">7.79293e-12</wgt>
  <wgt id="242">8.03909e-12</wgt>
  <wgt id="243">8.08995e-12</wgt>
  <wgt id="244">7.8688e-12</wgt>
  <wgt id="245">7.90715e-12</wgt>
  <wgt id="246">7.93535e-12</wgt>
  <wgt id="247">7.90732e-12</wgt>
  <wgt id="248">8.00676e-12</wgt>
  <wgt id="249">7.97512e-12</wgt>
  <wgt id="250">7.93697e-12</wgt>
  <wgt id="251">7.89225e-12</wgt>
  <wgt id="252">7.86624e-12</wgt>
  <wgt id="253">7.8499e-12</wgt>
  <wgt id="254">7.51591e-12</wgt>
  <wgt id="255">7.52186e-12</wgt>
  <wgt id="256">7.50916e-12</wgt>
  <wgt id="257">7.52175e-12</wgt>
  <wgt id="258">7.51109e-12</wgt>
  <wgt id="259">7.56608e-12</wgt>
  <wgt id="260">7.46704e-12</wgt>
  <wgt id="261">7.52765e-12</wgt>
  <wgt id="262">7.50173e-12</wgt>
  <wgt id="263">7.50859e-12</wgt>
  <wgt id="264">7.52375e-12</wgt>
  <wgt id="265">7.50671e-12</wgt>
  <wgt id="266">7.53369e-12</wgt>
  <wgt id="267">7.51836e-12</wgt>
  <wgt id="268">7.51262e-12</wgt>
  <wgt id="269">7.53705e-12</wgt>
  <wgt id="270">7.50118e-12</wgt>
  <wgt id="271">7.48708e-12</wgt>
  <wgt id="272">7.54802e-12</wgt>
  <wgt id="273">7.49897e-12</wgt>
  <wgt id="274">7.52836e-12</wgt>
  <wgt id="275">7.45575e-12</wgt>
  <wgt id="276">7.57796e-12</wgt>
  <wgt id="277">7.47466e-12</wgt>
  <wgt id="278">7.55348e-12</wgt>
  <wgt id="279">7.37929e-12</wgt>
  <wgt id="280">7.6883e-12</wgt>
  <wgt id="281">7.47262e-12</wgt>
  <wgt id="282">7.54288e-12</wgt>
  <wgt id="283">7.23547e-12</wgt>
  <wgt id="284">7.87091e-12</wgt>
  <wgt id="285">7.05429e-12</wgt>
  <wgt id="286">7.91483e-12</wgt>
  <wgt id="287">7.54544e-12</wgt>
  <wgt id="288">7.47756e-12</wgt>
  <wgt id="289">7.58514e-12</wgt>
  <wgt id="290">7.36895e-12</wgt>
  <wgt id="291">7.48188e-12</wgt>
  <wgt id="292">7.5069e-12</wgt>
  <wgt id="293">7.44043e-12</wgt>
  <wgt id="294">7.5909e-12</wgt>
  <wgt id="295">7.33251e-12</wgt>
  <wgt id="296">7.74009e-12</wgt>
  <wgt id="297">7.47646e-12</wgt>
  <wgt id="298">7.56419e-12</wgt>
  <wgt id="299">7.48827e-12</wgt>
  <wgt id="300">7.58856e-12</wgt>
  <wgt id="301">7.30635e-12</wgt>
  <wgt id="302">7.97545e-12</wgt>
  <wgt id="303">7.40181e-12</wgt>
  <wgt id="304">7.57843e-12</wgt>
  <wgt id="305">7.35069e-12</wgt>
  <wgt id="306">7.3569e-12</wgt>
  <wgt id="307">7.3441e-12</wgt>
  <wgt id="308">7.35734e-12</wgt>
  <wgt id="309">7.34679e-12</wgt>
  <wgt id="310">7.40119e-12</wgt>
  <wgt id="311">7.30451e-12</wgt>
  <wgt id="312">7.36269e-12</wgt>
  <wgt id="313">7.33824e-12</wgt>
  <wgt id="314">7.34328e-12</wgt>
  <wgt id="315">7.35831e-12</wgt>
  <wgt id="316">7.34147e-12</wgt>
  <wgt id="317">7.37143e-12</wgt>
  <wgt id="318">7.35626e-12</wgt>
  <wgt id="319">7.34125e-12</wgt>
  <wgt id="320">7.3743e-12</wgt>
  <wgt id="321">7.33838e-12</wgt>
  <wgt id="322">7.32243e-12</wgt>
  <wgt id="323">7.38435e-12</wgt>
  <wgt id="324">7.34151e-12</wgt>
  <wgt id="325">7.35921e-12</wgt>
  <wgt id="326">7.30089e-12</wgt>
  <wgt id="327">7.41534e-12</wgt>
  <wgt id="328">7.31662e-12</wgt>
  <wgt id="329">7.36924e-12</wgt>
  <wgt id="330">7.55449e-12</wgt>
  <wgt id="331">7.15809e-12</wgt>
  <wgt id="332">7.31479e-12</wgt>
  <wgt id="333">7.37019e-12</wgt>
  <wgt id="334">7.14491e-12</wgt>
  <wgt id="335">7.61218e-12</wgt>
  <wgt id="336">7.03323e-12</wgt>
  <wgt id="337">7.75217e-12</wgt>
  <wgt id="338">7.45231e-12</wgt>
  <wgt id="339">7.25883e-12</wgt>
  <wgt id="340">7.41032e-12</wgt>
  <wgt id="341">7.21025e-12</wgt>
  <wgt id="342">7.32924e-12</wgt>
  <wgt id="343">7.32325e-12</wgt>
  <wgt id="344">7.28754e-12</wgt>
  <wgt id="345">7.42467e-12</wgt>
  <wgt id="346">7.16889e-12</wgt>
  <wgt id="347">7.55845e-12</wgt>
  <wgt id="348">7.31206e-12</wgt>
  <wgt id="349">7.39622e-12</wgt>
  <wgt id="350">7.31802e-12</wgt>
  <wgt id="351">7.43527e-12</wgt>
  <wgt id="352">7.15052e-12</wgt>
  <wgt id="353">7.7725e-12</wgt>
  <wgt id="354">7.19881e-12</wgt>
  <wgt id="355">7.4391e-12</wgt>
  <wgt id="356">7.51591e-12</wgt>
  <wgt id="357">7.33039e-12</wgt>
  <wgt id="358">7.35069e-12</wgt>
  <wgt id="359">7.48298e-12</wgt>
  <wgt id="360">7.73652e-12</wgt>
  <wgt id="361">7.57139e-12</wgt>
  <wgt id="362">7.74797e-12</wgt>
  <wgt id="363">7.72579e-12</wgt>
  <wgt id="364">7.67478e-12</wgt>
  <wgt id="365">7.6417e-12</wgt>
  <wgt id="366">7.61e-12</wgt>
  <wgt id="367">7.5546e-12</wgt>
  <wgt id="368">7.51414e-12</wgt>
  <wgt id="369">7.4702e-12</wgt>
  <wgt id="370">7.57139e-12</wgt>
  <wgt id="371">7.59958e-12</wgt>
  <wgt id="372">7.58325e-12</wgt>
  <wgt id="373">7.56199e-12</wgt>
  <wgt id="374">7.58431e-12</wgt>
  <wgt id="375">9.41066e-12</wgt>
  <wgt id="376">9.41047e-12</wgt>
  <wgt id="377">9.41118e-12</wgt>
  <wgt id="378">9.44889e-12</wgt>
  <wgt id="379">9.37312e-12</wgt>
  <wgt id="380">9.43936e-12</wgt>
  <wgt id="381">9.39897e-12</wgt>
  <wgt id="382">9.44677e-12</wgt>
  <wgt id="383">9.37518e-12</wgt>
  <wgt id="384">9.41705e-12</wgt>
  <wgt id="385">9.40488e-12</wgt>
  <wgt id="386">9.43001e-12</wgt>
  <wgt id="387">9.40254e-12</wgt>
  <wgt id="388">9.40382e-12</wgt>
  <wgt id="389">9.41895e-12</wgt>
  <wgt id="390">9.4265e-12</wgt>
  <wgt id="391">9.39422e-12</wgt>
  <wgt id="392">9.31685e-12</wgt>
  <wgt id="393">9.4639e-12</wgt>
  <wgt id="394">9.41062e-12</wgt>
  <wgt id="395">9.41093e-12</wgt>
  <wgt id="396">9.43513e-12</wgt>
  <wgt id="397">9.39339e-12</wgt>
  <wgt id="398">9.41633e-12</wgt>
  <wgt id="399">9.40539e-12</wgt>
  <wgt id="400">9.39634e-12</wgt>
  <wgt id="401">9.44268e-12</wgt>
  <wgt id="402">9.30438e-12</wgt>
  <wgt id="403">9.49842e-12</wgt>
  <wgt id="404">9.75498e-12</wgt>
  <wgt id="405">8.60435e-12</wgt>
  <wgt id="406">9.16093e-12</wgt>
  <wgt id="407">9.97556e-12</wgt>
  <wgt id="408">9.54119e-12</wgt>
  <wgt id="409">9.17481e-12</wgt>
  <wgt id="410">9.01153e-12</wgt>
  <wgt id="411">9.60811e-12</wgt>
  <wgt id="412">9.38359e-12</wgt>
  <wgt id="413">9.44802e-12</wgt>
  <wgt id="414">9.25316e-12</wgt>
  <wgt id="415">9.5331e-12</wgt>
  <wgt id="416">9.83016e-12</wgt>
  <wgt id="417">8.84208e-12</wgt>
  <wgt id="418">9.43734e-12</wgt>
  <wgt id="419">9.26638e-12</wgt>
  <wgt id="420">9.75654e-12</wgt>
  <wgt id="421">9.16732e-12</wgt>
  <wgt id="422">9.29645e-12</wgt>
  <wgt id="423">9.46132e-12</wgt>
  <wgt id="424">9.81423e-12</wgt>
  <wgt id="425">9.127e-12</wgt>
  <wgt id="426">9.41066e-12</wgt>
  <wgt id="427">9.09175e-12</wgt>
  <wgt id="428">1.00792e-11</wgt>
  <wgt id="429">9.5954e-12</wgt>
  <wgt id="430">9.98779e-12</wgt>
  <wgt id="431">9.90465e-12</wgt>
  <wgt id="432">9.83422e-12</wgt>
  <wgt id="433">9.76392e-12</wgt>
  <wgt id="434">9.67049e-12</wgt>
  <wgt id="435">9.50218e-12</wgt>
  <wgt id="436">9.41944e-12</wgt>
  <wgt id="437">9.33601e-12</wgt>
  <wgt id="438">9.5954e-12</wgt>
  <wgt id="439">9.62208e-12</wgt>
  <wgt id="440">9.60381e-12</wgt>
  <wgt id="441">9.59074e-12</wgt>
  <wgt id="442">9.5876e-12</wgt>
  <wgt id="443">7.85266e-12</wgt>
  <wgt id="444">7.97527e-12</wgt>
  <wgt id="445">8.04153e-12</wgt>
  <wgt id="446">7.79879e-12</wgt>
  <wgt id="447">7.85245e-12</wgt>
  <wgt id="448">7.68714e-12</wgt>
  <wgt id="449">8.08808e-12</wgt>
  <wgt id="450">8.05073e-12</wgt>
  <wgt id="451">7.82686e-12</wgt>
  <wgt id="452">8.01443e-12</wgt>
  <wgt id="453">8.0227e-12</wgt>
  <wgt id="454">7.34945e-12</wgt>
  <wgt id="455">7.97506e-12</wgt>
  <wgt id="456">8.1225e-12</wgt>
  <wgt id="457">7.87459e-12</wgt>
  <wgt id="458">8.03452e-12</wgt>
  <wgt id="459">7.92762e-12</wgt>
  <wgt id="460">8.13112e-12</wgt>
  <wgt id="461">7.6184e-12</wgt>
  <wgt id="462">7.79374e-12</wgt>
  <wgt id="463">7.69436e-12</wgt>
  <wgt id="464">7.82034e-12</wgt>
  <wgt id="465">7.93253e-12</wgt>
  <wgt id="466">7.53111e-12</wgt>
  <wgt id="467">7.8103e-12</wgt>
  <wgt id="468">7.87256e-12</wgt>
  <wgt id="469">7.82237e-12</wgt>
  <wgt id="470">7.67711e-12</wgt>
  <wgt id="471">7.71288e-12</wgt>
  <wgt id="472">7.92918e-12</wgt>
  <wgt id="473">7.56349e-12</wgt>
  <wgt id="474">5.79e-12</wgt>
  <wgt id="475">5.85066e-12</wgt>
  <wgt id="476">5.90984e-12</wgt>
  <wgt id="477">6.148e-12</wgt>
  <wgt id="478">6.08478e-12</wgt>
  <wgt id="479">5.14814e-12</wgt>
  <wgt id="480">6.30718e-12</wgt>
  <wgt id="481">5.91473e-12</wgt>
  <wgt id="482">6.10136e-12</wgt>
  <wgt id="483">6.39511e-12</wgt>
  <wgt id="484">6.17794e-12</wgt>
  <wgt id="485">5.0813e-12</wgt>
  <wgt id="486">6.11881e-12</wgt>
  <wgt id="487">5.43167e-12</wgt>
  <wgt id="488">5.62712e-12</wgt>
  <wgt id="489">4.70077e-12</wgt>
  <wgt id="490">5.89025e-12</wgt>
  <wgt id="491">5.65959e-12</wgt>
  <wgt id="492">5.70572e-12</wgt>
  <wgt id="493">4.94688e-12</wgt>
  <wgt id="494">4.91025e-12</wgt>
  <wgt id="495">6.03816e-12</wgt>
  <wgt id="496">5.15579e-12</wgt>
  <wgt id="497">5.27165e-12</wgt>
  <wgt id="498">5.91018e-12</wgt>
  <wgt id="499">5.99136e-12</wgt>
  <wgt id="500">6.09246e-12</wgt>
  <wgt id="501">6.16693e-12</wgt>
  <wgt id="502">6.56609e-12</wgt>
  <wgt id="503">5.57543e-12</wgt>
  <wgt id="504">6.05441e-12</wgt>
  <wgt id="505">6.32201e-12</wgt>
  <wgt id="506">4.86399e-12</wgt>
  <wgt id="507">5.32551e-12</wgt>
  <wgt id="508">6.1856e-12</wgt>
  <wgt id="509">5.83008e-12</wgt>
  <wgt id="510">5.65167e-12</wgt>
  <wgt id="511">5.40585e-12</wgt>
  <wgt id="512">6.46104e-12</wgt>
  <wgt id="513">6.34778e-12</wgt>
  <wgt id="514">6.56384e-12</wgt>
  <wgt id="515">6.43651e-12</wgt>
  <wgt id="516">6.76434e-12</wgt>
  <wgt id="517">5.93244e-12</wgt>
  <wgt id="518">6.27292e-12</wgt>
  <wgt id="519">5.60127e-12</wgt>
  <wgt id="520">5.58053e-12</wgt>
  <wgt id="521">5.31517e-12</wgt>
  <wgt id="522">5.84464e-12</wgt>
  <wgt id="523">5.50224e-12</wgt>
  <wgt id="524">6.16106e-12</wgt>
  <wgt id="525">5.48568e-12</wgt>
  <wgt id="526">6.44158e-12</wgt>
  <wgt id="527">5.69003e-12</wgt>
  <wgt id="528">5.52477e-12</wgt>
  <wgt id="529">4.98002e-12</wgt>
  <wgt id="530">6.32418e-12</wgt>
  <wgt id="531">5.40892e-12</wgt>
  <wgt id="532">6.32268e-12</wgt>
  <wgt id="533">6.10584e-12</wgt>
  <wgt id="534">5.21142e-12</wgt>
  <wgt id="535">6.14576e-12</wgt>
  <wgt id="536">6.25602e-12</wgt>
  <wgt id="537">5.13182e-12</wgt>
  <wgt id="538">5.66792e-12</wgt>
  <wgt id="539">5.65113e-12</wgt>
  <wgt id="540">5.77931e-12</wgt>
  <wgt id="541">5.74537e-12</wgt>
  <wgt id="542">5.369e-12</wgt>
  <wgt id="543">5.28025e-12</wgt>
  <wgt id="544">5.69148e-12</wgt>
  <wgt id="545">5.21011e-12</wgt>
  <wgt id="546">5.07296e-12</wgt>
  <wgt id="547">5.38546e-12</wgt>
  <wgt id="548">5.87598e-12</wgt>
  <wgt id="549">5.68052e-12</wgt>
  <wgt id="550">5.07476e-12</wgt>
  <wgt id="551">5.56236e-12</wgt>
  <wgt id="552">5.64097e-12</wgt>
  <wgt id="553">5.00518e-12</wgt>
  <wgt id="554">5.9054e-12</wgt>
  <wgt id="555">5.82467e-12</wgt>
  <wgt id="556">5.89025e-12</wgt>
  <wgt id="557">5.67248e-12</wgt>
  <wgt id="558">5.79641e-12</wgt>
  <wgt id="559">6.09415e-12</wgt>
  <wgt id="560">6.35855e-12</wgt>
  <wgt id="561">6.40393e-12</wgt>
  <wgt id="562">6.08627e-12</wgt>
  <wgt id="563">6.29037e-12</wgt>
  <wgt id="564">6.40476e-12</wgt>
  <wgt id="565">6.60188e-12</wgt>
  <wgt id="566">5.07059e-12</wgt>
  <wgt id="567">5.98627e-12</wgt>
  <wgt id="568">5.20157e-12</wgt>
  <wgt id="569">5.94644e-12</wgt>
  <wgt id="570">6.26708e-12</wgt>
  <wgt id="571">6.52984e-12</wgt>
  <wgt id="572">5.31922e-12</wgt>
  <wgt id="573">5.64462e-12</wgt>
  <wgt id="574">5.78495e-12</wgt>
  <wgt id="575">6.30575e-12</wgt>
  <wgt id="576">7.28692e-12</wgt>
  <wgt id="577">6.28613e-12</wgt>
  <wgt id="578">5.91482e-12</wgt>
  <wgt id="579">6.58108e-12</wgt>
  <wgt id="580">6.5309e-12</wgt>
  <wgt id="581">6.98961e-12</wgt>
  <wgt id="582">7.01302e-12</wgt>
  <wgt id="583">6.7512e-12</wgt>
  <wgt id="584">6.30719e-12</wgt>
  <wgt id="585">5.57099e-12</wgt>
  <wgt id="586">5.80077e-12</wgt>
  <wgt id="587">6.48029e-12</wgt>
  <wgt id="588">7.7699e-12</wgt>
  <wgt id="589">7.45198e-12</wgt>
  <wgt id="590">6.47605e-12</wgt>
  <wgt id="591">6.53165e-12</wgt>
  <wgt id="592">6.11828e-12</wgt>
  <wgt id="593">5.99919e-12</wgt>
  <wgt id="594">5.76692e-12</wgt>
  <wgt id="595">7.19604e-12</wgt>
  <wgt id="596">7.2911e-12</wgt>
  <wgt id="597">6.48532e-12</wgt>
  <wgt id="598">6.82702e-12</wgt>
  <wgt id="599">7.06036e-12</wgt>
  <wgt id="600">7.58915e-12</wgt>
  <wgt id="601">5.9643e-12</wgt>
  <wgt id="602">5.78363e-12</wgt>
  <wgt id="603">5.50104e-12</wgt>
  <wgt id="604">6.7716e-12</wgt>
  <wgt id="605">6.07935e-12</wgt>
  <wgt id="606">6.09397e-12</wgt>
  <wgt id="607">6.97548e-12</wgt>
  <wgt id="608">6.52659e-12</wgt>
  <wgt id="609">6.09114e-12</wgt>
  <wgt id="610">5.7781e-12</wgt>
  <wgt id="611">5.70001e-12</wgt>
  <wgt id="612">6.18721e-12</wgt>
  <wgt id="613">5.75993e-12</wgt>
  <wgt id="614">6.38928e-12</wgt>
  <wgt id="615">6.83414e-12</wgt>
  <wgt id="616">5.32151e-12</wgt>
  <wgt id="617">6.6713e-12</wgt>
  <wgt id="618">7.07511e-12</wgt>
  <wgt id="619">6.17218e-12</wgt>
  <wgt id="620">6.40619e-12</wgt>
  <wgt id="621">6.21703e-12</wgt>
  <wgt id="622">6.48029e-12</wgt>
  <wgt id="623">6.15544e-12</wgt>
  <wgt id="624">6.18929e-12</wgt>
  <wgt id="625">5.86258e-12</wgt>
  <wgt id="626">4.60218e-12</wgt>
  <wgt id="627">5.33204e-12</wgt>
  <wgt id="628">6.26023e-12</wgt>
  <wgt id="629">7.60891e-12</wgt>
  <wgt id="630">6.29402e-12</wgt>
  <wgt id="631">6.85025e-12</wgt>
  <wgt id="632">5.62262e-12</wgt>
  <wgt id="633">6.24681e-12</wgt>
  <wgt id="634">5.762e-12</wgt>
  <wgt id="635">5.81879e-12</wgt>
  <wgt id="636">6.11054e-12</wgt>
  <wgt id="637">6.50648e-12</wgt>
  <wgt id="638">5.84038e-12</wgt>
  <wgt id="639">5.70437e-12</wgt>
  <wgt id="640">5.81889e-12</wgt>
  <wgt id="641">6.85551e-12</wgt>
  <wgt id="642">5.14391e-12</wgt>
  <wgt id="643">5.98194e-12</wgt>
  <wgt id="644">5.76399e-12</wgt>
  <wgt id="645">6.39242e-12</wgt>
  <wgt id="646">5.12043e-12</wgt>
  <wgt id="647">6.83142e-12</wgt>
  <wgt id="648">6.99864e-12</wgt>
  <wgt id="649">6.4755e-12</wgt>
  <wgt id="650">6.29625e-12</wgt>
  <wgt id="651">6.67847e-12</wgt>
  <wgt id="652">5.83649e-12</wgt>
  <wgt id="653">5.94171e-12</wgt>
  <wgt id="654">6.27764e-12</wgt>
  <wgt id="655">5.61423e-12</wgt>
  <wgt id="656">6.51102e-12</wgt>
  <wgt id="657">7.15838e-12</wgt>
  <wgt id="658">6.04367e-12</wgt>
  <wgt id="659">6.12923e-12</wgt>
  <wgt id="660">5.64219e-12</wgt>
  <wgt id="661">5.97943e-12</wgt>
  <wgt id="662">6.28166e-12</wgt>
  <wgt id="663">6.63701e-12</wgt>
  <wgt id="664">6.78234e-12</wgt>
  <wgt id="665">6.02466e-12</wgt>
  <wgt id="666">6.04153e-12</wgt>
  <wgt id="667">6.69439e-12</wgt>
  <wgt id="668">6.10861e-12</wgt>
  <wgt id="669">6.01287e-12</wgt>
  <wgt id="670">6.83087e-12</wgt>
  <wgt id="671">6.54412e-12</wgt>
  <wgt id="672">6.70391e-12</wgt>
  <wgt id="673">7.17568e-12</wgt>
  <wgt id="674">5.97257e-12</wgt>
  <wgt id="675">5.78776e-12</wgt>
  <wgt id="676">8.36731e-12</wgt>
  <wgt id="677">8.33941e-12</wgt>
  <wgt id="678">9.71623e-12</wgt>
  <wgt id="679">9.653e-12</wgt>
  <wgt id="680">8.59741e-12</wgt>
  <wgt id="681">7.89472e-12</wgt>
  <wgt id="682">9.09595e-12</wgt>
  <wgt id="683">7.08925e-12</wgt>
  <wgt id="684">9.27874e-12</wgt>
  <wgt id="685">8.70169e-12</wgt>
  <wgt id="686">9.03611e-12</wgt>
  <wgt id="687">8.28092e-12</wgt>
  <wgt id="688">8.1753e-12</wgt>
  <wgt id="689">9.26131e-12</wgt>
  <wgt id="690">8.76179e-12</wgt>
  <wgt id="691">8.65635e-12</wgt>
  <wgt id="692">7.91098e-12</wgt>
  <wgt id="693">1.29989e-11</wgt>
  <wgt id="694">9.77206e-12</wgt>
  <wgt id="695">7.2223e-12</wgt>
  <wgt id="696">7.48898e-12</wgt>
  <wgt id="697">6.71535e-12</wgt>
  <wgt id="698">5.96292e-12</wgt>
  <wgt id="699">6.8125e-12</wgt>
  <wgt id="700">7.17474e-12</wgt>
  <wgt id="701">8.41088e-12</wgt>
  <wgt id="702">7.57683e-12</wgt>
  <wgt id="703">1.18434e-11</wgt>
  <wgt id="704">9.74569e-12</wgt>
  <wgt id="705">9.49765e-12</wgt>
  <wgt id="706">7.19514e-12</wgt>
  <wgt id="707">7.4973e-12</wgt>
  <wgt id="708">7.38451e-12</wgt>
  <wgt id="709">7.74255e-12</wgt>
  <wgt id="710">5.33058e-12</wgt>
  <wgt id="711">9.66969e-12</wgt>
  <wgt id="712">7.6201e-12</wgt>
  <wgt id="713">9.07837e-12</wgt>
  <wgt id="714">6.7335e-12</wgt>
  <wgt id="715">7.48523e-12</wgt>
  <wgt id="716">7.83446e-12</wgt>
  <wgt id="717">6.33539e-12</wgt>
  <wgt id="718">8.57743e-12</wgt>
  <wgt id="719">7.75679e-12</wgt>
  <wgt id="720">9.08645e-12</wgt>
  <wgt id="721">6.81515e-12</wgt>
  <wgt id="722">5.15339e-12</wgt>
  <wgt id="723">1.03445e-11</wgt>
  <wgt id="724">9.50448e-12</wgt>
  <wgt id="725">8.93885e-12</wgt>
  <wgt id="726">8.23047e-12</wgt>
  <wgt id="727">8.65848e-12</wgt>
  <wgt id="728">8.97507e-12</wgt>
  <wgt id="729">6.41875e-12</wgt>
  <wgt id="730">9.88047e-12</wgt>
  <wgt id="731">8.32956e-12</wgt>
  <wgt id="732">1.02695e-11</wgt>
  <wgt id="733">7.35098e-12</wgt>
  <wgt id="734">8.81845e-12</wgt>
  <wgt id="735">7.8448e-12</wgt>
  <wgt id="736">7.2656e-12</wgt>
  <wgt id="737">6.01909e-12</wgt>
  <wgt id="738">7.73904e-12</wgt>
  <wgt id="739">8.45438e-12</wgt>
  <wgt id="740">1.09962e-11</wgt>
  <wgt id="741">9.82794e-12</wgt>
  <wgt id="742">6.99354e-12</wgt>
  <wgt id="743">7.41875e-12</wgt>
  <wgt id="744">7.90251e-12</wgt>
  <wgt id="745">9.91014e-12</wgt>
  <wgt id="746">1.02739e-11</wgt>
  <wgt id="747">6.40813e-12</wgt>
  <wgt id="748">7.77994e-12</wgt>
  <wgt id="749">9.06647e-12</wgt>
  <wgt id="750">9.40674e-12</wgt>
  <wgt id="751">8.5765e-12</wgt>
  <wgt id="752">7.20025e-12</wgt>
  <wgt id="753">7.01069e-12</wgt>
  <wgt id="754">8.78549e-12</wgt>
  <wgt id="755">7.80423e-12</wgt>
  <wgt id="756">7.78773e-12</wgt>
  <wgt id="757">6.66634e-12</wgt>
  <wgt id="758">8.06143e-12</wgt>
  <wgt id="759">9.11438e-12</wgt>
  <wgt id="760">7.4195e-12</wgt>
  <wgt id="761">1.00562e-11</wgt>
  <wgt id="762">1.0178e-11</wgt>
  <wgt id="763">9.5685e-12</wgt>
  <wgt id="764">9.57941e-12</wgt>
  <wgt id="765">8.7359e-12</wgt>
  <wgt id="766">8.8941e-12</wgt>
  <wgt id="767">8.78349e-12</wgt>
  <wgt id="768">7.18026e-12</wgt>
  <wgt id="769">8.6676e-12</wgt>
  <wgt id="770">6.73152e-12</wgt>
  <wgt id="771">1.13184e-11</wgt>
  <wgt id="772">7.92055e-12</wgt>
  <wgt id="773">8.80828e-12</wgt>
  <wgt id="774">6.14545e-12</wgt>
  <wgt id="775">8.99428e-12</wgt>
  <wgt id="776">1.12846e-11</wgt>
  <wgt id="777">6.17788e-12</wgt>
  <wgt id="778">4.30697e-12</wgt>
  <wgt id="779">9.63078e-13</wgt>
  <wgt id="780">3.95016e-20</wgt>
  <wgt id="781">4.39731e-12</wgt>
  <wgt id="782">5.41122e-12</wgt>
  <wgt id="783">3.99362e-20</wgt>
  <wgt id="784">9.65991e-13</wgt>
  <wgt id="785">8.0477e-12</wgt>
  <wgt id="786">3.92411e-20</wgt>
  <wgt id="787">7.07613e-12</wgt>
  <wgt id="788">3.83466e-20</wgt>
  <wgt id="789">7.1393e-13</wgt>
  <wgt id="790">3.92391e-20</wgt>
  <wgt id="791">5.28594e-12</wgt>
  <wgt id="792">6.27183e-12</wgt>
  <wgt id="793">2.65741e-12</wgt>
  <wgt id="794">3.92731e-20</wgt>
  <wgt id="795">7.76997e-12</wgt>
  <wgt id="796">7.92218e-12</wgt>
  <wgt id="797">6.50423e-12</wgt>
  <wgt id="798">1.87997e-12</wgt>
  <wgt id="799">7.40924e-12</wgt>
  <wgt id="800">1.97065e-12</wgt>
  <wgt id="801">5.91709e-12</wgt>
  <wgt id="802">4.00697e-20</wgt>
  <wgt id="803">8.00692e-12</wgt>
  <wgt id="804">8.08099e-12</wgt>
  <wgt id="805">7.57714e-12</wgt>
  <wgt id="806">5.68668e-12</wgt>
  <wgt id="807">4.4338e-12</wgt>
  <wgt id="808">4.76592e-12</wgt>
  <wgt id="809">3.18309e-12</wgt>
  <wgt id="810">9.00091e-12</wgt>
  <wgt id="811">4.95985e-12</wgt>
  <wgt id="812">3.99131e-20</wgt>
  <wgt id="813">3.93454e-20</wgt>
  <wgt id="814">1.69542e-12</wgt>
  <wgt id="815">3.96889e-20</wgt>
  <wgt id="816">5.34905e-13</wgt>
  <wgt id="817">4.94824e-12</wgt>
  <wgt id="818">7.40086e-12</wgt>
  <wgt id="819">7.92658e-13</wgt>
  <wgt id="820">3.36937e-12</wgt>
  <wgt id="821">6.27843e-12</wgt>
  <wgt id="822">2.39993e-12</wgt>
  <wgt id="823">7.2523e-12</wgt>
  <wgt id="824">7.2403e-12</wgt>
  <wgt id="825">3.92177e-20</wgt>
  <wgt id="826">7.68799e-12</wgt>
  <wgt id="827">3.94334e-20</wgt>
  <wgt id="828">6.23167e-12</wgt>
  <wgt id="829">4.7204e-12</wgt>
  <wgt id="830">3.93212e-20</wgt>
  <wgt id="831">6.48317e-12</wgt>
  <wgt id="832">1.03662e-11</wgt>
  <wgt id="833">2.44538e-12</wgt>
  <wgt id="834">1.05072e-11</wgt>
  <wgt id="835">1.06531e-12</wgt>
  <wgt id="836">1.95803e-12</wgt>
  <wgt id="837">6.14593e-12</wgt>
  <wgt id="838">1.80822e-12</wgt>
  <wgt id="839">6.91693e-12</wgt>
  <wgt id="840">3.26961e-12</wgt>
  <wgt id="841">7.49381e-12</wgt>
  <wgt id="842">4.81816e-12</wgt>
  <wgt id="843">4.43721e-12</wgt>
  <wgt id="844">5.99853e-12</wgt>
  <wgt id="845">1.09503e-11</wgt>
  <wgt id="846">2.60667e-12</wgt>
  <wgt id="847">5.45914e-12</wgt>
  <wgt id="848">4.04904e-20</wgt>
  <wgt id="849">5.98736e-12</wgt>
  <wgt id="850">9.51576e-12</wgt>
  <wgt id="851">6.37299e-12</wgt>
  <wgt id="852">3.98865e-20</wgt>
  <wgt id="853">6.71881e-12</wgt>
  <wgt id="854">8.47734e-12</wgt>
  <wgt id="855">6.17738e-12</wgt>
  <wgt id="856">3.92167e-20</wgt>
  <wgt id="857">2.34252e-12</wgt>
  <wgt id="858">4.9384e-12</wgt>
  <wgt id="859">4.14451e-12</wgt>
  <wgt id="860">5.94527e-12</wgt>
  <wgt id="861">2.26473e-12</wgt>
  <wgt id="862">5.0632e-12</wgt>
  <wgt id="863">6.27917e-12</wgt>
  <wgt id="864">4.40499e-12</wgt>
  <wgt id="865">9.53402e-12</wgt>
  <wgt id="866">1.01332e-11</wgt>
  <wgt id="867">4.41103e-12</wgt>
  <wgt id="868">5.63774e-12</wgt>
  <wgt id="869">3.95272e-20</wgt>
  <wgt id="870">1.5645e-12</wgt>
  <wgt id="871">2.66866e-12</wgt>
  <wgt id="872">9.30703e-12</wgt>
  <wgt id="873">2.50282e-12</wgt>
  <wgt id="874">5.84257e-12</wgt>
  <wgt id="875">1.61315e-12</wgt>
  <wgt id="876">8.41623e-12</wgt>
  <wgt id="877">5.85371e-12</wgt>
  <wgt id="878">2.40588e-12</wgt>
  <wgt id="879">8.36731e-12</wgt>
  <wgt id="880">8.33941e-12</wgt>
  <wgt id="881">9.71623e-12</wgt>
  <wgt id="882">9.653e-12</wgt>
  <wgt id="883">8.59741e-12</wgt>
  <wgt id="884">7.89472e-12</wgt>
  <wgt id="885">9.09595e-12</wgt>
  <wgt id="886">7.08925e-12</wgt>
  <wgt id="887">9.27874e-12</wgt>
  <wgt id="888">8.70169e-12</wgt>
  <wgt id="889">9.03611e-12</wgt>
  <wgt id="890">8.28092e-12</wgt>
  <wgt id="891">8.1753e-12</wgt>
  <wgt id="892">9.26131e-12</wgt>
  <wgt id="893">8.76179e-12</wgt>
  <wgt id="894">8.65635e-12</wgt>
  <wgt id="895">7.91098e-12</wgt>
  <wgt id="896">1.29989e-11</wgt>
  <wgt id="897">9.77206e-12</wgt>
  <wgt id="898">7.2223e-12</wgt>
  <wgt id="899">7.48898e-12</wgt>
  <wgt id="900">6.71535e-12</wgt>
  <wgt id="901">5.96292e-12</wgt>
  <wgt id="902">6.8125e-12</wgt>
  <wgt id="903">7.17474e-12</wgt>
  <wgt id="904">8.41088e-12</wgt>
  <wgt id="905">7.57683e-12</wgt>
  <wgt id="906">1.18434e-11</wgt>
  <wgt id="907">9.74569e-12</wgt>
  <wgt id="908">9.49765e-12</wgt>
  <wgt id="909">7.19514e-12</wgt>
  <wgt id="910">7.4973e-12</wgt>
  <wgt id="911">7.38451e-12</wgt>
  <wgt id="912">7.74255e-12</wgt>
  <wgt id="913">5.33058e-12</wgt>
  <wgt id="914">9.66969e-12</wgt>
  <wgt id="915">7.6201e-12</wgt>
  <wgt id="916">9.07837e-12</wgt>
  <wgt id="917">6.7335e-12</wgt>
  <wgt id="918">7.48523e-12</wgt>
  <wgt id="919">7.83446e-12</wgt>
  <wgt id="920">6.33539e-12</wgt>
  <wgt id="921">8.57743e-12</wgt>
  <wgt id="922">7.75679e-12</wgt>
  <wgt id="923">9.08645e-12</wgt>
  <wgt id="924">6.81515e-12</wgt>
  <wgt id="925">5.15339e-12</wgt>
  <wgt id="926">1.03445e-11</wgt>
  <wgt id="927">9.50448e-12</wgt>
  <wgt id="928">8.93885e-12</wgt>
  <wgt id="929">8.23047e-12</wgt>
  <wgt id="930">8.65848e-12</wgt>
  <wgt id="931">8.97507e-12</wgt>
  <wgt id="932">6.41875e-12</wgt>
  <wgt id="933">9.88047e-12</wgt>
  <wgt id="934">8.32956e-12</wgt>
  <wgt id="935">1.02695e-11</wgt>
  <wgt id="936">7.35098e-12</wgt>
  <wgt id="937">8.81845e-12</wgt>
  <wgt id="938">7.8448e-12</wgt>
  <wgt id="939">7.2656e-12</wgt>
  <wgt id="940">6.01909e-12</wgt>
  <wgt id="941">7.73904e-12</wgt>
  <wgt id="942">8.45438e-12</wgt>
  <wgt id="943">1.09962e-11</wgt>
  <wgt id="944">9.82794e-12</wgt>
  <wgt id="945">6.99354e-12</wgt>
  <wgt id="946">7.41875e-12</wgt>
  <wgt id="947">7.90251e-12</wgt>
  <wgt id="948">9.91014e-12</wgt>
  <wgt id="949">1.02739e-11</wgt>
  <wgt id="950">6.40813e-12</wgt>
  <wgt id="951">7.77994e-12</wgt>
  <wgt id="952">9.06647e-12</wgt>
  <wgt id="953">9.40674e-12</wgt>
  <wgt id="954">8.5765e-12</wgt>
  <wgt id="955">7.20025e-12</wgt>
  <wgt id="956">7.01069e-12</wgt>
  <wgt id="957">8.78549e-12</wgt>
  <wgt id="958">7.80423e-12</wgt>
  <wgt id="959">7.78773e-12</wgt>
  <wgt id="960">6.66634e-12</wgt>
  <wgt id="961">8.06143e-12</wgt>
  <wgt id="962">9.11438e-12</wgt>
  <wgt id="963">7.4195e-12</wgt>
  <wgt id="964">1.00562e-11</wgt>
  <wgt id="965">1.0178e-11</wgt>
  <wgt id="966">9.5685e-12</wgt>
  <wgt id="967">9.57941e-12</wgt>
  <wgt id="968">8.7359e-12</wgt>
  <wgt id="969">8.8941e-12</wgt>
  <wgt id="970">8.78349e-12</wgt>
  <wgt id="971">7.18026e-12</wgt>
  <wgt id="972">8.6676e-12</wgt>
  <wgt id="973">6.73152e-12</wgt>
  <wgt id="974">1.13184e-11</wgt>
  <wgt id="975">7.92055e-12</wgt>
  <wgt id="976">8.80828e-12</wgt>
  <wgt id="977">6.14545e-12</wgt>
  <wgt id="978">8.99428e-12</wgt>
  <wgt id="979">1.12846e-11</wgt>
  <wgt id="980">8.2797e-12</wgt>
  <wgt id="981">8.83565e-12</wgt>
  <wgt id="982">8.24925e-12</wgt>
</rwgt>
</event>
<event>
 5   1  0.5790000E-11  0.2179972E+04  0.7818608E-02  0.7756455E-01
       21   -1    0    0  502  501  0.00000000000E+00  0.00000000000E+00  0.17085846521E+04  0.17085846521E+04  0.00000000000E+00 0. -1.
       21   -1    0    0  501  502 -0.00000000000E+00 -0.00000000000E+00 -0.69535299233E+03  0.69535299233E+03  0.00000000000E+00 0.  1.
       39    2    1    2    0    0  0.00000000000E+00  0.00000000000E+00  0.10132316597E+04  0.24039376444E+04  0.21799719727E+04 0.  0.
       25    1    3    3    0    0  0.82932535088E+03 -0.46931317070E+03  0.10736515983E+04  0.14409677805E+04  0.12500000000E+03 0.  0.
       25    1    3    3    0    0 -0.82932535088E+03  0.46931317070E+03 -0.60419938596E+02  0.96296986391E+03  0.12500000000E+03 0.  0.
<mgrwt>
<rscale>  0 0.21799720E+04</rscale>
<asrwt>0</asrwt>
<pdfrwt beam="1">  1       21 0.26285918E+00 0.21799720E+04</pdfrwt>
<pdfrwt beam="2">  1       21 0.10697738E+00 0.21799720E+04</pdfrwt>
<totfact> 0.14917354E+01</totfact>
</mgrwt>
<rwgt>
  <wgt id="1">5.79e-12</wgt>
  <wgt id="2">5.04089e-12</wgt>
  <wgt id="3">6.71948e-12</wgt>
  <wgt id="4">5.79e-12</wgt>
  <wgt id="5">5.04089e-12</wgt>
  <wgt id="6">6.71948e-12</wgt>
  <wgt id="7">5.79e-12</wgt>
  <wgt id="8">5.04089e-12</wgt>
  <wgt id="9">6.71948e-12</wgt>
  <wgt id="10">6.01056e-12</wgt>
  <wgt id="11">6.00713e-12</wgt>
  <wgt id="12">6.00117e-12</wgt>
  <wgt id="13">5.99374e-12</wgt>
  <wgt id="14">6.03243e-12</wgt>
  <wgt id="15">6.0209e-12</wgt>
  <wgt id="16">6.00174e-12</wgt>
  <wgt id="17">6.03134e-12</wgt>
  <wgt id="18">6.00082e-12</wgt>
  <wgt id="19">6.02572e-12</wgt>
  <wgt id="20">5.99984e-12</wgt>
  <wgt id="21">5.96612e-12</wgt>
  <wgt id="22">5.97573e-12</wgt>
  <wgt id="23">5.93999e-12</wgt>
  <wgt id="24">5.97399e-12</wgt>
  <wgt id="25">5.99137e-12</wgt>
  <wgt id="26">6.02902e-12</wgt>
  <wgt id="27">6.00499e-12</wgt>
  <wgt id="28">5.97752e-12</wgt>
  <wgt id="29">6.01411e-12</wgt>
  <wgt id="30">5.97621e-12</wgt>
  <wgt id="31">6.0355e-12</wgt>
  <wgt id="32">5.98556e-12</wgt>
  <wgt id="33">6.02138e-12</wgt>
  <wgt id="34">5.98071e-12</wgt>
  <wgt id="35">5.99131e-12</wgt>
  <wgt id="36">6.03325e-12</wgt>
  <wgt id="37">5.99377e-12</wgt>
  <wgt id="38">5.991e-12</wgt>
  <wgt id="39">6.09262e-12</wgt>
  <wgt id="40">6.01512e-12</wgt>
  <wgt id="41">6.00753e-12</wgt>
  <wgt id="42">6.01895e-12</wgt>
  <wgt id="43">6.00944e-12</wgt>
  <wgt id="44">6.01719e-12</wgt>
  <wgt id="45">6.02108e-12</wgt>
  <wgt id="46">6.00467e-12</wgt>
  <wgt id="47">6.02444e-12</wgt>
  <wgt id="48">6.017e-12</wgt>
  <wgt id="49">5.98917e-12</wgt>
  <wgt id="50">5.9992e-12</wgt>
  <wgt id="51">6.00381e-12</wgt>
  <wgt id="52">6.0237e-12</wgt>
  <wgt id="53">6.0005e-12</wgt>
  <wgt id="54">6.01589e-12</wgt>
  <wgt id="55">6.01016e-12</wgt>
  <wgt id="56">6.02787e-12</wgt>
  <wgt id="57">6.01425e-12</wgt>
  <wgt id="58">5.99154e-12</wgt>
  <wgt id="59">6.00147e-12</wgt>
  <wgt id="60">6.00701e-12</wgt>
  <wgt id="61">5.97511e-12</wgt>
  <wgt id="62">5.98952e-12</wgt>
  <wgt id="63">6.00182e-12</wgt>
  <wgt id="64">6.01095e-12</wgt>
  <wgt id="65">6.01449e-12</wgt>
  <wgt id="66">6.00506e-12</wgt>
  <wgt id="67">5.98175e-12</wgt>
  <wgt id="68">6.00918e-12</wgt>
  <wgt id="69">6.01016e-12</wgt>
  <wgt id="70">6.01074e-12</wgt>
  <wgt id="71">6.00676e-12</wgt>
  <wgt id="72">5.98969e-12</wgt>
  <wgt id="73">6.0224e-12</wgt>
  <wgt id="74">6.01556e-12</wgt>
  <wgt id="75">6.00592e-12</wgt>
  <wgt id="76">6.02985e-12</wgt>
  <wgt id="77">6.00642e-12</wgt>
  <wgt id="78">6.00734e-12</wgt>
  <wgt id="79">6.02674e-12</wgt>
  <wgt id="80">5.98223e-12</wgt>
  <wgt id="81">6.00896e-12</wgt>
  <wgt id="82">6.01184e-12</wgt>
  <wgt id="83">5.98637e-12</wgt>
  <wgt id="84">6.00276e-12</wgt>
  <wgt id="85">5.99469e-12</wgt>
  <wgt id="86">6.0293e-12</wgt>
  <wgt id="87">5.97417e-12</wgt>
  <wgt id="88">6.01796e-12</wgt>
  <wgt id="89">6.01527e-12</wgt>
  <wgt id="90">6.02678e-12</wgt>
  <wgt id="91">6.01733e-12</wgt>
  <wgt id="92">6.02306e-12</wgt>
  <wgt id="93">6.01667e-12</wgt>
  <wgt id="94">6.00364e-12</wgt>
  <wgt id="95">6.02537e-12</wgt>
  <wgt id="96">6.01754e-12</wgt>
  <wgt id="97">5.99562e-12</wgt>
  <wgt id="98">6.01243e-12</wgt>
  <wgt id="99">5.99738e-12</wgt>
  <wgt id="100">6.02105e-12</wgt>
  <wgt id="101">6.01231e-12</wgt>
  <wgt id="102">6.00687e-12</wgt>
  <wgt id="103">6.02202e-12</wgt>
  <wgt id="104">6.00564e-12</wgt>
  <wgt id="105">6.02009e-12</wgt>
  <wgt id="106">5.99997e-12</wgt>
  <wgt id="107">6.03247e-12</wgt>
  <wgt id="108">6.00231e-12</wgt>
  <wgt id="109">6.01465e-12</wgt>
  <wgt id="110">6.0095e-12</wgt>
  <wgt id="111">6.04969e-12</wgt>
  <wgt id="112">6.04181e-12</wgt>
  <wgt id="113">8.1983e-12</wgt>
  <wgt id="114">8.17262e-12</wgt>
  <wgt id="115">8.03712e-12</wgt>
  <wgt id="116">1.09433e-11</wgt>
  <wgt id="117">6.61457e-12</wgt>
  <wgt id="118">6.63668e-12</wgt>
  <wgt id="119">6.60196e-12</wgt>
  <wgt id="120">6.61513e-12</wgt>
  <wgt id="121">6.6142e-12</wgt>
  <wgt id="122">6.60317e-12</wgt>
  <wgt id="123">6.63021e-12</wgt>
  <wgt id="124">6.60519e-12</wgt>
  <wgt id="125">6.62054e-12</wgt>
  <wgt id="126">6.62467e-12</wgt>
  <wgt id="127">6.6078e-12</wgt>
  <wgt id="128">6.63499e-12</wgt>
  <wgt id="129">6.59422e-12</wgt>
  <wgt id="130">6.64994e-12</wgt>
  <wgt id="131">6.57798e-12</wgt>
  <wgt id="132">6.44239e-12</wgt>
  <wgt id="133">6.81808e-12</wgt>
  <wgt id="134">6.54557e-12</wgt>
  <wgt id="135">6.66849e-12</wgt>
  <wgt id="136">6.70224e-12</wgt>
  <wgt id="137">6.50879e-12</wgt>
  <wgt id="138">6.87782e-12</wgt>
  <wgt id="139">6.36128e-12</wgt>
  <wgt id="140">6.57475e-12</wgt>
  <wgt id="141">6.64543e-12</wgt>
  <wgt id="142">6.6144e-12</wgt>
  <wgt id="143">6.62779e-12</wgt>
  <wgt id="144">6.40987e-12</wgt>
  <wgt id="145">6.80683e-12</wgt>
  <wgt id="146">6.67891e-12</wgt>
  <wgt id="147">6.56301e-12</wgt>
  <wgt id="148">6.63574e-12</wgt>
  <wgt id="149">6.61306e-12</wgt>
  <wgt id="150">6.66998e-12</wgt>
  <wgt id="151">6.58858e-12</wgt>
  <wgt id="152">6.61684e-12</wgt>
  <wgt id="153">6.61375e-12</wgt>
  <wgt id="154">6.65576e-12</wgt>
  <wgt id="155">6.56086e-12</wgt>
  <wgt id="156">6.76643e-12</wgt>
  <wgt id="157">6.46152e-12</wgt>
  <wgt id="158">7.95301e-12</wgt>
  <wgt id="159">7.98624e-12</wgt>
  <wgt id="160">7.92606e-12</wgt>
  <wgt id="161">7.93396e-12</wgt>
  <wgt id="162">7.97379e-12</wgt>
  <wgt id="163">7.94444e-12</wgt>
  <wgt id="164">7.96491e-12</wgt>
  <wgt id="165">7.95593e-12</wgt>
  <wgt id="166">7.95044e-12</wgt>
  <wgt id="167">7.94713e-12</wgt>
  <wgt id="168">7.96089e-12</wgt>
  <wgt id="169">7.919e-12</wgt>
  <wgt id="170">7.974e-12</wgt>
  <wgt id="171">7.9456e-12</wgt>
  <wgt id="172">7.96271e-12</wgt>
  <wgt id="173">7.94742e-12</wgt>
  <wgt id="174">7.95463e-12</wgt>
  <wgt id="175">7.73371e-12</wgt>
  <wgt id="176">8.23815e-12</wgt>
  <wgt id="177">7.99155e-12</wgt>
  <wgt id="178">7.91738e-12</wgt>
  <wgt id="179">8.29841e-12</wgt>
  <wgt id="180">7.41063e-12</wgt>
  <wgt id="181">7.7176e-12</wgt>
  <wgt id="182">8.1087e-12</wgt>
  <wgt id="183">7.8095e-12</wgt>
  <wgt id="184">8.02381e-12</wgt>
  <wgt id="185">7.88078e-12</wgt>
  <wgt id="186">8.03878e-12</wgt>
  <wgt id="187">7.87576e-12</wgt>
  <wgt id="188">8.09e-12</wgt>
  <wgt id="189">7.89944e-12</wgt>
  <wgt id="190">7.97451e-12</wgt>
  <wgt id="191">7.97637e-12</wgt>
  <wgt id="192">7.93872e-12</wgt>
  <wgt id="193">8.06808e-12</wgt>
  <wgt id="194">7.89537e-12</wgt>
  <wgt id="195">7.74433e-12</wgt>
  <wgt id="196">8.31676e-12</wgt>
  <wgt id="197">7.99245e-12</wgt>
  <wgt id="198">7.94335e-12</wgt>
  <wgt id="199">7.95301e-12</wgt>
  <wgt id="200">8.02255e-12</wgt>
  <wgt id="201">7.99767e-12</wgt>
  <wgt id="202">7.97398e-12</wgt>
  <wgt id="203">7.93826e-12</wgt>
  <wgt id="204">7.92115e-12</wgt>
  <wgt id="205">7.90677e-12</wgt>
  <wgt id="206">7.76202e-12</wgt>
  <wgt id="207">7.8076e-12</wgt>
  <wgt id="208">7.71714e-12</wgt>
  <wgt id="209">7.78346e-12</wgt>
  <wgt id="210">7.74646e-12</wgt>
  <wgt id="211">7.75966e-12</wgt>
  <wgt id="212">7.76378e-12</wgt>
  <wgt id="213">7.76129e-12</wgt>
  <wgt id="214">7.76308e-12</wgt>
  <wgt id="215">7.76715e-12</wgt>
  <wgt id="216">7.75832e-12</wgt>
  <wgt id="217">7.78163e-12</wgt>
  <wgt id="218">7.74703e-12</wgt>
  <wgt id="219">7.7516e-12</wgt>
  <wgt id="220">7.76826e-12</wgt>
  <wgt id="221">7.76124e-12</wgt>
  <wgt id="222">7.76301e-12</wgt>
  <wgt id="223">7.35437e-12</wgt>
  <wgt id="224">8.13395e-12</wgt>
  <wgt id="225">7.67153e-12</wgt>
  <wgt id="226">7.87635e-12</wgt>
  <wgt id="227">7.69065e-12</wgt>
  <wgt id="228">7.79341e-12</wgt>
  <wgt id="229">7.65654e-12</wgt>
  <wgt id="230">7.81437e-12</wgt>
  <wgt id="231">7.99163e-12</wgt>
  <wgt id="232">7.57328e-12</wgt>
  <wgt id="233">7.72021e-12</wgt>
  <wgt id="234">7.82941e-12</wgt>
  <wgt id="235">7.5604e-12</wgt>
  <wgt id="236">7.93897e-12</wgt>
  <wgt id="237">7.63437e-12</wgt>
  <wgt id="238">7.80509e-12</wgt>
  <wgt id="239">7.70809e-12</wgt>
  <wgt id="240">7.85913e-12</wgt>
  <wgt id="241">7.68087e-12</wgt>
  <wgt id="242">7.8589e-12</wgt>
  <wgt id="243">7.85886e-12</wgt>
  <wgt id="244">7.79091e-12</wgt>
  <wgt id="245">7.75697e-12</wgt>
  <wgt id="246">7.81417e-12</wgt>
  <wgt id="247">7.76202e-12</wgt>
  <wgt id="248">7.83347e-12</wgt>
  <wgt id="249">7.80763e-12</wgt>
  <wgt id="250">7.78211e-12</wgt>
  <wgt id="251">7.74538e-12</wgt>
  <wgt id="252">7.72764e-12</wgt>
  <wgt id="253">7.71481e-12</wgt>
  <wgt id="254">7.55221e-12</wgt>
  <wgt id="255">7.5591e-12</wgt>
  <wgt id="256">7.54463e-12</wgt>
  <wgt id="257">7.55815e-12</wgt>
  <wgt id="258">7.54783e-12</wgt>
  <wgt id="259">7.60234e-12</wgt>
  <wgt id="260">7.50369e-12</wgt>
  <wgt id="261">7.5615e-12</wgt>
  <wgt id="262">7.54114e-12</wgt>
  <wgt id="263">7.54833e-12</wgt>
  <wgt id="264">7.55658e-12</wgt>
  <wgt id="265">7.54391e-12</wgt>
  <wgt id="266">7.56862e-12</wgt>
  <wgt id="267">7.55453e-12</wgt>
  <wgt id="268">7.54879e-12</wgt>
  <wgt id="269">7.57441e-12</wgt>
  <wgt id="270">7.53712e-12</wgt>
  <wgt id="271">7.53631e-12</wgt>
  <wgt id="272">7.56972e-12</wgt>
  <wgt id="273">7.53113e-12</wgt>
  <wgt id="274">7.5681e-12</wgt>
  <wgt id="275">7.51696e-12</wgt>
  <wgt id="276">7.58854e-12</wgt>
  <wgt id="277">7.50951e-12</wgt>
  <wgt id="278">7.59143e-12</wgt>
  <wgt id="279">7.41589e-12</wgt>
  <wgt id="280">7.72328e-12</wgt>
  <wgt id="281">7.5203e-12</wgt>
  <wgt id="282">7.5557e-12</wgt>
  <wgt id="283">7.33448e-12</wgt>
  <wgt id="284">7.8209e-12</wgt>
  <wgt id="285">7.1895e-12</wgt>
  <wgt id="286">7.85355e-12</wgt>
  <wgt id="287">7.57636e-12</wgt>
  <wgt id="288">7.52122e-12</wgt>
  <wgt id="289">7.60599e-12</wgt>
  <wgt id="290">7.42917e-12</wgt>
  <wgt id="291">7.5295e-12</wgt>
  <wgt id="292">7.55571e-12</wgt>
  <wgt id="293">7.49336e-12</wgt>
  <wgt id="294">7.61046e-12</wgt>
  <wgt id="295">7.40811e-12</wgt>
  <wgt id="296">7.72808e-12</wgt>
  <wgt id="297">7.54767e-12</wgt>
  <wgt id="298">7.58115e-12</wgt>
  <wgt id="299">7.52856e-12</wgt>
  <wgt id="300">7.61464e-12</wgt>
  <wgt id="301">7.44412e-12</wgt>
  <wgt id="302">7.82163e-12</wgt>
  <wgt id="303">7.4915e-12</wgt>
  <wgt id="304">7.58675e-12</wgt>
  <wgt id="305">7.549e-12</wgt>
  <wgt id="306">7.55612e-12</wgt>
  <wgt id="307">7.54104e-12</wgt>
  <wgt id="308">7.55548e-12</wgt>
  <wgt id="309">7.54436e-12</wgt>
  <wgt id="310">7.60064e-12</wgt>
  <wgt id="311">7.50082e-12</wgt>
  <wgt id="312">7.55619e-12</wgt>
  <wgt id="313">7.54112e-12</wgt>
  <wgt id="314">7.54494e-12</wgt>
  <wgt id="315">7.55249e-12</wgt>
  <wgt id="316">7.54092e-12</wgt>
  <wgt id="317">7.56635e-12</wgt>
  <wgt id="318">7.55393e-12</wgt>
  <wgt id="319">7.53981e-12</wgt>
  <wgt id="320">7.57232e-12</wgt>
  <wgt id="321">7.53575e-12</wgt>
  <wgt id="322">7.52978e-12</wgt>
  <wgt id="323">7.571e-12</wgt>
  <wgt id="324">7.53208e-12</wgt>
  <wgt id="325">7.56337e-12</wgt>
  <wgt id="326">7.52024e-12</wgt>
  <wgt id="327">7.58545e-12</wgt>
  <wgt id="328">7.5097e-12</wgt>
  <wgt id="329">7.57119e-12</wgt>
  <wgt id="330">7.76002e-12</wgt>
  <wgt id="331">7.34745e-12</wgt>
  <wgt id="332">7.52243e-12</wgt>
  <wgt id="333">7.55048e-12</wgt>
  <wgt id="334">7.37969e-12</wgt>
  <wgt id="335">7.75946e-12</wgt>
  <wgt id="336">7.28745e-12</wgt>
  <wgt id="337">7.86822e-12</wgt>
  <wgt id="338">7.63336e-12</wgt>
  <wgt id="339">7.47055e-12</wgt>
  <wgt id="340">7.599e-12</wgt>
  <wgt id="341">7.42168e-12</wgt>
  <wgt id="342">7.53277e-12</wgt>
  <wgt id="343">7.54009e-12</wgt>
  <wgt id="344">7.49605e-12</wgt>
  <wgt id="345">7.61004e-12</wgt>
  <wgt id="346">7.39986e-12</wgt>
  <wgt id="347">7.71996e-12</wgt>
  <wgt id="348">7.54734e-12</wgt>
  <wgt id="349">7.57296e-12</wgt>
  <wgt id="350">7.51919e-12</wgt>
  <wgt id="351">7.62404e-12</wgt>
  <wgt id="352">7.43421e-12</wgt>
  <wgt id="353">7.82339e-12</wgt>
  <wgt id="354">7.4591e-12</wgt>
  <wgt id="355">7.60346e-12</wgt>
  <wgt id="356">7.55221e-12</wgt>
  <wgt id="357">7.57227e-12</wgt>
  <wgt id="358">7.549e-12</wgt>
  <wgt id="359">7.57053e-12</wgt>
  <wgt id="360">7.62448e-12</wgt>
  <wgt id="361">7.57992e-12</wgt>
  <wgt id="362">7.71209e-12</wgt>
  <wgt id="363">7.6943e-12</wgt>
  <wgt id="364">7.66546e-12</wgt>
  <wgt id="365">7.63968e-12</wgt>
  <wgt id="366">7.61174e-12</wgt>
  <wgt id="367">7.55533e-12</wgt>
  <wgt id="368">7.52261e-12</wgt>
  <wgt id="369">7.48738e-12</wgt>
  <wgt id="370">7.57992e-12</wgt>
  <wgt id="371">7.61238e-12</wgt>
  <wgt id="372">7.59441e-12</wgt>
  <wgt id="373">7.56814e-12</wgt>
  <wgt id="374">7.56952e-12</wgt>
  <wgt id="375">8.2493e-12</wgt>
  <wgt id="376">8.24995e-12</wgt>
  <wgt id="377">8.24839e-12</wgt>
  <wgt id="378">8.27942e-12</wgt>
  <wgt id="379">8.2196e-12</wgt>
  <wgt id="380">8.2724e-12</wgt>
  <wgt id="381">8.24025e-12</wgt>
  <wgt id="382">8.28829e-12</wgt>
  <wgt id="383">8.21086e-12</wgt>
  <wgt id="384">8.25451e-12</wgt>
  <wgt id="385">8.24411e-12</wgt>
  <wgt id="386">8.27821e-12</wgt>
  <wgt id="387">8.23709e-12</wgt>
  <wgt id="388">8.24211e-12</wgt>
  <wgt id="389">8.25831e-12</wgt>
  <wgt id="390">8.26955e-12</wgt>
  <wgt id="391">8.22792e-12</wgt>
  <wgt id="392">8.18665e-12</wgt>
  <wgt id="393">8.28507e-12</wgt>
  <wgt id="394">8.25843e-12</wgt>
  <wgt id="395">8.23688e-12</wgt>
  <wgt id="396">8.25686e-12</wgt>
  <wgt id="397">8.24401e-12</wgt>
  <wgt id="398">8.22594e-12</wgt>
  <wgt id="399">8.27209e-12</wgt>
  <wgt id="400">8.2377e-12</wgt>
  <wgt id="401">8.27574e-12</wgt>
  <wgt id="402">8.18324e-12</wgt>
  <wgt id="403">8.28247e-12</wgt>
  <wgt id="404">8.44717e-12</wgt>
  <wgt id="405">7.77385e-12</wgt>
  <wgt id="406">8.10623e-12</wgt>
  <wgt id="407">8.56244e-12</wgt>
  <wgt id="408">8.32324e-12</wgt>
  <wgt id="409">8.10983e-12</wgt>
  <wgt id="410">8.01537e-12</wgt>
  <wgt id="411">8.35906e-12</wgt>
  <wgt id="412">8.2337e-12</wgt>
  <wgt id="413">8.27243e-12</wgt>
  <wgt id="414">8.15579e-12</wgt>
  <wgt id="415">8.32193e-12</wgt>
  <wgt id="416">8.47651e-12</wgt>
  <wgt id="417">7.93542e-12</wgt>
  <wgt id="418">8.26198e-12</wgt>
  <wgt id="419">8.18033e-12</wgt>
  <wgt id="420">8.383e-12</wgt>
  <wgt id="421">8.168e-12</wgt>
  <wgt id="422">8.22886e-12</wgt>
  <wgt id="423">8.26024e-12</wgt>
  <wgt id="424">8.42774e-12</wgt>
  <wgt id="425">8.13329e-12</wgt>
  <wgt id="426">8.2493e-12</wgt>
  <wgt id="427">8.15201e-12</wgt>
  <wgt id="428">8.50109e-12</wgt>
  <wgt id="429">8.33084e-12</wgt>
  <wgt id="430">8.56709e-12</wgt>
  <wgt id="431">8.52012e-12</wgt>
  <wgt id="432">8.4758e-12</wgt>
  <wgt id="433">8.43281e-12</wgt>
  <wgt id="434">8.37955e-12</wgt>
  <wgt id="435">8.27025e-12</wgt>
  <wgt id="436">8.21437e-12</wgt>
  <wgt id="437">8.16086e-12</wgt>
  <wgt id="438">8.33084e-12</wgt>
  <wgt id="439">8.3573e-12</wgt>
  <wgt id="440">8.34138e-12</wgt>
  <wgt id="441">8.32293e-12</wgt>
  <wgt id="442">8.31663e-12</wgt>
  <wgt id="443">7.90785e-12</wgt>
  <wgt id="444">7.96503e-12</wgt>
  <wgt id="445">7.92738e-12</wgt>
  <wgt id="446">7.8527e-12</wgt>
  <wgt id="447">7.89964e-12</wgt>
  <wgt id="448">7.71336e-12</wgt>
  <wgt id="449">8.03897e-12</wgt>
  <wgt id="450">7.93845e-12</wgt>
  <wgt id="451">7.8913e-12</wgt>
  <wgt id="452">8.07578e-12</wgt>
  <wgt id="453">7.98068e-12</wgt>
  <wgt id="454">7.56578e-12</wgt>
  <wgt id="455">7.9408e-12</wgt>
  <wgt id="456">7.9305e-12</wgt>
  <wgt id="457">7.93352e-12</wgt>
  <wgt id="458">8.02011e-12</wgt>
  <wgt id="459">7.97066e-12</wgt>
  <wgt id="460">7.99981e-12</wgt>
  <wgt id="461">7.75113e-12</wgt>
  <wgt id="462">7.85531e-12</wgt>
  <wgt id="463">7.80621e-12</wgt>
  <wgt id="464">7.87054e-12</wgt>
  <wgt id="465">7.98765e-12</wgt>
  <wgt id="466">7.78875e-12</wgt>
  <wgt id="467">7.84041e-12</wgt>
  <wgt id="468">7.89198e-12</wgt>
  <wgt id="469">7.89275e-12</wgt>
  <wgt id="470">7.81849e-12</wgt>
  <wgt id="471">7.83267e-12</wgt>
  <wgt id="472">7.94633e-12</wgt>
  <wgt id="473">7.67732e-12</wgt>
  <wgt id="474">5.79e-12</wgt>
  <wgt id="475">5.91535e-12</wgt>
  <wgt id="476">5.70521e-12</wgt>
  <wgt id="477">5.68619e-12</wgt>
  <wgt id="478">5.84177e-12</wgt>
  <wgt id="479">5.64525e-12</wgt>
  <wgt id="480">6.03759e-12</wgt>
  <wgt id="481">5.77313e-12</wgt>
  <wgt id="482">5.71264e-12</wgt>
  <wgt id="483">5.67079e-12</wgt>
  <wgt id="484">5.9859e-12</wgt>
  <wgt id="485">5.59233e-12</wgt>
  <wgt id="486">6.05158e-12</wgt>
  <wgt id="487">5.77196e-12</wgt>
  <wgt id="488">5.89943e-12</wgt>
  <wgt id="489">5.45081e-12</wgt>
  <wgt id="490">5.57904e-12</wgt>
  <wgt id="491">5.7621e-12</wgt>
  <wgt id="492">5.69212e-12</wgt>
  <wgt id="493">5.51912e-12</wgt>
  <wgt id="494">5.56707e-12</wgt>
  <wgt id="495">5.80429e-12</wgt>
  <wgt id="496">5.59069e-12</wgt>
  <wgt id="497">5.52647e-12</wgt>
  <wgt id="498">5.94891e-12</wgt>
  <wgt id="499">5.74363e-12</wgt>
  <wgt id="500">5.66129e-12</wgt>
  <wgt id="501">6.0042e-12</wgt>
  <wgt id="502">5.79858e-12</wgt>
  <wgt id="503">5.78259e-12</wgt>
  <wgt id="504">5.91955e-12</wgt>
  <wgt id="505">5.77463e-12</wgt>
  <wgt id="506">5.68937e-12</wgt>
  <wgt id="507">5.79309e-12</wgt>
  <wgt id="508">6.00887e-12</wgt>
  <wgt id="509">5.41612e-12</wgt>
  <wgt id="510">5.89426e-12</wgt>
  <wgt id="511">5.58409e-12</wgt>
  <wgt id="512">5.99719e-12</wgt>
  <wgt id="513">5.97715e-12</wgt>
  <wgt id="514">5.90104e-12</wgt>
  <wgt id="515">5.79788e-12</wgt>
  <wgt id="516">6.15007e-12</wgt>
  <wgt id="517">5.92636e-12</wgt>
  <wgt id="518">5.95727e-12</wgt>
  <wgt id="519">5.61679e-12</wgt>
  <wgt id="520">5.91246e-12</wgt>
  <wgt id="521">5.87868e-12</wgt>
  <wgt id="522">6.04169e-12</wgt>
  <wgt id="523">5.68497e-12</wgt>
  <wgt id="524">5.75548e-12</wgt>
  <wgt id="525">5.89999e-12</wgt>
  <wgt id="526">5.90434e-12</wgt>
  <wgt id="527">5.80553e-12</wgt>
  <wgt id="528">5.81986e-12</wgt>
  <wgt id="529">5.69556e-12</wgt>
  <wgt id="530">5.9637e-12</wgt>
  <wgt id="531">5.66409e-12</wgt>
  <wgt id="532">6.17259e-12</wgt>
  <wgt id="533">5.59105e-12</wgt>
  <wgt id="534">5.73119e-12</wgt>
  <wgt id="535">5.78907e-12</wgt>
  <wgt id="536">5.80016e-12</wgt>
  <wgt id="537">5.72033e-12</wgt>
  <wgt id="538">5.82906e-12</wgt>
  <wgt id="539">5.68694e-12</wgt>
  <wgt id="540">5.85706e-12</wgt>
  <wgt id="541">5.65469e-12</wgt>
  <wgt id="542">5.72895e-12</wgt>
  <wgt id="543">5.74317e-12</wgt>
  <wgt id="544">5.99088e-12</wgt>
  <wgt id="545">5.63263e-12</wgt>
  <wgt id="546">5.54322e-12</wgt>
  <wgt id="547">5.65497e-12</wgt>
  <wgt id="548">5.55999e-12</wgt>
  <wgt id="549">5.69958e-12</wgt>
  <wgt id="550">5.67062e-12</wgt>
  <wgt id="551">5.86884e-12</wgt>
  <wgt id="552">5.52581e-12</wgt>
  <wgt id="553">5.67132e-12</wgt>
  <wgt id="554">6.16546e-12</wgt>
  <wgt id="555">5.94755e-12</wgt>
  <wgt id="556">5.57904e-12</wgt>
  <wgt id="557">5.94481e-12</wgt>
  <wgt id="558">5.67836e-12</wgt>
  <wgt id="559">5.66198e-12</wgt>
  <wgt id="560">6.35927e-12</wgt>
  <wgt id="561">5.76825e-12</wgt>
  <wgt id="562">5.97714e-12</wgt>
  <wgt id="563">5.95589e-12</wgt>
  <wgt id="564">5.98955e-12</wgt>
  <wgt id="565">5.7217e-12</wgt>
  <wgt id="566">5.82695e-12</wgt>
  <wgt id="567">5.75503e-12</wgt>
  <wgt id="568">5.73464e-12</wgt>
  <wgt id="569">5.88391e-12</wgt>
  <wgt id="570">5.55199e-12</wgt>
  <wgt id="571">6.38835e-12</wgt>
  <wgt id="572">5.68941e-12</wgt>
  <wgt id="573">5.60824e-12</wgt>
  <wgt id="574">5.63097e-12</wgt>
  <wgt id="575">6.36884e-12</wgt>
  <wgt id="576">6.56657e-12</wgt>
  <wgt id="577">6.58751e-12</wgt>
  <wgt id="578">6.5643e-12</wgt>
  <wgt id="579">6.56555e-12</wgt>
  <wgt id="580">6.64449e-12</wgt>
  <wgt id="581">6.90498e-12</wgt>
  <wgt id="582">6.54482e-12</wgt>
  <wgt id="583">6.42847e-12</wgt>
  <wgt id="584">6.32974e-12</wgt>
  <wgt id="585">6.16124e-12</wgt>
  <wgt id="586">6.12687e-12</wgt>
  <wgt id="587">6.47648e-12</wgt>
  <wgt id="588">6.50759e-12</wgt>
  <wgt id="589">6.65685e-12</wgt>
  <wgt id="590">6.35322e-12</wgt>
  <wgt id="591">6.58951e-12</wgt>
  <wgt id="592">5.96595e-12</wgt>
  <wgt id="593">6.27902e-12</wgt>
  <wgt id="594">6.46061e-12</wgt>
  <wgt id="595">6.46532e-12</wgt>
  <wgt id="596">6.79223e-12</wgt>
  <wgt id="597">6.3178e-12</wgt>
  <wgt id="598">6.15983e-12</wgt>
  <wgt id="599">6.65488e-12</wgt>
  <wgt id="600">6.46365e-12</wgt>
  <wgt id="601">6.16848e-12</wgt>
  <wgt id="602">6.1762e-12</wgt>
  <wgt id="603">6.14796e-12</wgt>
  <wgt id="604">6.48063e-12</wgt>
  <wgt id="605">6.56355e-12</wgt>
  <wgt id="606">6.40623e-12</wgt>
  <wgt id="607">6.43582e-12</wgt>
  <wgt id="608">6.52207e-12</wgt>
  <wgt id="609">6.16839e-12</wgt>
  <wgt id="610">6.14279e-12</wgt>
  <wgt id="611">6.27844e-12</wgt>
  <wgt id="612">6.7369e-12</wgt>
  <wgt id="613">6.25981e-12</wgt>
  <wgt id="614">6.36128e-12</wgt>
  <wgt id="615">6.33983e-12</wgt>
  <wgt id="616">6.50567e-12</wgt>
  <wgt id="617">6.54264e-12</wgt>
  <wgt id="618">6.85476e-12</wgt>
  <wgt id="619">6.28415e-12</wgt>
  <wgt id="620">6.59224e-12</wgt>
  <wgt id="621">6.34924e-12</wgt>
  <wgt id="622">6.47648e-12</wgt>
  <wgt id="623">6.50053e-12</wgt>
  <wgt id="624">6.39002e-12</wgt>
  <wgt id="625">6.20563e-12</wgt>
  <wgt id="626">6.02613e-12</wgt>
  <wgt id="627">6.0096e-12</wgt>
  <wgt id="628">6.43336e-12</wgt>
  <wgt id="629">6.32434e-12</wgt>
  <wgt id="630">6.14845e-12</wgt>
  <wgt id="631">6.43666e-12</wgt>
  <wgt id="632">6.00349e-12</wgt>
  <wgt id="633">6.34145e-12</wgt>
  <wgt id="634">6.22685e-12</wgt>
  <wgt id="635">6.03036e-12</wgt>
  <wgt id="636">6.46041e-12</wgt>
  <wgt id="637">6.36566e-12</wgt>
  <wgt id="638">6.15072e-12</wgt>
  <wgt id="639">6.23746e-12</wgt>
  <wgt id="640">6.33793e-12</wgt>
  <wgt id="641">6.54348e-12</wgt>
  <wgt id="642">6.05616e-12</wgt>
  <wgt id="643">6.29777e-12</wgt>
  <wgt id="644">5.84576e-12</wgt>
  <wgt id="645">6.38946e-12</wgt>
  <wgt id="646">6.19512e-12</wgt>
  <wgt id="647">6.335e-12</wgt>
  <wgt id="648">6.51853e-12</wgt>
  <wgt id="649">6.41159e-12</wgt>
  <wgt id="650">6.16072e-12</wgt>
  <wgt id="651">6.63238e-12</wgt>
  <wgt id="652">6.23941e-12</wgt>
  <wgt id="653">6.16219e-12</wgt>
  <wgt id="654">6.27233e-12</wgt>
  <wgt id="655">6.26067e-12</wgt>
  <wgt id="656">6.37088e-12</wgt>
  <wgt id="657">6.82724e-12</wgt>
  <wgt id="658">6.3793e-12</wgt>
  <wgt id="659">6.10639e-12</wgt>
  <wgt id="660">6.37907e-12</wgt>
  <wgt id="661">6.27122e-12</wgt>
  <wgt id="662">6.31904e-12</wgt>
  <wgt id="663">6.42421e-12</wgt>
  <wgt id="664">6.35198e-12</wgt>
  <wgt id="665">6.36169e-12</wgt>
  <wgt id="666">6.28461e-12</wgt>
  <wgt id="667">6.63586e-12</wgt>
  <wgt id="668">6.35098e-12</wgt>
  <wgt id="669">6.4747e-12</wgt>
  <wgt id="670">6.58241e-12</wgt>
  <wgt id="671">6.37011e-12</wgt>
  <wgt id="672">6.12446e-12</wgt>
  <wgt id="673">6.53551e-12</wgt>
  <wgt id="674">6.21039e-12</wgt>
  <wgt id="675">6.27248e-12</wgt>
  <wgt id="676">8.08959e-12</wgt>
  <wgt id="677">8.19426e-12</wgt>
  <wgt id="678">8.59826e-12</wgt>
  <wgt id="679">7.81846e-12</wgt>
  <wgt id="680">8.02763e-12</wgt>
  <wgt id="681">8.11388e-12</wgt>
  <wgt id="682">8.38395e-12</wgt>
  <wgt id="683">7.82293e-12</wgt>
  <wgt id="684">8.42571e-12</wgt>
  <wgt id="685">7.90062e-12</wgt>
  <wgt id="686">7.88486e-12</wgt>
  <wgt id="687">8.37436e-12</wgt>
  <wgt id="688">7.93861e-12</wgt>
  <wgt id="689">8.47105e-12</wgt>
  <wgt id="690">8.3608e-12</wgt>
  <wgt id="691">8.42608e-12</wgt>
  <wgt id="692">7.98713e-12</wgt>
  <wgt id="693">9.82417e-12</wgt>
  <wgt id="694">8.68132e-12</wgt>
  <wgt id="695">7.79283e-12</wgt>
  <wgt id="696">7.83298e-12</wgt>
  <wgt id="697">7.6727e-12</wgt>
  <wgt id="698">7.16385e-12</wgt>
  <wgt id="699">7.15036e-12</wgt>
  <wgt id="700">7.15273e-12</wgt>
  <wgt id="701">8.08396e-12</wgt>
  <wgt id="702">7.95664e-12</wgt>
  <wgt id="703">9.4397e-12</wgt>
  <wgt id="704">8.9418e-12</wgt>
  <wgt id="705">8.7748e-12</wgt>
  <wgt id="706">7.6842e-12</wgt>
  <wgt id="707">7.71511e-12</wgt>
  <wgt id="708">7.89957e-12</wgt>
  <wgt id="709">7.89759e-12</wgt>
  <wgt id="710">7.33965e-12</wgt>
  <wgt id="711">8.13822e-12</wgt>
  <wgt id="712">7.78161e-12</wgt>
  <wgt id="713">8.69982e-12</wgt>
  <wgt id="714">7.68951e-12</wgt>
  <wgt id="715">7.91943e-12</wgt>
  <wgt id="716">7.80839e-12</wgt>
  <wgt id="717">7.47531e-12</wgt>
  <wgt id="718">8.20599e-12</wgt>
  <wgt id="719">7.36689e-12</wgt>
  <wgt id="720">7.89714e-12</wgt>
  <wgt id="721">7.20112e-12</wgt>
  <wgt id="722">6.95321e-12</wgt>
  <wgt id="723">8.74377e-12</wgt>
  <wgt id="724">8.56262e-12</wgt>
  <wgt id="725">8.45455e-12</wgt>
  <wgt id="726">8.09158e-12</wgt>
  <wgt id="727">7.98892e-12</wgt>
  <wgt id="728">7.85252e-12</wgt>
  <wgt id="729">7.80175e-12</wgt>
  <wgt id="730">8.70551e-12</wgt>
  <wgt id="731">7.93943e-12</wgt>
  <wgt id="732">9.04479e-12</wgt>
  <wgt id="733">7.81699e-12</wgt>
  <wgt id="734">8.28012e-12</wgt>
  <wgt id="735">8.19063e-12</wgt>
  <wgt id="736">7.76843e-12</wgt>
  <wgt id="737">8.04931e-12</wgt>
  <wgt id="738">7.75349e-12</wgt>
  <wgt id="739">8.45865e-12</wgt>
  <wgt id="740">9.11618e-12</wgt>
  <wgt id="741">7.60768e-12</wgt>
  <wgt id="742">7.98651e-12</wgt>
  <wgt id="743">7.60326e-12</wgt>
  <wgt id="744">7.92397e-12</wgt>
  <wgt id="745">8.52184e-12</wgt>
  <wgt id="746">8.70861e-12</wgt>
  <wgt id="747">7.09918e-12</wgt>
  <wgt id="748">7.96072e-12</wgt>
  <wgt id="749">8.40158e-12</wgt>
  <wgt id="750">8.57043e-12</wgt>
  <wgt id="751">8.20327e-12</wgt>
  <wgt id="752">7.40283e-12</wgt>
  <wgt id="753">7.51794e-12</wgt>
  <wgt id="754">8.41625e-12</wgt>
  <wgt id="755">8.03364e-12</wgt>
  <wgt id="756">7.99808e-12</wgt>
  <wgt id="757">7.32126e-12</wgt>
  <wgt id="758">7.99855e-12</wgt>
  <wgt id="759">8.70787e-12</wgt>
  <wgt id="760">8.00612e-12</wgt>
  <wgt id="761">8.63429e-12</wgt>
  <wgt id="762">8.6649e-12</wgt>
  <wgt id="763">8.09136e-12</wgt>
  <wgt id="764">8.45302e-12</wgt>
  <wgt id="765">8.19763e-12</wgt>
  <wgt id="766">8.10479e-12</wgt>
  <wgt id="767">8.23894e-12</wgt>
  <wgt id="768">7.54188e-12</wgt>
  <wgt id="769">8.5531e-12</wgt>
  <wgt id="770">7.90337e-12</wgt>
  <wgt id="771">9.57784e-12</wgt>
  <wgt id="772">7.7696e-12</wgt>
  <wgt id="773">8.0356e-12</wgt>
  <wgt id="774">6.85553e-12</wgt>
  <wgt id="775">8.45854e-12</wgt>
  <wgt id="776">8.81609e-12</wgt>
  <wgt id="777">7.5255e-12</wgt>
  <wgt id="778">5.77788e-12</wgt>
  <wgt id="779">4.35657e-12</wgt>
  <wgt id="780">3.25933e-12</wgt>
  <wgt id="781">6.57046e-12</wgt>
  <wgt id="782">6.45875e-12</wgt>
  <wgt id="783">4.3017e-12</wgt>
  <wgt id="784">4.73831e-12</wgt>
  <wgt id="785">7.63028e-12</wgt>
  <wgt id="786">4.17032e-12</wgt>
  <wgt id="787">6.83411e-12</wgt>
  <wgt id="788">2.8474e-12</wgt>
  <wgt id="789">4.68943e-12</wgt>
  <wgt id="790">4.07579e-12</wgt>
  <wgt id="791">5.95813e-12</wgt>
  <wgt id="792">7.72034e-12</wgt>
  <wgt id="793">5.68786e-12</wgt>
  <wgt id="794">3.93877e-12</wgt>
  <wgt id="795">7.12285e-12</wgt>
  <wgt id="796">7.69557e-12</wgt>
  <wgt id="797">7.09034e-12</wgt>
  <wgt id="798">4.95675e-12</wgt>
  <wgt id="799">6.72943e-12</wgt>
  <wgt id="800">4.76517e-12</wgt>
  <wgt id="801">5.33462e-12</wgt>
  <wgt id="802">3.90098e-12</wgt>
  <wgt id="803">8.47131e-12</wgt>
  <wgt id="804">7.11407e-12</wgt>
  <wgt id="805">7.06125e-12</wgt>
  <wgt id="806">6.30531e-12</wgt>
  <wgt id="807">5.53694e-12</wgt>
  <wgt id="808">5.51776e-12</wgt>
  <wgt id="809">5.35041e-12</wgt>
  <wgt id="810">6.3782e-12</wgt>
  <wgt id="811">6.16719e-12</wgt>
  <wgt id="812">4.07068e-12</wgt>
  <wgt id="813">4.24792e-12</wgt>
  <wgt id="814">4.55861e-12</wgt>
  <wgt id="815">4.30485e-12</wgt>
  <wgt id="816">4.12232e-12</wgt>
  <wgt id="817">5.89825e-12</wgt>
  <wgt id="818">6.41887e-12</wgt>
  <wgt id="819">4.35698e-12</wgt>
  <wgt id="820">5.65168e-12</wgt>
  <wgt id="821">6.69338e-12</wgt>
  <wgt id="822">4.67328e-12</wgt>
  <wgt id="823">6.88243e-12</wgt>
  <wgt id="824">8.18179e-12</wgt>
  <wgt id="825">3.8014e-12</wgt>
  <wgt id="826">6.48116e-12</wgt>
  <wgt id="827">3.21536e-12</wgt>
  <wgt id="828">7.37864e-12</wgt>
  <wgt id="829">5.95284e-12</wgt>
  <wgt id="830">3.6053e-12</wgt>
  <wgt id="831">6.40108e-12</wgt>
  <wgt id="832">9.69311e-12</wgt>
  <wgt id="833">5.06978e-12</wgt>
  <wgt id="834">9.29716e-12</wgt>
  <wgt id="835">4.56313e-12</wgt>
  <wgt id="836">5.30547e-12</wgt>
  <wgt id="837">6.59093e-12</wgt>
  <wgt id="838">5.14015e-12</wgt>
  <wgt id="839">6.3554e-12</wgt>
  <wgt id="840">5.19689e-12</wgt>
  <wgt id="841">7.47225e-12</wgt>
  <wgt id="842">5.40912e-12</wgt>
  <wgt id="843">5.96089e-12</wgt>
  <wgt id="844">6.13872e-12</wgt>
  <wgt id="845">9.01237e-12</wgt>
  <wgt id="846">6.00719e-12</wgt>
  <wgt id="847">5.98529e-12</wgt>
  <wgt id="848">4.47005e-12</wgt>
  <wgt id="849">6.02624e-12</wgt>
  <wgt id="850">7.93336e-12</wgt>
  <wgt id="851">6.49384e-12</wgt>
  <wgt id="852">4.1889e-12</wgt>
  <wgt id="853">6.62754e-12</wgt>
  <wgt id="854">7.36581e-12</wgt>
  <wgt id="855">6.76923e-12</wgt>
  <wgt id="856">3.63645e-12</wgt>
  <wgt id="857">5.48953e-12</wgt>
  <wgt id="858">5.41789e-12</wgt>
  <wgt id="859">5.48621e-12</wgt>
  <wgt id="860">6.70045e-12</wgt>
  <wgt id="861">5.00699e-12</wgt>
  <wgt id="862">5.83659e-12</wgt>
  <wgt id="863">6.31768e-12</wgt>
  <wgt id="864">6.0683e-12</wgt>
  <wgt id="865">8.52976e-12</wgt>
  <wgt id="866">9.45387e-12</wgt>
  <wgt id="867">5.87275e-12</wgt>
  <wgt id="868">5.74291e-12</wgt>
  <wgt id="869">4.08861e-12</wgt>
  <wgt id="870">4.42728e-12</wgt>
  <wgt id="871">4.30952e-12</wgt>
  <wgt id="872">7.3518e-12</wgt>
  <wgt id="873">4.80572e-12</wgt>
  <wgt id="874">6.19365e-12</wgt>
  <wgt id="875">4.85309e-12</wgt>
  <wgt id="876">7.20579e-12</wgt>
  <wgt id="877">6.54204e-12</wgt>
  <wgt id="878">4.73837e-12</wgt>
  <wgt id="879">8.08959e-12</wgt>
  <wgt id="880">8.19426e-12</wgt>
  <wgt id="881">8.59826e-12</wgt>
  <wgt id="882">7.81846e-12</wgt>
  <wgt id="883">8.02763e-12</wgt>
  <wgt id="884">8.11388e-12</wgt>
  <wgt id="885">8.38395e-12</wgt>
  <wgt id="886">7.82293e-12</wgt>
  <wgt id="887">8.42571e-12</wgt>
  <wgt id="888">7.90062e-12</wgt>
  <wgt id="889">7.88486e-12</wgt>
  <wgt id="890">8.37436e-12</wgt>
  <wgt id="891">7.93861e-12</wgt>
  <wgt id="892">8.47105e-12</wgt>
  <wgt id="893">8.3608e-12</wgt>
  <wgt id="894">8.42608e-12</wgt>
  <wgt id="895">7.98713e-12</wgt>
  <wgt id="896">9.82417e-12</wgt>
  <wgt id="897">8.68132e-12</wgt>
  <wgt id="898">7.79283e-12</wgt>
  <wgt id="899">7.83298e-12</wgt>
  <wgt id="900">7.6727e-12</wgt>
  <wgt id="901">7.16385e-12</wgt>
  <wgt id="902">7.15036e-12</wgt>
  <wgt id="903">7.15273e-12</wgt>
  <wgt id="904">8.08396e-12</wgt>
  <wgt id="905">7.95664e-12</wgt>
  <wgt id="906">9.4397e-12</wgt>
  <wgt id="907">8.9418e-12</wgt>
  <wgt id="908">8.7748e-12</wgt>
  <wgt id="909">7.6842e-12</wgt>
  <wgt id="910">7.71511e-12</wgt>
  <wgt id="911">7.89957e-12</wgt>
  <wgt id="912">7.89759e-12</wgt>
  <wgt id="913">7.33965e-12</wgt>
  <wgt id="914">8.13822e-12</wgt>
  <wgt id="915">7.78161e-12</wgt>
  <wgt id="916">8.69982e-12</wgt>
  <wgt id="917">7.68951e-12</wgt>
  <wgt id="918">7.91943e-12</wgt>
  <wgt id="919">7.80839e-12</wgt>
  <wgt id="920">7.47531e-12</wgt>
  <wgt id="921">8.20599e-12</wgt>
  <wgt id="922">7.36689e-12</wgt>
  <wgt id="923">7.89714e-12</wgt>
  <wgt id="924">7.20112e-12</wgt>
  <wgt id="925">6.95321e-12</wgt>
  <wgt id="926">8.74377e-12</wgt>
  <wgt id="927">8.56262e-12</wgt>
  <wgt id="928">8.45455e-12</wgt>
  <wgt id="929">8.09158e-12</wgt>
  <wgt id="930">7.98892e-12</wgt>
  <wgt id="931">7.85252e-12</wgt>
  <wgt id="932">7.80175e-12</wgt>
  <wgt id="933">8.70551e-12</wgt>
  <wgt id="934">7.93943e-12</wgt>
  <wgt id="935">9.04479e-12</wgt>
  <wgt id="936">7.81699e-12</wgt>
  <wgt id="937">8.28012e-12</wgt>
  <wgt id="938">8.19063e-12</wgt>
  <wgt id="939">7.76843e-12</wgt>
  <wgt id="940">8.04931e-12</wgt>
  <wgt id="941">7.75349e-12</wgt>
  <wgt id="942">8.45865e-12</wgt>
  <wgt id="943">9.11618e-12</wgt>
  <wgt id="944">7.60768e-12</wgt>
  <wgt id="945">7.98651e-12</wgt>
  <wgt id="946">7.60326e-12</wgt>
  <wgt id="947">7.92397e-12</wgt>
  <wgt id="948">8.52184e-12</wgt>
  <wgt id="949">8.70861e-12</wgt>
  <wgt id="950">7.09918e-12</wgt>
  <wgt id="951">7.96072e-12</wgt>
  <wgt id="952">8.40158e-12</wgt>
  <wgt id="953">8.57043e-12</wgt>
  <wgt id="954">8.20327e-12</wgt>
  <wgt id="955">7.40283e-12</wgt>
  <wgt id="956">7.51794e-12</wgt>
  <wgt id="957">8.41625e-12</wgt>
  <wgt id="958">8.03364e-12</wgt>
  <wgt id="959">7.99808e-12</wgt>
  <wgt id="960">7.32126e-12</wgt>
  <wgt id="961">7.99855e-12</wgt>
  <wgt id="962">8.70787e-12</wgt>
  <wgt id="963">8.00612e-12</wgt>
  <wgt id="964">8.63429e-12</wgt>
  <wgt id="965">8.6649e-12</wgt>
  <wgt id="966">8.09136e-12</wgt>
  <wgt id="967">8.45302e-12</wgt>
  <wgt id="968">8.19763e-12</wgt>
  <wgt id="969">8.10479e-12</wgt>
  <wgt id="970">8.23894e-12</wgt>
  <wgt id="971">7.54188e-12</wgt>
  <wgt id="972">8.5531e-12</wgt>
  <wgt id="973">7.90337e-12</wgt>
  <wgt id="974">9.57784e-12</wgt>
  <wgt id="975">7.7696e-12</wgt>
  <wgt id="976">8.0356e-12</wgt>
  <wgt id="977">6.85553e-12</wgt>
  <wgt id="978">8.45854e-12</wgt>
  <wgt id="979">8.81609e-12</wgt>
  <wgt id="980">8.06029e-12</wgt>
  <wgt id="981">8.16409e-12</wgt>
  <wgt id="982">7.83573e-12</wgt>
</rwgt>
</event>
</LesHouchesEvents>