<LesHouchesEvents version="3.0">
<header>
<!--
#*********************************************************************
#                                                                    *
#                        MadGraph5_aMC@NLO                           *
#                                                                    *
#                           Going Beyond                             *
#                                                                    *
#                   http://madgraph.hep.uiuc.edu                     *
#                   http://madgraph.phys.ucl.ac.be                   *
#                   http://amcatnlo.cern.ch                          *
#                                                                    *
#                     The MadGraph5_aMC@NLO team                     *
#                                                                    *
#....................................................................*
#                                                                    *
# This file contains all the information necessary to reproduce      *
# the events generated:                                              *
#                                                                    *
# 1. software version                                                *
# 2. proc_card          : code generation info including model       *
# 3. param_card         : model primary parameters in the LH format  *
# 4. run_card           : running parameters (collider and cuts)     *
# 5. pythia_card        : present only if pythia has been run        *
# 6. pgs_card           : present only if pgs has been run           *
# 7. delphes_cards      : present only if delphes has been run       *
#                                                                    *
#                                                                    *
#*********************************************************************
-->
<MGVersion>
#5.2.4.2
</MGVersion>
<MG5ProcCard>
#************************************************************
#*                     MadGraph5_aMC@NLO                    *
#*                                                          *
#*                *                       *                 *
#*                  *        * *        *                   *
#*                    * * * * 5 * * * *                     *
#*                  *        * *        *                   *
#*                *                       *                 *
#*                                                          *
#*                                                          *
#*         VERSION 2.4.2                 2016-06-10         *
#*                                                          *
#*    The MadGraph5_aMC@NLO Development Team - Find us at   *
#*    https://server06.fynu.ucl.ac.be/projects/madgraph     *
#*                                                          *
#************************************************************
#*                                                          *
#*               Command File for MadGraph5_aMC@NLO         *
#*                                                          *
#*     run as ./bin/mg5_aMC  filename                       *
#*                                                          *
#************************************************************
set loop_optimized_output True
set loop_color_flows False
set max_npoint_for_channel 0
set group_subprocesses Auto
set ignore_six_quark_processes False
set gauge unitary
set complex_mass_scheme False
import model RS_bulk_ktilda
define j = g u c d s u~ c~ d~ s~
define l+ = e+ mu+
define l- = e- mu-
define vl = ve vm vt
define vl~ = ve~ vm~ vt~
define p = g u c d s u~ c~ d~ s~
generate p p > y > H H
output BulkGraviton_hh_M2400 -nojpeg
</MG5ProcCard>
<MGProcCard>
#*********************************************************************
#                        MadGraph/MadEvent                           *
#                   http://madgraph.hep.uiuc.edu                     *
#                                                                    *
#                          proc_card.dat                             *
#*********************************************************************
#                                                                    *
#            This Files is generated by MADGRAPH 5                   *
#                                                                    *
# WARNING: This Files is generated for MADEVENT (compatibility issue)*
#          This files is NOT a valid MG4 proc_card.dat               *
#          Running this in MG4 will NEVER reproduce the result of MG5*
#                                                                    *
#*********************************************************************
#*********************************************************************
# Process(es) requested : mg2 input                                  *
#*********************************************************************
# Begin PROCESS # This is TAG. Do not modify this line
p p > y > H H           #Process
# Be carefull the coupling are here in MG5 convention
          
end_coup           # End the couplings input

done               # this tells MG there are no more procs
# End PROCESS  # This is TAG. Do not modify this line
#*********************************************************************
# Model information                                                  *
#*********************************************************************
# Begin MODEL  # This is TAG. Do not modify this line
RS_bulk_ktilda
# End   MODEL  # This is TAG. Do not modify this line
#*********************************************************************
# Start multiparticle definitions                                    *
#*********************************************************************
# Begin MULTIPARTICLES # This is TAG. Do not modify this line

# End  MULTIPARTICLES # This is TAG. Do not modify this line
</MGProcCard>
<MGRunCard>
#*********************************************************************
#                       MadGraph5_aMC@NLO                            *
#                                                                    *
#                     run_card.dat MadEvent                          *
#                                                                    *
#  This file is used to set the parameters of the run.               *
#                                                                    *
#  Some notation/conventions:                                        *
#                                                                    *
#   Lines starting with a '# ' are info or comments                  *
#                                                                    *
#   mind the format:   value    = variable     ! comment             *
#*********************************************************************
#
#*******************                                                 
# Running parameters
#*******************                                                 
#                                                                    
#*********************************************************************
# Tag name for the run (one word)                                    *
#*********************************************************************
  tag_1	= run_tag ! name of the run 
#*********************************************************************
# Run to generate the grid pack                                      *
#*********************************************************************
  True	= gridpack !True = setting up the grid pack
#*********************************************************************
# Number of events and rnd seed                                      *
# Warning: Do not generate more than 1M events in a single run       *
# If you want to run Pythia, avoid more than 50k events in a run.    *
#*********************************************************************
  1000	= nevents ! Number of unweighted events requested 
 23410 = iseed ! rnd seed (0=assigned automatically=default))
#*********************************************************************
# Collider type and energy                                           *
# lpp: 0=No PDF, 1=proton, -1=antiproton, 2=photon from proton,      *
#                                         3=photon from electron     *
#*********************************************************************
  1	= lpp1 ! beam 1 type 
  1	= lpp2 ! beam 2 type
  6500.0	= ebeam1 ! beam 1 total energy in GeV
  6500.0	= ebeam2 ! beam 2 total energy in GeV
#*********************************************************************
# Beam polarization from -100 (left-handed) to 100 (right-handed)    *
#*********************************************************************
  0.0	= polbeam1 ! beam polarization for beam 1
  0.0	= polbeam2 ! beam polarization for beam 2
#*********************************************************************
# PDF CHOICE: this automatically fixes also alpha_s and its evol.    *
#*********************************************************************
  lhapdf	= pdlabel ! PDF set                                     
  320900	= lhaid ! if pdlabel=lhapdf, this is the lhapdf number
#*********************************************************************
# Renormalization and factorization scales                           *
#*********************************************************************
  False	= fixed_ren_scale ! if .true. use fixed ren scale
  False	= fixed_fac_scale ! if .true. use fixed fac scale
  91.188	= scale ! fixed ren scale
  91.188	= dsqrt_q2fact1 ! fixed fact scale for pdf1
  91.188	= dsqrt_q2fact2 ! fixed fact scale for pdf2
  -1	= dynamical_scale_choice ! Choose one of the preselected dynamical choices
  1.0	= scalefact ! scale factor for event-by-event scales
#*********************************************************************
# Time of flight information. (-1 means not run)
#*********************************************************************
  -1.0	= time_of_flight ! threshold below which info is not written
#*********************************************************************
# Matching - Warning! ickkw > 1 is still beta
#*********************************************************************
  0	= ickkw ! 0 no matching, 1 MLM, 2 CKKW matching
  1	= highestmult ! for ickkw=2, highest mult group
  1	= ktscheme ! for ickkw=1, 1 Durham kT, 2 Pythia pTE
  1.0	= alpsfact ! scale factor for QCD emission vx
  False	= chcluster ! cluster only according to channel diag
  False	= pdfwgt ! for ickkw=1, perform pdf reweighting
  5	= asrwgtflavor ! highest quark flavor for a_s reweight
  True	= clusinfo ! include clustering tag in output
  3.0	= lhe_version ! Change the way clustering information pass to shower.        
#*********************************************************************
#**********************************************************
#
#**********************************************************
# Automatic ptj and mjj cuts if xqcut > 0
# (turn off for VBF and single top processes)
#**********************************************************
  True	= auto_ptj_mjj ! Automatic setting of ptj and mjj
#**********************************************************
#                                                                    
#**********************************
# BW cutoff (M+/-bwcutoff*Gamma)
#**********************************
  15.0	= bwcutoff ! (M+/-bwcutoff*Gamma)
#**********************************************************
# Apply pt/E/eta/dr/mij/kt_durham cuts on decay products or not
# (note that etmiss/ptll/ptheavy/ht/sorted cuts always apply)
#*************************************************************
  False	= cut_decays ! Cut decay products 
#*************************************************************
# Number of helicities to sum per event (0 = all helicities)
# 0 gives more stable result, but longer run time (needed for
# long decay chains e.g.).
# Use >=2 if most helicities contribute, e.g. pure QCD.
#*************************************************************
  0	= nhel ! Number of helicities used per event
#*******************                                                 
# Standard Cuts
#*******************                                                 
#                                                                    
#*********************************************************************
# Minimum and maximum pt's (for max, -1 means no cut)                *
#*********************************************************************
  10.0	= ptj ! minimum pt for the jets 
  0.0	= ptb ! minimum pt for the b 
  10.0	= pta ! minimum pt for the photons 
  10.0	= ptl ! minimum pt for the charged leptons 
  0.0	= misset ! minimum missing Et (sum of neutrino's momenta)
  0.0	= ptheavy ! minimum pt for one heavy final state
  -1.0	= ptjmax ! maximum pt for the jets
  -1.0	= ptbmax ! maximum pt for the b
  -1.0	= ptamax ! maximum pt for the photons
  -1.0	= ptlmax ! maximum pt for the charged leptons
  -1.0	= missetmax ! maximum missing Et (sum of neutrino's momenta)
#*********************************************************************
# Minimum and maximum E's (in the center of mass frame)              *
#*********************************************************************
  0.0	= ej ! minimum E for the jets 
  0.0	= eb ! minimum E for the b 
  0.0	= ea ! minimum E for the photons 
  0.0	= el ! minimum E for the charged leptons 
  -1.0	= ejmax ! maximum E for the jets
  -1.0	= ebmax ! maximum E for the b
  -1.0	= eamax ! maximum E for the photons
  -1.0	= elmax ! maximum E for the charged leptons
#*********************************************************************
# Maximum and minimum absolute rapidity (for max, -1 means no cut)   *
#*********************************************************************
  -1.0	= etaj ! max rap for the jets 
  -1.0	= etab ! max rap for the b
  -1.0	= etaa ! max rap for the photons 
  -1.0	= etal ! max rap for the charged leptons 
  0.0	= etajmin ! min rap for the jets
  0.0	= etabmin ! min rap for the b
  0.0	= etaamin ! min rap for the photons
  0.0	= etalmin ! main rap for the charged leptons
#*********************************************************************
# Minimum and maximum DeltaR distance                                *
#*********************************************************************
  0.0001	= drjj ! min distance between jets 
  0.0	= drbb ! min distance between b's 
  0.0	= drll ! min distance between leptons 
  0.0	= draa ! min distance between gammas 
  0.0	= drbj ! min distance between b and jet 
  0.1	= draj ! min distance between gamma and jet 
  0.0	= drjl ! min distance between jet and lepton 
  0.0	= drab ! min distance between gamma and b 
  0.0	= drbl ! min distance between b and lepton 
  0.1	= dral ! min distance between gamma and lepton 
  -1.0	= drjjmax ! max distance between jets
  -1.0	= drbbmax ! max distance between b's
  -1.0	= drllmax ! max distance between leptons
  -1.0	= draamax ! max distance between gammas
  -1.0	= drbjmax ! max distance between b and jet
  -1.0	= drajmax ! max distance between gamma and jet
  -1.0	= drjlmax ! max distance between jet and lepton
  -1.0	= drabmax ! max distance between gamma and b
  -1.0	= drblmax ! max distance between b and lepton
  -1.0	= dralmax ! maxdistance between gamma and lepton
#*********************************************************************
# Minimum and maximum invariant mass for pairs                       *
# WARNING: for four lepton final state mmll cut require to have      *
#          different lepton masses for each flavor!                  *           
#*********************************************************************
  0.0	= mmjj ! min invariant mass of a jet pair 
  0.0	= mmbb ! min invariant mass of a b pair 
  0.0	= mmaa ! min invariant mass of gamma gamma pair
  0.0	= mmll ! min invariant mass of l+l- (same flavour) lepton pair
  -1.0	= mmjjmax ! max invariant mass of a jet pair
  -1.0	= mmbbmax ! max invariant mass of a b pair
  -1.0	= mmaamax ! max invariant mass of gamma gamma pair
  -1.0	= mmllmax ! max invariant mass of l+l- (same flavour) lepton pair
#*********************************************************************
# Minimum and maximum invariant mass for all letpons                 *
#*********************************************************************
  0.0	= mmnl ! min invariant mass for all letpons (l+- and vl) 
  -1.0	= mmnlmax ! max invariant mass for all letpons (l+- and vl) 
#*********************************************************************
# Minimum and maximum pt for 4-momenta sum of leptons                *
#*********************************************************************
  0.0	= ptllmin ! Minimum pt for 4-momenta sum of leptons(l and vl)
  -1.0	= ptllmax ! Maximum pt for 4-momenta sum of leptons(l and vl)
#*********************************************************************
# Inclusive cuts                                                     *
#*********************************************************************
  0.0	= xptj ! minimum pt for at least one jet  
  0.0	= xptb ! minimum pt for at least one b 
  0.0	= xpta ! minimum pt for at least one photon 
  0.0	= xptl ! minimum pt for at least one charged lepton 
#*********************************************************************
# Control the pt's of the jets sorted by pt                          *
#*********************************************************************
  0.0	= ptj1min ! minimum pt for the leading jet in pt
  0.0	= ptj2min ! minimum pt for the second jet in pt
  0.0	= ptj3min ! minimum pt for the third jet in pt
  0.0	= ptj4min ! minimum pt for the fourth jet in pt
  -1.0	= ptj1max ! maximum pt for the leading jet in pt 
  -1.0	= ptj2max ! maximum pt for the second jet in pt
  -1.0	= ptj3max ! maximum pt for the third jet in pt
  -1.0	= ptj4max ! maximum pt for the fourth jet in pt
  0	= cutuse ! reject event if fails any (0) / all (1) jet pt cuts
#*********************************************************************
# Control the pt's of leptons sorted by pt                           *
#*********************************************************************
  0.0	= ptl1min ! minimum pt for the leading lepton in pt
  0.0	= ptl2min ! minimum pt for the second lepton in pt
  0.0	= ptl3min ! minimum pt for the third lepton in pt
  0.0	= ptl4min ! minimum pt for the fourth lepton in pt
  -1.0	= ptl1max ! maximum pt for the leading lepton in pt 
  -1.0	= ptl2max ! maximum pt for the second lepton in pt
  -1.0	= ptl3max ! maximum pt for the third lepton in pt
  -1.0	= ptl4max ! maximum pt for the fourth lepton in pt
#*********************************************************************
# Control the Ht(k)=Sum of k leading jets                            *
#*********************************************************************
  0.0	= htjmin ! minimum jet HT=Sum(jet pt)
  -1.0	= htjmax ! maximum jet HT=Sum(jet pt)
  0.0	= ihtmin !inclusive Ht for all partons (including b)
  -1.0	= ihtmax !inclusive Ht for all partons (including b)
  0.0	= ht2min ! minimum Ht for the two leading jets
  0.0	= ht3min ! minimum Ht for the three leading jets
  0.0	= ht4min ! minimum Ht for the four leading jets
  -1.0	= ht2max ! maximum Ht for the two leading jets
  -1.0	= ht3max ! maximum Ht for the three leading jets
  -1.0	= ht4max ! maximum Ht for the four leading jets
#***********************************************************************
# Photon-isolation cuts, according to hep-ph/9801442                   *
# When ptgmin=0, all the other parameters are ignored                  *
# When ptgmin>0, pta and draj are not going to be used                 *
#***********************************************************************
  0.0	= ptgmin ! Min photon transverse momentum
  0.4	= r0gamma ! Radius of isolation code
  1.0	= xn ! n parameter of eq.(3.4) in hep-ph/9801442
  1.0	= epsgamma ! epsilon_gamma parameter of eq.(3.4) in hep-ph/9801442
  True	= isoem ! isolate photons from EM energy (photons and leptons)
#*********************************************************************
# WBF cuts                                                           *
#*********************************************************************
  0.0	= xetamin ! minimum rapidity for two jets in the WBF case  
  0.0	= deltaeta ! minimum rapidity for two jets in the WBF case 
#*********************************************************************
# KT DURHAM CUT                                                      *
#*********************************************************************
  -1.0	= ktdurham 
  0.4	= dparameter 
#*********************************************************************
# maximal pdg code for quark to be considered as a light jet         *
# (otherwise b cuts are applied)                                     *
#*********************************************************************
  4	= maxjetflavor ! Maximum jet pdg code
#*********************************************************************
# Jet measure cuts                                                   *
#*********************************************************************
  0.0	= xqcut ! minimum kt jet measure between partons
#*********************************************************************
#
#*********************************************************************
# Store info for systematics studies                                 *
# WARNING: If use_syst is T, matched Pythia output is                *
#          meaningful ONLY if plotted taking matchscale              *
#          reweighting into account!                                 *
#*********************************************************************
  True	= use_syst ! Enable systematics studies
#
#**************************************
# Parameter of the systematics study
#  will be used by SysCalc (if installed)
#**************************************                                  
#
  0.5 1 2	= sys_scalefact # factorization/renormalization scale factor
  None	= sys_alpsfact # \alpha_s emission scale factors
  30 50	= sys_matchscale # variation of merging scale
# PDF sets and number of members (0 or none for all members).
  NNPDF23_lo_as_0130_qed	= sys_pdf # matching scales
# MSTW2008nlo68cl.LHgrid 1  = sys_pdf
#********************************************************************* 
#  Additional parameter
#*********************************************************************
  1.0	= ptonium # hidden parameter
  -1.0	= etaonium # hidden parameter
</MGRunCard>
<slha>
######################################################################
## PARAM_CARD AUTOMATICALY GENERATED BY MG5                       ####
######################################################################
###################################
## INFORMATION FOR CKMBLOCK
###################################
BLOCK CKMBLOCK # 
      1 4.880000e-01 # cabi
###################################
## INFORMATION FOR FRBLOCK
###################################
BLOCK FRBLOCK # 
      1 3.000000e+03 # lrs
      2 1.000000e-01 # ktilda
      3 1.000000e-04 # clight
      4 1.000000e+00 # ctop
      5 1.370000e-02 # cg
      6 2.312000e-01 # sw2
###################################
## INFORMATION FOR MASS
###################################
BLOCK MASS # 
      4 0.000000e+00 # mc
      5 4.800000e+00 # mb
      6 1.725000e+02 # mt
      15 1.777000e+00 # mta
      23 9.118760e+01 # mz
      24 8.038500e+01 # mw
      25 1.250000e+02 # mh
      39 2.400000e+03 # mgr
      1 0.000000e+00 # d : 0.0
      2 0.000000e+00 # u : 0.0
      3 0.000000e+00 # s : 0.0
      11 0.000000e+00 # e- : 0.0
      12 0.000000e+00 # ve : 0.0
      13 0.000000e+00 # mu- : 0.0
      14 0.000000e+00 # vm : 0.0
      16 0.000000e+00 # vt : 0.0
      21 0.000000e+00 # g : 0.0
      22 0.000000e+00 # a : 0.0
###################################
## INFORMATION FOR SMINPUTS
###################################
BLOCK SMINPUTS # 
      1 1.279000e+02 # aewm1
      2 1.166378e-05 # gf
      3 1.180000e-01 # as
###################################
## INFORMATION FOR YUKAWA
###################################
BLOCK YUKAWA # 
      4 0.000000e+00 # ymc
      5 4.800000e+00 # ymb
      6 1.725000e+02 # ymt
      15 1.777000e+00 # ymtau
###################################
## INFORMATION FOR DECAY
###################################
DECAY 6 1.491500e+00 # wt
DECAY 23 2.495200e+00 # wz
DECAY 24 2.085000e+00 # ww
DECAY 25 6.382339e-03 # wh
DECAY 39 1.200000e+02 # wgr
DECAY 1 0.000000e+00 # d : 0.0
DECAY 2 0.000000e+00 # u : 0.0
DECAY 3 0.000000e+00 # s : 0.0
DECAY 4 0.000000e+00 # c : 0.0
DECAY 5 0.000000e+00 # b : 0.0
DECAY 11 0.000000e+00 # e- : 0.0
DECAY 12 0.000000e+00 # ve : 0.0
DECAY 13 0.000000e+00 # mu- : 0.0
DECAY 14 0.000000e+00 # vm : 0.0
DECAY 15 0.000000e+00 # ta- : 0.0
DECAY 16 0.000000e+00 # vt : 0.0
DECAY 21 0.000000e+00 # g : 0.0
DECAY 22 0.000000e+00 # a : 0.0
###################################
## INFORMATION FOR QNUMBERS 39
###################################
BLOCK QNUMBERS 39 #  y
      1 0 # 3 times electric charge
      2 5 # number of spin states (2s+1)
      3 1 # colour rep (1: singlet, 3: triplet, 8: octet)
      4 0 # particle/antiparticle distinction (0=own anti)
</slha>
## END BANNER##
<MGGenerationInfo>
#  Number of Events        :         5000
#  Integrated weight (pb)  :  0.15124E-07
#  Truncated wgt (pb)      :  0.00000E+00
#  Unit wgt                :  0.30282E-11
</MGGenerationInfo>
<initrwgt>
  <weightgroup name="Central scale variation" combine="envelope">
    <weight id="1" MUR="1" MUF="1" PDF="320900"> mur=1 muf=1 </weight>
    <weight id="2" MUR="1" MUF="2" PDF="320900"> mur=1 muf=2 </weight>
    <weight id="3" MUR="1" MUF="0.5" PDF="320900"> mur=1 muf=0.5 </weight>
    <weight id="4" MUR="2" MUF="1" PDF="320900"> mur=2 muf=1 </weight>
    <weight id="5" MUR="2" MUF="2" PDF="320900"> mur=2 muf=2 </weight>
    <weight id="6" MUR="2" MUF="0.5" PDF="320900"> mur=2 muf=0.5 </weight>
    <weight id="7" MUR="0.5" MUF="1" PDF="320900"> mur=0.5 muf=1 </weight>
    <weight id="8" MUR="0.5" MUF="2" PDF="320900"> mur=0.5 muf=2 </weight>
    <weight id="9" MUR="0.5" MUF="0.5" PDF="320900"> mur=0.5 muf=0.5 </weight>
  </weightgroup>
  <weightgroup name="NNPDF31_nnlo_hessian_pdfas" combine="hessian">
    <weight id="10" MUR="1" MUF="1" PDF="306000"> Member 0 of sets NNPDF31_nnlo_hessian_pdfas</weight>
    <weight id="11" MUR="1" MUF="1" PDF="306001"> Member 1 of sets NNPDF31_nnlo_hessian_pdfas</weight>
    <weight id="12" MUR="1" MUF="1" PDF="306002"> Member 2 of sets NNPDF31_nnlo_hessian_pdfas</weight>
    <weight id="13" MUR="1" MUF="1" PDF="306003"> Member 3 of sets NNPDF31_nnlo_hessian_pdfas</weight>
    <weight id="14" MUR="1" MUF="1" PDF="306004"> Member 4 of sets NNPDF31_nnlo_hessian_pdfas</weight>
    <weight id="15" MUR="1" MUF="1" PDF="306005"> Member 5 of sets NNPDF31_nnlo_hessian_pdfas</weight>
    <weight id="16" MUR="1" MUF="1" PDF="306006"> Member 6 of sets NNPDF31_nnlo_hessian_pdfas</weight>
    <weight id="17" MUR="1" MUF="1" PDF="306007"> Member 7 of sets NNPDF31_nnlo_hessian_pdfas</weight>
    <weight id="18" MUR="1" MUF="1" PDF="306008"> Member 8 of sets NNPDF31_nnlo_hessian_pdfas</weight>
    <weight id="19" MUR="1" MUF="1" PDF="306009"> Member 9 of sets NNPDF31_nnlo_hessian_pdfas</weight>
    <weight id="20" MUR="1" MUF="1" PDF="306010"> Member 10 of sets NNPDF31_nnlo_hessian_pdfas</weight>
    <weight id="21" MUR="1" MUF="1" PDF="306011"> Member 11 of sets NNPDF31_nnlo_hessian_pdfas</weight>
    <weight id="22" MUR="1" MUF="1" PDF="306012"> Member 12 of sets NNPDF31_nnlo_hessian_pdfas</weight>
    <weight id="23" MUR="1" MUF="1" PDF="306013"> Member 13 of sets NNPDF31_nnlo_hessian_pdfas</weight>
    <weight id="24" MUR="1" MUF="1" PDF="306014"> Member 14 of sets NNPDF31_nnlo_hessian_pdfas</weight>
    <weight id="25" MUR="1" MUF="1" PDF="306015"> Member 15 of sets NNPDF31_nnlo_hessian_pdfas</weight>
    <weight id="26" MUR="1" MUF="1" PDF="306016"> Member 16 of sets NNPDF31_nnlo_hessian_pdfas</weight>
    <weight id="27" MUR="1" MUF="1" PDF="306017"> Member 17 of sets NNPDF31_nnlo_hessian_pdfas</weight>
    <weight id="28" MUR="1" MUF="1" PDF="306018"> Member 18 of sets NNPDF31_nnlo_hessian_pdfas</weight>
    <weight id="29" MUR="1" MUF="1" PDF="306019"> Member 19 of sets NNPDF31_nnlo_hessian_pdfas</weight>
    <weight id="30" MUR="1" MUF="1" PDF="306020"> Member 20 of sets NNPDF31_nnlo_hessian_pdfas</weight>
    <weight id="31" MUR="1" MUF="1" PDF="306021"> Member 21 of sets NNPDF31_nnlo_hessian_pdfas</weight>
    <weight id="32" MUR="1" MUF="1" PDF="306022"> Member 22 of sets NNPDF31_nnlo_hessian_pdfas</weight>
    <weight id="33" MUR="1" MUF="1" PDF="306023"> Member 23 of sets NNPDF31_nnlo_hessian_pdfas</weight>
    <weight id="34" MUR="1" MUF="1" PDF="306024"> Member 24 of sets NNPDF31_nnlo_hessian_pdfas</weight>
    <weight id="35" MUR="1" MUF="1" PDF="306025"> Member 25 of sets NNPDF31_nnlo_hessian_pdfas</weight>
    <weight id="36" MUR="1" MUF="1" PDF="306026"> Member 26 of sets NNPDF31_nnlo_hessian_pdfas</weight>
    <weight id="37" MUR="1" MUF="1" PDF="306027"> Member 27 of sets NNPDF31_nnlo_hessian_pdfas</weight>
    <weight id="38" MUR="1" MUF="1" PDF="306028"> Member 28 of sets NNPDF31_nnlo_hessian_pdfas</weight>
    <weight id="39" MUR="1" MUF="1" PDF="306029"> Member 29 of sets NNPDF31_nnlo_hessian_pdfas</weight>
    <weight id="40" MUR="1" MUF="1" PDF="306030"> Member 30 of sets NNPDF31_nnlo_hessian_pdfas</weight>
    <weight id="41" MUR="1" MUF="1" PDF="306031"> Member 31 of sets NNPDF31_nnlo_hessian_pdfas</weight>
    <weight id="42" MUR="1" MUF="1" PDF="306032"> Member 32 of sets NNPDF31_nnlo_hessian_pdfas</weight>
    <weight id="43" MUR="1" MUF="1" PDF="306033"> Member 33 of sets NNPDF31_nnlo_hessian_pdfas</weight>
    <weight id="44" MUR="1" MUF="1" PDF="306034"> Member 34 of sets NNPDF31_nnlo_hessian_pdfas</weight>
    <weight id="45" MUR="1" MUF="1" PDF="306035"> Member 35 of sets NNPDF31_nnlo_hessian_pdfas</weight>
    <weight id="46" MUR="1" MUF="1" PDF="306036"> Member 36 of sets NNPDF31_nnlo_hessian_pdfas</weight>
    <weight id="47" MUR="1" MUF="1" PDF="306037"> Member 37 of sets NNPDF31_nnlo_hessian_pdfas</weight>
    <weight id="48" MUR="1" MUF="1" PDF="306038"> Member 38 of sets NNPDF31_nnlo_hessian_pdfas</weight>
    <weight id="49" MUR="1" MUF="1" PDF="306039"> Member 39 of sets NNPDF31_nnlo_hessian_pdfas</weight>
    <weight id="50" MUR="1" MUF="1" PDF="306040"> Member 40 of sets NNPDF31_nnlo_hessian_pdfas</weight>
    <weight id="51" MUR="1" MUF="1" PDF="306041"> Member 41 of sets NNPDF31_nnlo_hessian_pdfas</weight>
    <weight id="52" MUR="1" MUF="1" PDF="306042"> Member 42 of sets NNPDF31_nnlo_hessian_pdfas</weight>
    <weight id="53" MUR="1" MUF="1" PDF="306043"> Member 43 of sets NNPDF31_nnlo_hessian_pdfas</weight>
    <weight id="54" MUR="1" MUF="1" PDF="306044"> Member 44 of sets NNPDF31_nnlo_hessian_pdfas</weight>
    <weight id="55" MUR="1" MUF="1" PDF="306045"> Member 45 of sets NNPDF31_nnlo_hessian_pdfas</weight>
    <weight id="56" MUR="1" MUF="1" PDF="306046"> Member 46 of sets NNPDF31_nnlo_hessian_pdfas</weight>
    <weight id="57" MUR="1" MUF="1" PDF="306047"> Member 47 of sets NNPDF31_nnlo_hessian_pdfas</weight>
    <weight id="58" MUR="1" MUF="1" PDF="306048"> Member 48 of sets NNPDF31_nnlo_hessian_pdfas</weight>
    <weight id="59" MUR="1" MUF="1" PDF="306049"> Member 49 of sets NNPDF31_nnlo_hessian_pdfas</weight>
    <weight id="60" MUR="1" MUF="1" PDF="306050"> Member 50 of sets NNPDF31_nnlo_hessian_pdfas</weight>
    <weight id="61" MUR="1" MUF="1" PDF="306051"> Member 51 of sets NNPDF31_nnlo_hessian_pdfas</weight>
    <weight id="62" MUR="1" MUF="1" PDF="306052"> Member 52 of sets NNPDF31_nnlo_hessian_pdfas</weight>
    <weight id="63" MUR="1" MUF="1" PDF="306053"> Member 53 of sets NNPDF31_nnlo_hessian_pdfas</weight>
    <weight id="64" MUR="1" MUF="1" PDF="306054"> Member 54 of sets NNPDF31_nnlo_hessian_pdfas</weight>
    <weight id="65" MUR="1" MUF="1" PDF="306055"> Member 55 of sets NNPDF31_nnlo_hessian_pdfas</weight>
    <weight id="66" MUR="1" MUF="1" PDF="306056"> Member 56 of sets NNPDF31_nnlo_hessian_pdfas</weight>
    <weight id="67" MUR="1" MUF="1" PDF="306057"> Member 57 of sets NNPDF31_nnlo_hessian_pdfas</weight>
    <weight id="68" MUR="1" MUF="1" PDF="306058"> Member 58 of sets NNPDF31_nnlo_hessian_pdfas</weight>
    <weight id="69" MUR="1" MUF="1" PDF="306059"> Member 59 of sets NNPDF31_nnlo_hessian_pdfas</weight>
    <weight id="70" MUR="1" MUF="1" PDF="306060"> Member 60 of sets NNPDF31_nnlo_hessian_pdfas</weight>
    <weight id="71" MUR="1" MUF="1" PDF="306061"> Member 61 of sets NNPDF31_nnlo_hessian_pdfas</weight>
    <weight id="72" MUR="1" MUF="1" PDF="306062"> Member 62 of sets NNPDF31_nnlo_hessian_pdfas</weight>
    <weight id="73" MUR="1" MUF="1" PDF="306063"> Member 63 of sets NNPDF31_nnlo_hessian_pdfas</weight>
    <weight id="74" MUR="1" MUF="1" PDF="306064"> Member 64 of sets NNPDF31_nnlo_hessian_pdfas</weight>
    <weight id="75" MUR="1" MUF="1" PDF="306065"> Member 65 of sets NNPDF31_nnlo_hessian_pdfas</weight>
    <weight id="76" MUR="1" MUF="1" PDF="306066"> Member 66 of sets NNPDF31_nnlo_hessian_pdfas</weight>
    <weight id="77" MUR="1" MUF="1" PDF="306067"> Member 67 of sets NNPDF31_nnlo_hessian_pdfas</weight>
    <weight id="78" MUR="1" MUF="1" PDF="306068"> Member 68 of sets NNPDF31_nnlo_hessian_pdfas</weight>
    <weight id="79" MUR="1" MUF="1" PDF="306069"> Member 69 of sets NNPDF31_nnlo_hessian_pdfas</weight>
    <weight id="80" MUR="1" MUF="1" PDF="306070"> Member 70 of sets NNPDF31_nnlo_hessian_pdfas</weight>
    <weight id="81" MUR="1" MUF="1" PDF="306071"> Member 71 of sets NNPDF31_nnlo_hessian_pdfas</weight>
    <weight id="82" MUR="1" MUF="1" PDF="306072"> Member 72 of sets NNPDF31_nnlo_hessian_pdfas</weight>
    <weight id="83" MUR="1" MUF="1" PDF="306073"> Member 73 of sets NNPDF31_nnlo_hessian_pdfas</weight>
    <weight id="84" MUR="1" MUF="1" PDF="306074"> Member 74 of sets NNPDF31_nnlo_hessian_pdfas</weight>
    <weight id="85" MUR="1" MUF="1" PDF="306075"> Member 75 of sets NNPDF31_nnlo_hessian_pdfas</weight>
    <weight id="86" MUR="1" MUF="1" PDF="306076"> Member 76 of sets NNPDF31_nnlo_hessian_pdfas</weight>
    <weight id="87" MUR="1" MUF="1" PDF="306077"> Member 77 of sets NNPDF31_nnlo_hessian_pdfas</weight>
    <weight id="88" MUR="1" MUF="1" PDF="306078"> Member 78 of sets NNPDF31_nnlo_hessian_pdfas</weight>
    <weight id="89" MUR="1" MUF="1" PDF="306079"> Member 79 of sets NNPDF31_nnlo_hessian_pdfas</weight>
    <weight id="90" MUR="1" MUF="1" PDF="306080"> Member 80 of sets NNPDF31_nnlo_hessian_pdfas</weight>
    <weight id="91" MUR="1" MUF="1" PDF="306081"> Member 81 of sets NNPDF31_nnlo_hessian_pdfas</weight>
    <weight id="92" MUR="1" MUF="1" PDF="306082"> Member 82 of sets NNPDF31_nnlo_hessian_pdfas</weight>
    <weight id="93" MUR="1" MUF="1" PDF="306083"> Member 83 of sets NNPDF31_nnlo_hessian_pdfas</weight>
    <weight id="94" MUR="1" MUF="1" PDF="306084"> Member 84 of sets NNPDF31_nnlo_hessian_pdfas</weight>
    <weight id="95" MUR="1" MUF="1" PDF="306085"> Member 85 of sets NNPDF31_nnlo_hessian_pdfas</weight>
    <weight id="96" MUR="1" MUF="1" PDF="306086"> Member 86 of sets NNPDF31_nnlo_hessian_pdfas</weight>
    <weight id="97" MUR="1" MUF="1" PDF="306087"> Member 87 of sets NNPDF31_nnlo_hessian_pdfas</weight>
    <weight id="98" MUR="1" MUF="1" PDF="306088"> Member 88 of sets NNPDF31_nnlo_hessian_pdfas</weight>
    <weight id="99" MUR="1" MUF="1" PDF="306089"> Member 89 of sets NNPDF31_nnlo_hessian_pdfas</weight>
    <weight id="100" MUR="1" MUF="1" PDF="306090"> Member 90 of sets NNPDF31_nnlo_hessian_pdfas</weight>
    <weight id="101" MUR="1" MUF="1" PDF="306091"> Member 91 of sets NNPDF31_nnlo_hessian_pdfas</weight>
    <weight id="102" MUR="1" MUF="1" PDF="306092"> Member 92 of sets NNPDF31_nnlo_hessian_pdfas</weight>
    <weight id="103" MUR="1" MUF="1" PDF="306093"> Member 93 of sets NNPDF31_nnlo_hessian_pdfas</weight>
    <weight id="104" MUR="1" MUF="1" PDF="306094"> Member 94 of sets NNPDF31_nnlo_hessian_pdfas</weight>
    <weight id="105" MUR="1" MUF="1" PDF="306095"> Member 95 of sets NNPDF31_nnlo_hessian_pdfas</weight>
    <weight id="106" MUR="1" MUF="1" PDF="306096"> Member 96 of sets NNPDF31_nnlo_hessian_pdfas</weight>
    <weight id="107" MUR="1" MUF="1" PDF="306097"> Member 97 of sets NNPDF31_nnlo_hessian_pdfas</weight>
    <weight id="108" MUR="1" MUF="1" PDF="306098"> Member 98 of sets NNPDF31_nnlo_hessian_pdfas</weight>
    <weight id="109" MUR="1" MUF="1" PDF="306099"> Member 99 of sets NNPDF31_nnlo_hessian_pdfas</weight>
    <weight id="110" MUR="1" MUF="1" PDF="306100"> Member 100 of sets NNPDF31_nnlo_hessian_pdfas</weight>
    <weight id="111" MUR="1" MUF="1" PDF="306101"> Member 101 of sets NNPDF31_nnlo_hessian_pdfas</weight>
    <weight id="112" MUR="1" MUF="1" PDF="306102"> Member 102 of sets NNPDF31_nnlo_hessian_pdfas</weight>
  </weightgroup>
  <weightgroup name="CT10nlo_nf4" combine="hessian">
    <weight id="113" MUR="1" MUF="1" PDF="11082"> Member 0 of sets CT10nlo_nf4</weight>
  </weightgroup>
  <weightgroup name="CT14nnlo_NF4" combine="hessian">
    <weight id="114" MUR="1" MUF="1" PDF="13091"> Member 0 of sets CT14nnlo_NF4</weight>
  </weightgroup>
  <weightgroup name="CT14nlo_NF4" combine="hessian">
    <weight id="115" MUR="1" MUF="1" PDF="13191"> Member 0 of sets CT14nlo_NF4</weight>
  </weightgroup>
  <weightgroup name="CT14lo_NF4" combine="hessian">
    <weight id="116" MUR="1" MUF="1" PDF="13202"> Member 0 of sets CT14lo_NF4</weight>
  </weightgroup>
  <weightgroup name="MSTW2008lo68cl_nf4" combine="hessian">
    <weight id="117" MUR="1" MUF="1" PDF="23100"> Member 0 of sets MSTW2008lo68cl_nf4</weight>
    <weight id="118" MUR="1" MUF="1" PDF="23101"> Member 1 of sets MSTW2008lo68cl_nf4</weight>
    <weight id="119" MUR="1" MUF="1" PDF="23102"> Member 2 of sets MSTW2008lo68cl_nf4</weight>
    <weight id="120" MUR="1" MUF="1" PDF="23103"> Member 3 of sets MSTW2008lo68cl_nf4</weight>
    <weight id="121" MUR="1" MUF="1" PDF="23104"> Member 4 of sets MSTW2008lo68cl_nf4</weight>
    <weight id="122" MUR="1" MUF="1" PDF="23105"> Member 5 of sets MSTW2008lo68cl_nf4</weight>
    <weight id="123" MUR="1" MUF="1" PDF="23106"> Member 6 of sets MSTW2008lo68cl_nf4</weight>
    <weight id="124" MUR="1" MUF="1" PDF="23107"> Member 7 of sets MSTW2008lo68cl_nf4</weight>
    <weight id="125" MUR="1" MUF="1" PDF="23108"> Member 8 of sets MSTW2008lo68cl_nf4</weight>
    <weight id="126" MUR="1" MUF="1" PDF="23109"> Member 9 of sets MSTW2008lo68cl_nf4</weight>
    <weight id="127" MUR="1" MUF="1" PDF="23110"> Member 10 of sets MSTW2008lo68cl_nf4</weight>
    <weight id="128" MUR="1" MUF="1" PDF="23111"> Member 11 of sets MSTW2008lo68cl_nf4</weight>
    <weight id="129" MUR="1" MUF="1" PDF="23112"> Member 12 of sets MSTW2008lo68cl_nf4</weight>
    <weight id="130" MUR="1" MUF="1" PDF="23113"> Member 13 of sets MSTW2008lo68cl_nf4</weight>
    <weight id="131" MUR="1" MUF="1" PDF="23114"> Member 14 of sets MSTW2008lo68cl_nf4</weight>
    <weight id="132" MUR="1" MUF="1" PDF="23115"> Member 15 of sets MSTW2008lo68cl_nf4</weight>
    <weight id="133" MUR="1" MUF="1" PDF="23116"> Member 16 of sets MSTW2008lo68cl_nf4</weight>
    <weight id="134" MUR="1" MUF="1" PDF="23117"> Member 17 of sets MSTW2008lo68cl_nf4</weight>
    <weight id="135" MUR="1" MUF="1" PDF="23118"> Member 18 of sets MSTW2008lo68cl_nf4</weight>
    <weight id="136" MUR="1" MUF="1" PDF="23119"> Member 19 of sets MSTW2008lo68cl_nf4</weight>
    <weight id="137" MUR="1" MUF="1" PDF="23120"> Member 20 of sets MSTW2008lo68cl_nf4</weight>
    <weight id="138" MUR="1" MUF="1" PDF="23121"> Member 21 of sets MSTW2008lo68cl_nf4</weight>
    <weight id="139" MUR="1" MUF="1" PDF="23122"> Member 22 of sets MSTW2008lo68cl_nf4</weight>
    <weight id="140" MUR="1" MUF="1" PDF="23123"> Member 23 of sets MSTW2008lo68cl_nf4</weight>
    <weight id="141" MUR="1" MUF="1" PDF="23124"> Member 24 of sets MSTW2008lo68cl_nf4</weight>
    <weight id="142" MUR="1" MUF="1" PDF="23125"> Member 25 of sets MSTW2008lo68cl_nf4</weight>
    <weight id="143" MUR="1" MUF="1" PDF="23126"> Member 26 of sets MSTW2008lo68cl_nf4</weight>
    <weight id="144" MUR="1" MUF="1" PDF="23127"> Member 27 of sets MSTW2008lo68cl_nf4</weight>
    <weight id="145" MUR="1" MUF="1" PDF="23128"> Member 28 of sets MSTW2008lo68cl_nf4</weight>
    <weight id="146" MUR="1" MUF="1" PDF="23129"> Member 29 of sets MSTW2008lo68cl_nf4</weight>
    <weight id="147" MUR="1" MUF="1" PDF="23130"> Member 30 of sets MSTW2008lo68cl_nf4</weight>
    <weight id="148" MUR="1" MUF="1" PDF="23131"> Member 31 of sets MSTW2008lo68cl_nf4</weight>
    <weight id="149" MUR="1" MUF="1" PDF="23132"> Member 32 of sets MSTW2008lo68cl_nf4</weight>
    <weight id="150" MUR="1" MUF="1" PDF="23133"> Member 33 of sets MSTW2008lo68cl_nf4</weight>
    <weight id="151" MUR="1" MUF="1" PDF="23134"> Member 34 of sets MSTW2008lo68cl_nf4</weight>
    <weight id="152" MUR="1" MUF="1" PDF="23135"> Member 35 of sets MSTW2008lo68cl_nf4</weight>
    <weight id="153" MUR="1" MUF="1" PDF="23136"> Member 36 of sets MSTW2008lo68cl_nf4</weight>
    <weight id="154" MUR="1" MUF="1" PDF="23137"> Member 37 of sets MSTW2008lo68cl_nf4</weight>
    <weight id="155" MUR="1" MUF="1" PDF="23138"> Member 38 of sets MSTW2008lo68cl_nf4</weight>
    <weight id="156" MUR="1" MUF="1" PDF="23139"> Member 39 of sets MSTW2008lo68cl_nf4</weight>
    <weight id="157" MUR="1" MUF="1" PDF="23140"> Member 40 of sets MSTW2008lo68cl_nf4</weight>
  </weightgroup>
  <weightgroup name="MSTW2008nlo68cl_nf4" combine="hessian">
    <weight id="158" MUR="1" MUF="1" PDF="23300"> Member 0 of sets MSTW2008nlo68cl_nf4</weight>
    <weight id="159" MUR="1" MUF="1" PDF="23301"> Member 1 of sets MSTW2008nlo68cl_nf4</weight>
    <weight id="160" MUR="1" MUF="1" PDF="23302"> Member 2 of sets MSTW2008nlo68cl_nf4</weight>
    <weight id="161" MUR="1" MUF="1" PDF="23303"> Member 3 of sets MSTW2008nlo68cl_nf4</weight>
    <weight id="162" MUR="1" MUF="1" PDF="23304"> Member 4 of sets MSTW2008nlo68cl_nf4</weight>
    <weight id="163" MUR="1" MUF="1" PDF="23305"> Member 5 of sets MSTW2008nlo68cl_nf4</weight>
    <weight id="164" MUR="1" MUF="1" PDF="23306"> Member 6 of sets MSTW2008nlo68cl_nf4</weight>
    <weight id="165" MUR="1" MUF="1" PDF="23307"> Member 7 of sets MSTW2008nlo68cl_nf4</weight>
    <weight id="166" MUR="1" MUF="1" PDF="23308"> Member 8 of sets MSTW2008nlo68cl_nf4</weight>
    <weight id="167" MUR="1" MUF="1" PDF="23309"> Member 9 of sets MSTW2008nlo68cl_nf4</weight>
    <weight id="168" MUR="1" MUF="1" PDF="23310"> Member 10 of sets MSTW2008nlo68cl_nf4</weight>
    <weight id="169" MUR="1" MUF="1" PDF="23311"> Member 11 of sets MSTW2008nlo68cl_nf4</weight>
    <weight id="170" MUR="1" MUF="1" PDF="23312"> Member 12 of sets MSTW2008nlo68cl_nf4</weight>
    <weight id="171" MUR="1" MUF="1" PDF="23313"> Member 13 of sets MSTW2008nlo68cl_nf4</weight>
    <weight id="172" MUR="1" MUF="1" PDF="23314"> Member 14 of sets MSTW2008nlo68cl_nf4</weight>
    <weight id="173" MUR="1" MUF="1" PDF="23315"> Member 15 of sets MSTW2008nlo68cl_nf4</weight>
    <weight id="174" MUR="1" MUF="1" PDF="23316"> Member 16 of sets MSTW2008nlo68cl_nf4</weight>
    <weight id="175" MUR="1" MUF="1" PDF="23317"> Member 17 of sets MSTW2008nlo68cl_nf4</weight>
    <weight id="176" MUR="1" MUF="1" PDF="23318"> Member 18 of sets MSTW2008nlo68cl_nf4</weight>
    <weight id="177" MUR="1" MUF="1" PDF="23319"> Member 19 of sets MSTW2008nlo68cl_nf4</weight>
    <weight id="178" MUR="1" MUF="1" PDF="23320"> Member 20 of sets MSTW2008nlo68cl_nf4</weight>
    <weight id="179" MUR="1" MUF="1" PDF="23321"> Member 21 of sets MSTW2008nlo68cl_nf4</weight>
    <weight id="180" MUR="1" MUF="1" PDF="23322"> Member 22 of sets MSTW2008nlo68cl_nf4</weight>
    <weight id="181" MUR="1" MUF="1" PDF="23323"> Member 23 of sets MSTW2008nlo68cl_nf4</weight>
    <weight id="182" MUR="1" MUF="1" PDF="23324"> Member 24 of sets MSTW2008nlo68cl_nf4</weight>
    <weight id="183" MUR="1" MUF="1" PDF="23325"> Member 25 of sets MSTW2008nlo68cl_nf4</weight>
    <weight id="184" MUR="1" MUF="1" PDF="23326"> Member 26 of sets MSTW2008nlo68cl_nf4</weight>
    <weight id="185" MUR="1" MUF="1" PDF="23327"> Member 27 of sets MSTW2008nlo68cl_nf4</weight>
    <weight id="186" MUR="1" MUF="1" PDF="23328"> Member 28 of sets MSTW2008nlo68cl_nf4</weight>
    <weight id="187" MUR="1" MUF="1" PDF="23329"> Member 29 of sets MSTW2008nlo68cl_nf4</weight>
    <weight id="188" MUR="1" MUF="1" PDF="23330"> Member 30 of sets MSTW2008nlo68cl_nf4</weight>
    <weight id="189" MUR="1" MUF="1" PDF="23331"> Member 31 of sets MSTW2008nlo68cl_nf4</weight>
    <weight id="190" MUR="1" MUF="1" PDF="23332"> Member 32 of sets MSTW2008nlo68cl_nf4</weight>
    <weight id="191" MUR="1" MUF="1" PDF="23333"> Member 33 of sets MSTW2008nlo68cl_nf4</weight>
    <weight id="192" MUR="1" MUF="1" PDF="23334"> Member 34 of sets MSTW2008nlo68cl_nf4</weight>
    <weight id="193" MUR="1" MUF="1" PDF="23335"> Member 35 of sets MSTW2008nlo68cl_nf4</weight>
    <weight id="194" MUR="1" MUF="1" PDF="23336"> Member 36 of sets MSTW2008nlo68cl_nf4</weight>
    <weight id="195" MUR="1" MUF="1" PDF="23337"> Member 37 of sets MSTW2008nlo68cl_nf4</weight>
    <weight id="196" MUR="1" MUF="1" PDF="23338"> Member 38 of sets MSTW2008nlo68cl_nf4</weight>
    <weight id="197" MUR="1" MUF="1" PDF="23339"> Member 39 of sets MSTW2008nlo68cl_nf4</weight>
    <weight id="198" MUR="1" MUF="1" PDF="23340"> Member 40 of sets MSTW2008nlo68cl_nf4</weight>
  </weightgroup>
  <weightgroup name="MSTW2008nlo_mbrange_nf4" combine="hessian">
    <weight id="199" MUR="1" MUF="1" PDF="23490"> Member 0 of sets MSTW2008nlo_mbrange_nf4</weight>
    <weight id="200" MUR="1" MUF="1" PDF="23491"> Member 1 of sets MSTW2008nlo_mbrange_nf4</weight>
    <weight id="201" MUR="1" MUF="1" PDF="23492"> Member 2 of sets MSTW2008nlo_mbrange_nf4</weight>
    <weight id="202" MUR="1" MUF="1" PDF="23493"> Member 3 of sets MSTW2008nlo_mbrange_nf4</weight>
    <weight id="203" MUR="1" MUF="1" PDF="23494"> Member 4 of sets MSTW2008nlo_mbrange_nf4</weight>
    <weight id="204" MUR="1" MUF="1" PDF="23495"> Member 5 of sets MSTW2008nlo_mbrange_nf4</weight>
    <weight id="205" MUR="1" MUF="1" PDF="23496"> Member 6 of sets MSTW2008nlo_mbrange_nf4</weight>
  </weightgroup>
  <weightgroup name="MSTW2008nnlo68cl_nf4" combine="hessian">
    <weight id="206" MUR="1" MUF="1" PDF="23600"> Member 0 of sets MSTW2008nnlo68cl_nf4</weight>
    <weight id="207" MUR="1" MUF="1" PDF="23601"> Member 1 of sets MSTW2008nnlo68cl_nf4</weight>
    <weight id="208" MUR="1" MUF="1" PDF="23602"> Member 2 of sets MSTW2008nnlo68cl_nf4</weight>
    <weight id="209" MUR="1" MUF="1" PDF="23603"> Member 3 of sets MSTW2008nnlo68cl_nf4</weight>
    <weight id="210" MUR="1" MUF="1" PDF="23604"> Member 4 of sets MSTW2008nnlo68cl_nf4</weight>
    <weight id="211" MUR="1" MUF="1" PDF="23605"> Member 5 of sets MSTW2008nnlo68cl_nf4</weight>
    <weight id="212" MUR="1" MUF="1" PDF="23606"> Member 6 of sets MSTW2008nnlo68cl_nf4</weight>
    <weight id="213" MUR="1" MUF="1" PDF="23607"> Member 7 of sets MSTW2008nnlo68cl_nf4</weight>
    <weight id="214" MUR="1" MUF="1" PDF="23608"> Member 8 of sets MSTW2008nnlo68cl_nf4</weight>
    <weight id="215" MUR="1" MUF="1" PDF="23609"> Member 9 of sets MSTW2008nnlo68cl_nf4</weight>
    <weight id="216" MUR="1" MUF="1" PDF="23610"> Member 10 of sets MSTW2008nnlo68cl_nf4</weight>
    <weight id="217" MUR="1" MUF="1" PDF="23611"> Member 11 of sets MSTW2008nnlo68cl_nf4</weight>
    <weight id="218" MUR="1" MUF="1" PDF="23612"> Member 12 of sets MSTW2008nnlo68cl_nf4</weight>
    <weight id="219" MUR="1" MUF="1" PDF="23613"> Member 13 of sets MSTW2008nnlo68cl_nf4</weight>
    <weight id="220" MUR="1" MUF="1" PDF="23614"> Member 14 of sets MSTW2008nnlo68cl_nf4</weight>
    <weight id="221" MUR="1" MUF="1" PDF="23615"> Member 15 of sets MSTW2008nnlo68cl_nf4</weight>
    <weight id="222" MUR="1" MUF="1" PDF="23616"> Member 16 of sets MSTW2008nnlo68cl_nf4</weight>
    <weight id="223" MUR="1" MUF="1" PDF="23617"> Member 17 of sets MSTW2008nnlo68cl_nf4</weight>
    <weight id="224" MUR="1" MUF="1" PDF="23618"> Member 18 of sets MSTW2008nnlo68cl_nf4</weight>
    <weight id="225" MUR="1" MUF="1" PDF="23619"> Member 19 of sets MSTW2008nnlo68cl_nf4</weight>
    <weight id="226" MUR="1" MUF="1" PDF="23620"> Member 20 of sets MSTW2008nnlo68cl_nf4</weight>
    <weight id="227" MUR="1" MUF="1" PDF="23621"> Member 21 of sets MSTW2008nnlo68cl_nf4</weight>
    <weight id="228" MUR="1" MUF="1" PDF="23622"> Member 22 of sets MSTW2008nnlo68cl_nf4</weight>
    <weight id="229" MUR="1" MUF="1" PDF="23623"> Member 23 of sets MSTW2008nnlo68cl_nf4</weight>
    <weight id="230" MUR="1" MUF="1" PDF="23624"> Member 24 of sets MSTW2008nnlo68cl_nf4</weight>
    <weight id="231" MUR="1" MUF="1" PDF="23625"> Member 25 of sets MSTW2008nnlo68cl_nf4</weight>
    <weight id="232" MUR="1" MUF="1" PDF="23626"> Member 26 of sets MSTW2008nnlo68cl_nf4</weight>
    <weight id="233" MUR="1" MUF="1" PDF="23627"> Member 27 of sets MSTW2008nnlo68cl_nf4</weight>
    <weight id="234" MUR="1" MUF="1" PDF="23628"> Member 28 of sets MSTW2008nnlo68cl_nf4</weight>
    <weight id="235" MUR="1" MUF="1" PDF="23629"> Member 29 of sets MSTW2008nnlo68cl_nf4</weight>
    <weight id="236" MUR="1" MUF="1" PDF="23630"> Member 30 of sets MSTW2008nnlo68cl_nf4</weight>
    <weight id="237" MUR="1" MUF="1" PDF="23631"> Member 31 of sets MSTW2008nnlo68cl_nf4</weight>
    <weight id="238" MUR="1" MUF="1" PDF="23632"> Member 32 of sets MSTW2008nnlo68cl_nf4</weight>
    <weight id="239" MUR="1" MUF="1" PDF="23633"> Member 33 of sets MSTW2008nnlo68cl_nf4</weight>
    <weight id="240" MUR="1" MUF="1" PDF="23634"> Member 34 of sets MSTW2008nnlo68cl_nf4</weight>
    <weight id="241" MUR="1" MUF="1" PDF="23635"> Member 35 of sets MSTW2008nnlo68cl_nf4</weight>
    <weight id="242" MUR="1" MUF="1" PDF="23636"> Member 36 of sets MSTW2008nnlo68cl_nf4</weight>
    <weight id="243" MUR="1" MUF="1" PDF="23637"> Member 37 of sets MSTW2008nnlo68cl_nf4</weight>
    <weight id="244" MUR="1" MUF="1" PDF="23638"> Member 38 of sets MSTW2008nnlo68cl_nf4</weight>
    <weight id="245" MUR="1" MUF="1" PDF="23639"> Member 39 of sets MSTW2008nnlo68cl_nf4</weight>
    <weight id="246" MUR="1" MUF="1" PDF="23640"> Member 40 of sets MSTW2008nnlo68cl_nf4</weight>
  </weightgroup>
  <weightgroup name="MSTW2008nnlo_mbrange_nf4" combine="hessian">
    <weight id="247" MUR="1" MUF="1" PDF="23790"> Member 0 of sets MSTW2008nnlo_mbrange_nf4</weight>
    <weight id="248" MUR="1" MUF="1" PDF="23791"> Member 1 of sets MSTW2008nnlo_mbrange_nf4</weight>
    <weight id="249" MUR="1" MUF="1" PDF="23792"> Member 2 of sets MSTW2008nnlo_mbrange_nf4</weight>
    <weight id="250" MUR="1" MUF="1" PDF="23793"> Member 3 of sets MSTW2008nnlo_mbrange_nf4</weight>
    <weight id="251" MUR="1" MUF="1" PDF="23794"> Member 4 of sets MSTW2008nnlo_mbrange_nf4</weight>
    <weight id="252" MUR="1" MUF="1" PDF="23795"> Member 5 of sets MSTW2008nnlo_mbrange_nf4</weight>
    <weight id="253" MUR="1" MUF="1" PDF="23796"> Member 6 of sets MSTW2008nnlo_mbrange_nf4</weight>
  </weightgroup>
  <weightgroup name="MMHT2014nlo68cl_nf4" combine="hessian">
    <weight id="254" MUR="1" MUF="1" PDF="25410"> Member 0 of sets MMHT2014nlo68cl_nf4</weight>
    <weight id="255" MUR="1" MUF="1" PDF="25411"> Member 1 of sets MMHT2014nlo68cl_nf4</weight>
    <weight id="256" MUR="1" MUF="1" PDF="25412"> Member 2 of sets MMHT2014nlo68cl_nf4</weight>
    <weight id="257" MUR="1" MUF="1" PDF="25413"> Member 3 of sets MMHT2014nlo68cl_nf4</weight>
    <weight id="258" MUR="1" MUF="1" PDF="25414"> Member 4 of sets MMHT2014nlo68cl_nf4</weight>
    <weight id="259" MUR="1" MUF="1" PDF="25415"> Member 5 of sets MMHT2014nlo68cl_nf4</weight>
    <weight id="260" MUR="1" MUF="1" PDF="25416"> Member 6 of sets MMHT2014nlo68cl_nf4</weight>
    <weight id="261" MUR="1" MUF="1" PDF="25417"> Member 7 of sets MMHT2014nlo68cl_nf4</weight>
    <weight id="262" MUR="1" MUF="1" PDF="25418"> Member 8 of sets MMHT2014nlo68cl_nf4</weight>
    <weight id="263" MUR="1" MUF="1" PDF="25419"> Member 9 of sets MMHT2014nlo68cl_nf4</weight>
    <weight id="264" MUR="1" MUF="1" PDF="25420"> Member 10 of sets MMHT2014nlo68cl_nf4</weight>
    <weight id="265" MUR="1" MUF="1" PDF="25421"> Member 11 of sets MMHT2014nlo68cl_nf4</weight>
    <weight id="266" MUR="1" MUF="1" PDF="25422"> Member 12 of sets MMHT2014nlo68cl_nf4</weight>
    <weight id="267" MUR="1" MUF="1" PDF="25423"> Member 13 of sets MMHT2014nlo68cl_nf4</weight>
    <weight id="268" MUR="1" MUF="1" PDF="25424"> Member 14 of sets MMHT2014nlo68cl_nf4</weight>
    <weight id="269" MUR="1" MUF="1" PDF="25425"> Member 15 of sets MMHT2014nlo68cl_nf4</weight>
    <weight id="270" MUR="1" MUF="1" PDF="25426"> Member 16 of sets MMHT2014nlo68cl_nf4</weight>
    <weight id="271" MUR="1" MUF="1" PDF="25427"> Member 17 of sets MMHT2014nlo68cl_nf4</weight>
    <weight id="272" MUR="1" MUF="1" PDF="25428"> Member 18 of sets MMHT2014nlo68cl_nf4</weight>
    <weight id="273" MUR="1" MUF="1" PDF="25429"> Member 19 of sets MMHT2014nlo68cl_nf4</weight>
    <weight id="274" MUR="1" MUF="1" PDF="25430"> Member 20 of sets MMHT2014nlo68cl_nf4</weight>
    <weight id="275" MUR="1" MUF="1" PDF="25431"> Member 21 of sets MMHT2014nlo68cl_nf4</weight>
    <weight id="276" MUR="1" MUF="1" PDF="25432"> Member 22 of sets MMHT2014nlo68cl_nf4</weight>
    <weight id="277" MUR="1" MUF="1" PDF="25433"> Member 23 of sets MMHT2014nlo68cl_nf4</weight>
    <weight id="278" MUR="1" MUF="1" PDF="25434"> Member 24 of sets MMHT2014nlo68cl_nf4</weight>
    <weight id="279" MUR="1" MUF="1" PDF="25435"> Member 25 of sets MMHT2014nlo68cl_nf4</weight>
    <weight id="280" MUR="1" MUF="1" PDF="25436"> Member 26 of sets MMHT2014nlo68cl_nf4</weight>
    <weight id="281" MUR="1" MUF="1" PDF="25437"> Member 27 of sets MMHT2014nlo68cl_nf4</weight>
    <weight id="282" MUR="1" MUF="1" PDF="25438"> Member 28 of sets MMHT2014nlo68cl_nf4</weight>
    <weight id="283" MUR="1" MUF="1" PDF="25439"> Member 29 of sets MMHT2014nlo68cl_nf4</weight>
    <weight id="284" MUR="1" MUF="1" PDF="25440"> Member 30 of sets MMHT2014nlo68cl_nf4</weight>
    <weight id="285" MUR="1" MUF="1" PDF="25441"> Member 31 of sets MMHT2014nlo68cl_nf4</weight>
    <weight id="286" MUR="1" MUF="1" PDF="25442"> Member 32 of sets MMHT2014nlo68cl_nf4</weight>
    <weight id="287" MUR="1" MUF="1" PDF="25443"> Member 33 of sets MMHT2014nlo68cl_nf4</weight>
    <weight id="288" MUR="1" MUF="1" PDF="25444"> Member 34 of sets MMHT2014nlo68cl_nf4</weight>
    <weight id="289" MUR="1" MUF="1" PDF="25445"> Member 35 of sets MMHT2014nlo68cl_nf4</weight>
    <weight id="290" MUR="1" MUF="1" PDF="25446"> Member 36 of sets MMHT2014nlo68cl_nf4</weight>
    <weight id="291" MUR="1" MUF="1" PDF="25447"> Member 37 of sets MMHT2014nlo68cl_nf4</weight>
    <weight id="292" MUR="1" MUF="1" PDF="25448"> Member 38 of sets MMHT2014nlo68cl_nf4</weight>
    <weight id="293" MUR="1" MUF="1" PDF="25449"> Member 39 of sets MMHT2014nlo68cl_nf4</weight>
    <weight id="294" MUR="1" MUF="1" PDF="25450"> Member 40 of sets MMHT2014nlo68cl_nf4</weight>
    <weight id="295" MUR="1" MUF="1" PDF="25451"> Member 41 of sets MMHT2014nlo68cl_nf4</weight>
    <weight id="296" MUR="1" MUF="1" PDF="25452"> Member 42 of sets MMHT2014nlo68cl_nf4</weight>
    <weight id="297" MUR="1" MUF="1" PDF="25453"> Member 43 of sets MMHT2014nlo68cl_nf4</weight>
    <weight id="298" MUR="1" MUF="1" PDF="25454"> Member 44 of sets MMHT2014nlo68cl_nf4</weight>
    <weight id="299" MUR="1" MUF="1" PDF="25455"> Member 45 of sets MMHT2014nlo68cl_nf4</weight>
    <weight id="300" MUR="1" MUF="1" PDF="25456"> Member 46 of sets MMHT2014nlo68cl_nf4</weight>
    <weight id="301" MUR="1" MUF="1" PDF="25457"> Member 47 of sets MMHT2014nlo68cl_nf4</weight>
    <weight id="302" MUR="1" MUF="1" PDF="25458"> Member 48 of sets MMHT2014nlo68cl_nf4</weight>
    <weight id="303" MUR="1" MUF="1" PDF="25459"> Member 49 of sets MMHT2014nlo68cl_nf4</weight>
    <weight id="304" MUR="1" MUF="1" PDF="25460"> Member 50 of sets MMHT2014nlo68cl_nf4</weight>
  </weightgroup>
  <weightgroup name="MMHT2014nlo68clas118_nf4" combine="hessian">
    <weight id="305" MUR="1" MUF="1" PDF="25510"> Member 0 of sets MMHT2014nlo68clas118_nf4</weight>
    <weight id="306" MUR="1" MUF="1" PDF="25511"> Member 1 of sets MMHT2014nlo68clas118_nf4</weight>
    <weight id="307" MUR="1" MUF="1" PDF="25512"> Member 2 of sets MMHT2014nlo68clas118_nf4</weight>
    <weight id="308" MUR="1" MUF="1" PDF="25513"> Member 3 of sets MMHT2014nlo68clas118_nf4</weight>
    <weight id="309" MUR="1" MUF="1" PDF="25514"> Member 4 of sets MMHT2014nlo68clas118_nf4</weight>
    <weight id="310" MUR="1" MUF="1" PDF="25515"> Member 5 of sets MMHT2014nlo68clas118_nf4</weight>
    <weight id="311" MUR="1" MUF="1" PDF="25516"> Member 6 of sets MMHT2014nlo68clas118_nf4</weight>
    <weight id="312" MUR="1" MUF="1" PDF="25517"> Member 7 of sets MMHT2014nlo68clas118_nf4</weight>
    <weight id="313" MUR="1" MUF="1" PDF="25518"> Member 8 of sets MMHT2014nlo68clas118_nf4</weight>
    <weight id="314" MUR="1" MUF="1" PDF="25519"> Member 9 of sets MMHT2014nlo68clas118_nf4</weight>
    <weight id="315" MUR="1" MUF="1" PDF="25520"> Member 10 of sets MMHT2014nlo68clas118_nf4</weight>
    <weight id="316" MUR="1" MUF="1" PDF="25521"> Member 11 of sets MMHT2014nlo68clas118_nf4</weight>
    <weight id="317" MUR="1" MUF="1" PDF="25522"> Member 12 of sets MMHT2014nlo68clas118_nf4</weight>
    <weight id="318" MUR="1" MUF="1" PDF="25523"> Member 13 of sets MMHT2014nlo68clas118_nf4</weight>
    <weight id="319" MUR="1" MUF="1" PDF="25524"> Member 14 of sets MMHT2014nlo68clas118_nf4</weight>
    <weight id="320" MUR="1" MUF="1" PDF="25525"> Member 15 of sets MMHT2014nlo68clas118_nf4</weight>
    <weight id="321" MUR="1" MUF="1" PDF="25526"> Member 16 of sets MMHT2014nlo68clas118_nf4</weight>
    <weight id="322" MUR="1" MUF="1" PDF="25527"> Member 17 of sets MMHT2014nlo68clas118_nf4</weight>
    <weight id="323" MUR="1" MUF="1" PDF="25528"> Member 18 of sets MMHT2014nlo68clas118_nf4</weight>
    <weight id="324" MUR="1" MUF="1" PDF="25529"> Member 19 of sets MMHT2014nlo68clas118_nf4</weight>
    <weight id="325" MUR="1" MUF="1" PDF="25530"> Member 20 of sets MMHT2014nlo68clas118_nf4</weight>
    <weight id="326" MUR="1" MUF="1" PDF="25531"> Member 21 of sets MMHT2014nlo68clas118_nf4</weight>
    <weight id="327" MUR="1" MUF="1" PDF="25532"> Member 22 of sets MMHT2014nlo68clas118_nf4</weight>
    <weight id="328" MUR="1" MUF="1" PDF="25533"> Member 23 of sets MMHT2014nlo68clas118_nf4</weight>
    <weight id="329" MUR="1" MUF="1" PDF="25534"> Member 24 of sets MMHT2014nlo68clas118_nf4</weight>
    <weight id="330" MUR="1" MUF="1" PDF="25535"> Member 25 of sets MMHT2014nlo68clas118_nf4</weight>
    <weight id="331" MUR="1" MUF="1" PDF="25536"> Member 26 of sets MMHT2014nlo68clas118_nf4</weight>
    <weight id="332" MUR="1" MUF="1" PDF="25537"> Member 27 of sets MMHT2014nlo68clas118_nf4</weight>
    <weight id="333" MUR="1" MUF="1" PDF="25538"> Member 28 of sets MMHT2014nlo68clas118_nf4</weight>
    <weight id="334" MUR="1" MUF="1" PDF="25539"> Member 29 of sets MMHT2014nlo68clas118_nf4</weight>
    <weight id="335" MUR="1" MUF="1" PDF="25540"> Member 30 of sets MMHT2014nlo68clas118_nf4</weight>
    <weight id="336" MUR="1" MUF="1" PDF="25541"> Member 31 of sets MMHT2014nlo68clas118_nf4</weight>
    <weight id="337" MUR="1" MUF="1" PDF="25542"> Member 32 of sets MMHT2014nlo68clas118_nf4</weight>
    <weight id="338" MUR="1" MUF="1" PDF="25543"> Member 33 of sets MMHT2014nlo68clas118_nf4</weight>
    <weight id="339" MUR="1" MUF="1" PDF="25544"> Member 34 of sets MMHT2014nlo68clas118_nf4</weight>
    <weight id="340" MUR="1" MUF="1" PDF="25545"> Member 35 of sets MMHT2014nlo68clas118_nf4</weight>
    <weight id="341" MUR="1" MUF="1" PDF="25546"> Member 36 of sets MMHT2014nlo68clas118_nf4</weight>
    <weight id="342" MUR="1" MUF="1" PDF="25547"> Member 37 of sets MMHT2014nlo68clas118_nf4</weight>
    <weight id="343" MUR="1" MUF="1" PDF="25548"> Member 38 of sets MMHT2014nlo68clas118_nf4</weight>
    <weight id="344" MUR="1" MUF="1" PDF="25549"> Member 39 of sets MMHT2014nlo68clas118_nf4</weight>
    <weight id="345" MUR="1" MUF="1" PDF="25550"> Member 40 of sets MMHT2014nlo68clas118_nf4</weight>
    <weight id="346" MUR="1" MUF="1" PDF="25551"> Member 41 of sets MMHT2014nlo68clas118_nf4</weight>
    <weight id="347" MUR="1" MUF="1" PDF="25552"> Member 42 of sets MMHT2014nlo68clas118_nf4</weight>
    <weight id="348" MUR="1" MUF="1" PDF="25553"> Member 43 of sets MMHT2014nlo68clas118_nf4</weight>
    <weight id="349" MUR="1" MUF="1" PDF="25554"> Member 44 of sets MMHT2014nlo68clas118_nf4</weight>
    <weight id="350" MUR="1" MUF="1" PDF="25555"> Member 45 of sets MMHT2014nlo68clas118_nf4</weight>
    <weight id="351" MUR="1" MUF="1" PDF="25556"> Member 46 of sets MMHT2014nlo68clas118_nf4</weight>
    <weight id="352" MUR="1" MUF="1" PDF="25557"> Member 47 of sets MMHT2014nlo68clas118_nf4</weight>
    <weight id="353" MUR="1" MUF="1" PDF="25558"> Member 48 of sets MMHT2014nlo68clas118_nf4</weight>
    <weight id="354" MUR="1" MUF="1" PDF="25559"> Member 49 of sets MMHT2014nlo68clas118_nf4</weight>
    <weight id="355" MUR="1" MUF="1" PDF="25560"> Member 50 of sets MMHT2014nlo68clas118_nf4</weight>
  </weightgroup>
  <weightgroup name="MMHT2014nlo_asmzsmallrange_nf4" combine="hessian">
    <weight id="356" MUR="1" MUF="1" PDF="25570"> Member 0 of sets MMHT2014nlo_asmzsmallrange_nf4</weight>
    <weight id="357" MUR="1" MUF="1" PDF="25571"> Member 1 of sets MMHT2014nlo_asmzsmallrange_nf4</weight>
    <weight id="358" MUR="1" MUF="1" PDF="25572"> Member 2 of sets MMHT2014nlo_asmzsmallrange_nf4</weight>
    <weight id="359" MUR="1" MUF="1" PDF="25573"> Member 3 of sets MMHT2014nlo_asmzsmallrange_nf4</weight>
    <weight id="360" MUR="1" MUF="1" PDF="25574"> Member 4 of sets MMHT2014nlo_asmzsmallrange_nf4</weight>
  </weightgroup>
  <weightgroup name="MMHT2014nlo_mcrange_nf4" combine="hessian">
    <weight id="361" MUR="1" MUF="1" PDF="25605"> Member 0 of sets MMHT2014nlo_mcrange_nf4</weight>
    <weight id="362" MUR="1" MUF="1" PDF="25606"> Member 1 of sets MMHT2014nlo_mcrange_nf4</weight>
    <weight id="363" MUR="1" MUF="1" PDF="25607"> Member 2 of sets MMHT2014nlo_mcrange_nf4</weight>
    <weight id="364" MUR="1" MUF="1" PDF="25608"> Member 3 of sets MMHT2014nlo_mcrange_nf4</weight>
    <weight id="365" MUR="1" MUF="1" PDF="25609"> Member 4 of sets MMHT2014nlo_mcrange_nf4</weight>
    <weight id="366" MUR="1" MUF="1" PDF="25610"> Member 5 of sets MMHT2014nlo_mcrange_nf4</weight>
    <weight id="367" MUR="1" MUF="1" PDF="25611"> Member 6 of sets MMHT2014nlo_mcrange_nf4</weight>
    <weight id="368" MUR="1" MUF="1" PDF="25612"> Member 7 of sets MMHT2014nlo_mcrange_nf4</weight>
    <weight id="369" MUR="1" MUF="1" PDF="25613"> Member 8 of sets MMHT2014nlo_mcrange_nf4</weight>
  </weightgroup>
  <weightgroup name="MMHT2014nlo_mbrange_nf4" combine="hessian">
    <weight id="370" MUR="1" MUF="1" PDF="25620"> Member 0 of sets MMHT2014nlo_mbrange_nf4</weight>
    <weight id="371" MUR="1" MUF="1" PDF="25621"> Member 1 of sets MMHT2014nlo_mbrange_nf4</weight>
    <weight id="372" MUR="1" MUF="1" PDF="25622"> Member 2 of sets MMHT2014nlo_mbrange_nf4</weight>
    <weight id="373" MUR="1" MUF="1" PDF="25623"> Member 3 of sets MMHT2014nlo_mbrange_nf4</weight>
    <weight id="374" MUR="1" MUF="1" PDF="25624"> Member 4 of sets MMHT2014nlo_mbrange_nf4</weight>
  </weightgroup>
  <weightgroup name="MMHT2014nnlo68cl_nf4" combine="hessian">
    <weight id="375" MUR="1" MUF="1" PDF="25710"> Member 0 of sets MMHT2014nnlo68cl_nf4</weight>
    <weight id="376" MUR="1" MUF="1" PDF="25711"> Member 1 of sets MMHT2014nnlo68cl_nf4</weight>
    <weight id="377" MUR="1" MUF="1" PDF="25712"> Member 2 of sets MMHT2014nnlo68cl_nf4</weight>
    <weight id="378" MUR="1" MUF="1" PDF="25713"> Member 3 of sets MMHT2014nnlo68cl_nf4</weight>
    <weight id="379" MUR="1" MUF="1" PDF="25714"> Member 4 of sets MMHT2014nnlo68cl_nf4</weight>
    <weight id="380" MUR="1" MUF="1" PDF="25715"> Member 5 of sets MMHT2014nnlo68cl_nf4</weight>
    <weight id="381" MUR="1" MUF="1" PDF="25716"> Member 6 of sets MMHT2014nnlo68cl_nf4</weight>
    <weight id="382" MUR="1" MUF="1" PDF="25717"> Member 7 of sets MMHT2014nnlo68cl_nf4</weight>
    <weight id="383" MUR="1" MUF="1" PDF="25718"> Member 8 of sets MMHT2014nnlo68cl_nf4</weight>
    <weight id="384" MUR="1" MUF="1" PDF="25719"> Member 9 of sets MMHT2014nnlo68cl_nf4</weight>
    <weight id="385" MUR="1" MUF="1" PDF="25720"> Member 10 of sets MMHT2014nnlo68cl_nf4</weight>
    <weight id="386" MUR="1" MUF="1" PDF="25721"> Member 11 of sets MMHT2014nnlo68cl_nf4</weight>
    <weight id="387" MUR="1" MUF="1" PDF="25722"> Member 12 of sets MMHT2014nnlo68cl_nf4</weight>
    <weight id="388" MUR="1" MUF="1" PDF="25723"> Member 13 of sets MMHT2014nnlo68cl_nf4</weight>
    <weight id="389" MUR="1" MUF="1" PDF="25724"> Member 14 of sets MMHT2014nnlo68cl_nf4</weight>
    <weight id="390" MUR="1" MUF="1" PDF="25725"> Member 15 of sets MMHT2014nnlo68cl_nf4</weight>
    <weight id="391" MUR="1" MUF="1" PDF="25726"> Member 16 of sets MMHT2014nnlo68cl_nf4</weight>
    <weight id="392" MUR="1" MUF="1" PDF="25727"> Member 17 of sets MMHT2014nnlo68cl_nf4</weight>
    <weight id="393" MUR="1" MUF="1" PDF="25728"> Member 18 of sets MMHT2014nnlo68cl_nf4</weight>
    <weight id="394" MUR="1" MUF="1" PDF="25729"> Member 19 of sets MMHT2014nnlo68cl_nf4</weight>
    <weight id="395" MUR="1" MUF="1" PDF="25730"> Member 20 of sets MMHT2014nnlo68cl_nf4</weight>
    <weight id="396" MUR="1" MUF="1" PDF="25731"> Member 21 of sets MMHT2014nnlo68cl_nf4</weight>
    <weight id="397" MUR="1" MUF="1" PDF="25732"> Member 22 of sets MMHT2014nnlo68cl_nf4</weight>
    <weight id="398" MUR="1" MUF="1" PDF="25733"> Member 23 of sets MMHT2014nnlo68cl_nf4</weight>
    <weight id="399" MUR="1" MUF="1" PDF="25734"> Member 24 of sets MMHT2014nnlo68cl_nf4</weight>
    <weight id="400" MUR="1" MUF="1" PDF="25735"> Member 25 of sets MMHT2014nnlo68cl_nf4</weight>
    <weight id="401" MUR="1" MUF="1" PDF="25736"> Member 26 of sets MMHT2014nnlo68cl_nf4</weight>
    <weight id="402" MUR="1" MUF="1" PDF="25737"> Member 27 of sets MMHT2014nnlo68cl_nf4</weight>
    <weight id="403" MUR="1" MUF="1" PDF="25738"> Member 28 of sets MMHT2014nnlo68cl_nf4</weight>
    <weight id="404" MUR="1" MUF="1" PDF="25739"> Member 29 of sets MMHT2014nnlo68cl_nf4</weight>
    <weight id="405" MUR="1" MUF="1" PDF="25740"> Member 30 of sets MMHT2014nnlo68cl_nf4</weight>
    <weight id="406" MUR="1" MUF="1" PDF="25741"> Member 31 of sets MMHT2014nnlo68cl_nf4</weight>
    <weight id="407" MUR="1" MUF="1" PDF="25742"> Member 32 of sets MMHT2014nnlo68cl_nf4</weight>
    <weight id="408" MUR="1" MUF="1" PDF="25743"> Member 33 of sets MMHT2014nnlo68cl_nf4</weight>
    <weight id="409" MUR="1" MUF="1" PDF="25744"> Member 34 of sets MMHT2014nnlo68cl_nf4</weight>
    <weight id="410" MUR="1" MUF="1" PDF="25745"> Member 35 of sets MMHT2014nnlo68cl_nf4</weight>
    <weight id="411" MUR="1" MUF="1" PDF="25746"> Member 36 of sets MMHT2014nnlo68cl_nf4</weight>
    <weight id="412" MUR="1" MUF="1" PDF="25747"> Member 37 of sets MMHT2014nnlo68cl_nf4</weight>
    <weight id="413" MUR="1" MUF="1" PDF="25748"> Member 38 of sets MMHT2014nnlo68cl_nf4</weight>
    <weight id="414" MUR="1" MUF="1" PDF="25749"> Member 39 of sets MMHT2014nnlo68cl_nf4</weight>
    <weight id="415" MUR="1" MUF="1" PDF="25750"> Member 40 of sets MMHT2014nnlo68cl_nf4</weight>
    <weight id="416" MUR="1" MUF="1" PDF="25751"> Member 41 of sets MMHT2014nnlo68cl_nf4</weight>
    <weight id="417" MUR="1" MUF="1" PDF="25752"> Member 42 of sets MMHT2014nnlo68cl_nf4</weight>
    <weight id="418" MUR="1" MUF="1" PDF="25753"> Member 43 of sets MMHT2014nnlo68cl_nf4</weight>
    <weight id="419" MUR="1" MUF="1" PDF="25754"> Member 44 of sets MMHT2014nnlo68cl_nf4</weight>
    <weight id="420" MUR="1" MUF="1" PDF="25755"> Member 45 of sets MMHT2014nnlo68cl_nf4</weight>
    <weight id="421" MUR="1" MUF="1" PDF="25756"> Member 46 of sets MMHT2014nnlo68cl_nf4</weight>
    <weight id="422" MUR="1" MUF="1" PDF="25757"> Member 47 of sets MMHT2014nnlo68cl_nf4</weight>
    <weight id="423" MUR="1" MUF="1" PDF="25758"> Member 48 of sets MMHT2014nnlo68cl_nf4</weight>
    <weight id="424" MUR="1" MUF="1" PDF="25759"> Member 49 of sets MMHT2014nnlo68cl_nf4</weight>
    <weight id="425" MUR="1" MUF="1" PDF="25760"> Member 50 of sets MMHT2014nnlo68cl_nf4</weight>
  </weightgroup>
  <weightgroup name="MMHT2014nnlo_asmzsmallrange_nf4" combine="hessian">
    <weight id="426" MUR="1" MUF="1" PDF="25770"> Member 0 of sets MMHT2014nnlo_asmzsmallrange_nf4</weight>
    <weight id="427" MUR="1" MUF="1" PDF="25771"> Member 1 of sets MMHT2014nnlo_asmzsmallrange_nf4</weight>
    <weight id="428" MUR="1" MUF="1" PDF="25772"> Member 2 of sets MMHT2014nnlo_asmzsmallrange_nf4</weight>
  </weightgroup>
  <weightgroup name="MMHT2014nnlo_mcrange_nf4" combine="hessian">
    <weight id="429" MUR="1" MUF="1" PDF="25805"> Member 0 of sets MMHT2014nnlo_mcrange_nf4</weight>
    <weight id="430" MUR="1" MUF="1" PDF="25806"> Member 1 of sets MMHT2014nnlo_mcrange_nf4</weight>
    <weight id="431" MUR="1" MUF="1" PDF="25807"> Member 2 of sets MMHT2014nnlo_mcrange_nf4</weight>
    <weight id="432" MUR="1" MUF="1" PDF="25808"> Member 3 of sets MMHT2014nnlo_mcrange_nf4</weight>
    <weight id="433" MUR="1" MUF="1" PDF="25809"> Member 4 of sets MMHT2014nnlo_mcrange_nf4</weight>
    <weight id="434" MUR="1" MUF="1" PDF="25810"> Member 5 of sets MMHT2014nnlo_mcrange_nf4</weight>
    <weight id="435" MUR="1" MUF="1" PDF="25811"> Member 6 of sets MMHT2014nnlo_mcrange_nf4</weight>
    <weight id="436" MUR="1" MUF="1" PDF="25812"> Member 7 of sets MMHT2014nnlo_mcrange_nf4</weight>
    <weight id="437" MUR="1" MUF="1" PDF="25813"> Member 8 of sets MMHT2014nnlo_mcrange_nf4</weight>
  </weightgroup>
  <weightgroup name="MMHT2014nnlo_mbrange_nf4" combine="hessian">
    <weight id="438" MUR="1" MUF="1" PDF="25840"> Member 0 of sets MMHT2014nnlo_mbrange_nf4</weight>
    <weight id="439" MUR="1" MUF="1" PDF="25841"> Member 1 of sets MMHT2014nnlo_mbrange_nf4</weight>
    <weight id="440" MUR="1" MUF="1" PDF="25842"> Member 2 of sets MMHT2014nnlo_mbrange_nf4</weight>
    <weight id="441" MUR="1" MUF="1" PDF="25843"> Member 3 of sets MMHT2014nnlo_mbrange_nf4</weight>
    <weight id="442" MUR="1" MUF="1" PDF="25844"> Member 4 of sets MMHT2014nnlo_mbrange_nf4</weight>
  </weightgroup>
  <weightgroup name="PDF4LHC15_nlo_nf4_30" combine="hessian">
    <weight id="443" MUR="1" MUF="1" PDF="92000"> Member 0 of sets PDF4LHC15_nlo_nf4_30</weight>
    <weight id="444" MUR="1" MUF="1" PDF="92001"> Member 1 of sets PDF4LHC15_nlo_nf4_30</weight>
    <weight id="445" MUR="1" MUF="1" PDF="92002"> Member 2 of sets PDF4LHC15_nlo_nf4_30</weight>
    <weight id="446" MUR="1" MUF="1" PDF="92003"> Member 3 of sets PDF4LHC15_nlo_nf4_30</weight>
    <weight id="447" MUR="1" MUF="1" PDF="92004"> Member 4 of sets PDF4LHC15_nlo_nf4_30</weight>
    <weight id="448" MUR="1" MUF="1" PDF="92005"> Member 5 of sets PDF4LHC15_nlo_nf4_30</weight>
    <weight id="449" MUR="1" MUF="1" PDF="92006"> Member 6 of sets PDF4LHC15_nlo_nf4_30</weight>
    <weight id="450" MUR="1" MUF="1" PDF="92007"> Member 7 of sets PDF4LHC15_nlo_nf4_30</weight>
    <weight id="451" MUR="1" MUF="1" PDF="92008"> Member 8 of sets PDF4LHC15_nlo_nf4_30</weight>
    <weight id="452" MUR="1" MUF="1" PDF="92009"> Member 9 of sets PDF4LHC15_nlo_nf4_30</weight>
    <weight id="453" MUR="1" MUF="1" PDF="92010"> Member 10 of sets PDF4LHC15_nlo_nf4_30</weight>
    <weight id="454" MUR="1" MUF="1" PDF="92011"> Member 11 of sets PDF4LHC15_nlo_nf4_30</weight>
    <weight id="455" MUR="1" MUF="1" PDF="92012"> Member 12 of sets PDF4LHC15_nlo_nf4_30</weight>
    <weight id="456" MUR="1" MUF="1" PDF="92013"> Member 13 of sets PDF4LHC15_nlo_nf4_30</weight>
    <weight id="457" MUR="1" MUF="1" PDF="92014"> Member 14 of sets PDF4LHC15_nlo_nf4_30</weight>
    <weight id="458" MUR="1" MUF="1" PDF="92015"> Member 15 of sets PDF4LHC15_nlo_nf4_30</weight>
    <weight id="459" MUR="1" MUF="1" PDF="92016"> Member 16 of sets PDF4LHC15_nlo_nf4_30</weight>
    <weight id="460" MUR="1" MUF="1" PDF="92017"> Member 17 of sets PDF4LHC15_nlo_nf4_30</weight>
    <weight id="461" MUR="1" MUF="1" PDF="92018"> Member 18 of sets PDF4LHC15_nlo_nf4_30</weight>
    <weight id="462" MUR="1" MUF="1" PDF="92019"> Member 19 of sets PDF4LHC15_nlo_nf4_30</weight>
    <weight id="463" MUR="1" MUF="1" PDF="92020"> Member 20 of sets PDF4LHC15_nlo_nf4_30</weight>
    <weight id="464" MUR="1" MUF="1" PDF="92021"> Member 21 of sets PDF4LHC15_nlo_nf4_30</weight>
    <weight id="465" MUR="1" MUF="1" PDF="92022"> Member 22 of sets PDF4LHC15_nlo_nf4_30</weight>
    <weight id="466" MUR="1" MUF="1" PDF="92023"> Member 23 of sets PDF4LHC15_nlo_nf4_30</weight>
    <weight id="467" MUR="1" MUF="1" PDF="92024"> Member 24 of sets PDF4LHC15_nlo_nf4_30</weight>
    <weight id="468" MUR="1" MUF="1" PDF="92025"> Member 25 of sets PDF4LHC15_nlo_nf4_30</weight>
    <weight id="469" MUR="1" MUF="1" PDF="92026"> Member 26 of sets PDF4LHC15_nlo_nf4_30</weight>
    <weight id="470" MUR="1" MUF="1" PDF="92027"> Member 27 of sets PDF4LHC15_nlo_nf4_30</weight>
    <weight id="471" MUR="1" MUF="1" PDF="92028"> Member 28 of sets PDF4LHC15_nlo_nf4_30</weight>
    <weight id="472" MUR="1" MUF="1" PDF="92029"> Member 29 of sets PDF4LHC15_nlo_nf4_30</weight>
    <weight id="473" MUR="1" MUF="1" PDF="92030"> Member 30 of sets PDF4LHC15_nlo_nf4_30</weight>
  </weightgroup>
  <weightgroup name="NNPDF31_nnlo_as_0118_nf_4" combine="hessian">
    <weight id="474" MUR="1" MUF="1" PDF="320900"> Member 0 of sets NNPDF31_nnlo_as_0118_nf_4</weight>
    <weight id="475" MUR="1" MUF="1" PDF="320901"> Member 1 of sets NNPDF31_nnlo_as_0118_nf_4</weight>
    <weight id="476" MUR="1" MUF="1" PDF="320902"> Member 2 of sets NNPDF31_nnlo_as_0118_nf_4</weight>
    <weight id="477" MUR="1" MUF="1" PDF="320903"> Member 3 of sets NNPDF31_nnlo_as_0118_nf_4</weight>
    <weight id="478" MUR="1" MUF="1" PDF="320904"> Member 4 of sets NNPDF31_nnlo_as_0118_nf_4</weight>
    <weight id="479" MUR="1" MUF="1" PDF="320905"> Member 5 of sets NNPDF31_nnlo_as_0118_nf_4</weight>
    <weight id="480" MUR="1" MUF="1" PDF="320906"> Member 6 of sets NNPDF31_nnlo_as_0118_nf_4</weight>
    <weight id="481" MUR="1" MUF="1" PDF="320907"> Member 7 of sets NNPDF31_nnlo_as_0118_nf_4</weight>
    <weight id="482" MUR="1" MUF="1" PDF="320908"> Member 8 of sets NNPDF31_nnlo_as_0118_nf_4</weight>
    <weight id="483" MUR="1" MUF="1" PDF="320909"> Member 9 of sets NNPDF31_nnlo_as_0118_nf_4</weight>
    <weight id="484" MUR="1" MUF="1" PDF="320910"> Member 10 of sets NNPDF31_nnlo_as_0118_nf_4</weight>
    <weight id="485" MUR="1" MUF="1" PDF="320911"> Member 11 of sets NNPDF31_nnlo_as_0118_nf_4</weight>
    <weight id="486" MUR="1" MUF="1" PDF="320912"> Member 12 of sets NNPDF31_nnlo_as_0118_nf_4</weight>
    <weight id="487" MUR="1" MUF="1" PDF="320913"> Member 13 of sets NNPDF31_nnlo_as_0118_nf_4</weight>
    <weight id="488" MUR="1" MUF="1" PDF="320914"> Member 14 of sets NNPDF31_nnlo_as_0118_nf_4</weight>
    <weight id="489" MUR="1" MUF="1" PDF="320915"> Member 15 of sets NNPDF31_nnlo_as_0118_nf_4</weight>
    <weight id="490" MUR="1" MUF="1" PDF="320916"> Member 16 of sets NNPDF31_nnlo_as_0118_nf_4</weight>
    <weight id="491" MUR="1" MUF="1" PDF="320917"> Member 17 of sets NNPDF31_nnlo_as_0118_nf_4</weight>
    <weight id="492" MUR="1" MUF="1" PDF="320918"> Member 18 of sets NNPDF31_nnlo_as_0118_nf_4</weight>
    <weight id="493" MUR="1" MUF="1" PDF="320919"> Member 19 of sets NNPDF31_nnlo_as_0118_nf_4</weight>
    <weight id="494" MUR="1" MUF="1" PDF="320920"> Member 20 of sets NNPDF31_nnlo_as_0118_nf_4</weight>
    <weight id="495" MUR="1" MUF="1" PDF="320921"> Member 21 of sets NNPDF31_nnlo_as_0118_nf_4</weight>
    <weight id="496" MUR="1" MUF="1" PDF="320922"> Member 22 of sets NNPDF31_nnlo_as_0118_nf_4</weight>
    <weight id="497" MUR="1" MUF="1" PDF="320923"> Member 23 of sets NNPDF31_nnlo_as_0118_nf_4</weight>
    <weight id="498" MUR="1" MUF="1" PDF="320924"> Member 24 of sets NNPDF31_nnlo_as_0118_nf_4</weight>
    <weight id="499" MUR="1" MUF="1" PDF="320925"> Member 25 of sets NNPDF31_nnlo_as_0118_nf_4</weight>
    <weight id="500" MUR="1" MUF="1" PDF="320926"> Member 26 of sets NNPDF31_nnlo_as_0118_nf_4</weight>
    <weight id="501" MUR="1" MUF="1" PDF="320927"> Member 27 of sets NNPDF31_nnlo_as_0118_nf_4</weight>
    <weight id="502" MUR="1" MUF="1" PDF="320928"> Member 28 of sets NNPDF31_nnlo_as_0118_nf_4</weight>
    <weight id="503" MUR="1" MUF="1" PDF="320929"> Member 29 of sets NNPDF31_nnlo_as_0118_nf_4</weight>
    <weight id="504" MUR="1" MUF="1" PDF="320930"> Member 30 of sets NNPDF31_nnlo_as_0118_nf_4</weight>
    <weight id="505" MUR="1" MUF="1" PDF="320931"> Member 31 of sets NNPDF31_nnlo_as_0118_nf_4</weight>
    <weight id="506" MUR="1" MUF="1" PDF="320932"> Member 32 of sets NNPDF31_nnlo_as_0118_nf_4</weight>
    <weight id="507" MUR="1" MUF="1" PDF="320933"> Member 33 of sets NNPDF31_nnlo_as_0118_nf_4</weight>
    <weight id="508" MUR="1" MUF="1" PDF="320934"> Member 34 of sets NNPDF31_nnlo_as_0118_nf_4</weight>
    <weight id="509" MUR="1" MUF="1" PDF="320935"> Member 35 of sets NNPDF31_nnlo_as_0118_nf_4</weight>
    <weight id="510" MUR="1" MUF="1" PDF="320936"> Member 36 of sets NNPDF31_nnlo_as_0118_nf_4</weight>
    <weight id="511" MUR="1" MUF="1" PDF="320937"> Member 37 of sets NNPDF31_nnlo_as_0118_nf_4</weight>
    <weight id="512" MUR="1" MUF="1" PDF="320938"> Member 38 of sets NNPDF31_nnlo_as_0118_nf_4</weight>
    <weight id="513" MUR="1" MUF="1" PDF="320939"> Member 39 of sets NNPDF31_nnlo_as_0118_nf_4</weight>
    <weight id="514" MUR="1" MUF="1" PDF="320940"> Member 40 of sets NNPDF31_nnlo_as_0118_nf_4</weight>
    <weight id="515" MUR="1" MUF="1" PDF="320941"> Member 41 of sets NNPDF31_nnlo_as_0118_nf_4</weight>
    <weight id="516" MUR="1" MUF="1" PDF="320942"> Member 42 of sets NNPDF31_nnlo_as_0118_nf_4</weight>
    <weight id="517" MUR="1" MUF="1" PDF="320943"> Member 43 of sets NNPDF31_nnlo_as_0118_nf_4</weight>
    <weight id="518" MUR="1" MUF="1" PDF="320944"> Member 44 of sets NNPDF31_nnlo_as_0118_nf_4</weight>
    <weight id="519" MUR="1" MUF="1" PDF="320945"> Member 45 of sets NNPDF31_nnlo_as_0118_nf_4</weight>
    <weight id="520" MUR="1" MUF="1" PDF="320946"> Member 46 of sets NNPDF31_nnlo_as_0118_nf_4</weight>
    <weight id="521" MUR="1" MUF="1" PDF="320947"> Member 47 of sets NNPDF31_nnlo_as_0118_nf_4</weight>
    <weight id="522" MUR="1" MUF="1" PDF="320948"> Member 48 of sets NNPDF31_nnlo_as_0118_nf_4</weight>
    <weight id="523" MUR="1" MUF="1" PDF="320949"> Member 49 of sets NNPDF31_nnlo_as_0118_nf_4</weight>
    <weight id="524" MUR="1" MUF="1" PDF="320950"> Member 50 of sets NNPDF31_nnlo_as_0118_nf_4</weight>
    <weight id="525" MUR="1" MUF="1" PDF="320951"> Member 51 of sets NNPDF31_nnlo_as_0118_nf_4</weight>
    <weight id="526" MUR="1" MUF="1" PDF="320952"> Member 52 of sets NNPDF31_nnlo_as_0118_nf_4</weight>
    <weight id="527" MUR="1" MUF="1" PDF="320953"> Member 53 of sets NNPDF31_nnlo_as_0118_nf_4</weight>
    <weight id="528" MUR="1" MUF="1" PDF="320954"> Member 54 of sets NNPDF31_nnlo_as_0118_nf_4</weight>
    <weight id="529" MUR="1" MUF="1" PDF="320955"> Member 55 of sets NNPDF31_nnlo_as_0118_nf_4</weight>
    <weight id="530" MUR="1" MUF="1" PDF="320956"> Member 56 of sets NNPDF31_nnlo_as_0118_nf_4</weight>
    <weight id="531" MUR="1" MUF="1" PDF="320957"> Member 57 of sets NNPDF31_nnlo_as_0118_nf_4</weight>
    <weight id="532" MUR="1" MUF="1" PDF="320958"> Member 58 of sets NNPDF31_nnlo_as_0118_nf_4</weight>
    <weight id="533" MUR="1" MUF="1" PDF="320959"> Member 59 of sets NNPDF31_nnlo_as_0118_nf_4</weight>
    <weight id="534" MUR="1" MUF="1" PDF="320960"> Member 60 of sets NNPDF31_nnlo_as_0118_nf_4</weight>
    <weight id="535" MUR="1" MUF="1" PDF="320961"> Member 61 of sets NNPDF31_nnlo_as_0118_nf_4</weight>
    <weight id="536" MUR="1" MUF="1" PDF="320962"> Member 62 of sets NNPDF31_nnlo_as_0118_nf_4</weight>
    <weight id="537" MUR="1" MUF="1" PDF="320963"> Member 63 of sets NNPDF31_nnlo_as_0118_nf_4</weight>
    <weight id="538" MUR="1" MUF="1" PDF="320964"> Member 64 of sets NNPDF31_nnlo_as_0118_nf_4</weight>
    <weight id="539" MUR="1" MUF="1" PDF="320965"> Member 65 of sets NNPDF31_nnlo_as_0118_nf_4</weight>
    <weight id="540" MUR="1" MUF="1" PDF="320966"> Member 66 of sets NNPDF31_nnlo_as_0118_nf_4</weight>
    <weight id="541" MUR="1" MUF="1" PDF="320967"> Member 67 of sets NNPDF31_nnlo_as_0118_nf_4</weight>
    <weight id="542" MUR="1" MUF="1" PDF="320968"> Member 68 of sets NNPDF31_nnlo_as_0118_nf_4</weight>
    <weight id="543" MUR="1" MUF="1" PDF="320969"> Member 69 of sets NNPDF31_nnlo_as_0118_nf_4</weight>
    <weight id="544" MUR="1" MUF="1" PDF="320970"> Member 70 of sets NNPDF31_nnlo_as_0118_nf_4</weight>
    <weight id="545" MUR="1" MUF="1" PDF="320971"> Member 71 of sets NNPDF31_nnlo_as_0118_nf_4</weight>
    <weight id="546" MUR="1" MUF="1" PDF="320972"> Member 72 of sets NNPDF31_nnlo_as_0118_nf_4</weight>
    <weight id="547" MUR="1" MUF="1" PDF="320973"> Member 73 of sets NNPDF31_nnlo_as_0118_nf_4</weight>
    <weight id="548" MUR="1" MUF="1" PDF="320974"> Member 74 of sets NNPDF31_nnlo_as_0118_nf_4</weight>
    <weight id="549" MUR="1" MUF="1" PDF="320975"> Member 75 of sets NNPDF31_nnlo_as_0118_nf_4</weight>
    <weight id="550" MUR="1" MUF="1" PDF="320976"> Member 76 of sets NNPDF31_nnlo_as_0118_nf_4</weight>
    <weight id="551" MUR="1" MUF="1" PDF="320977"> Member 77 of sets NNPDF31_nnlo_as_0118_nf_4</weight>
    <weight id="552" MUR="1" MUF="1" PDF="320978"> Member 78 of sets NNPDF31_nnlo_as_0118_nf_4</weight>
    <weight id="553" MUR="1" MUF="1" PDF="320979"> Member 79 of sets NNPDF31_nnlo_as_0118_nf_4</weight>
    <weight id="554" MUR="1" MUF="1" PDF="320980"> Member 80 of sets NNPDF31_nnlo_as_0118_nf_4</weight>
    <weight id="555" MUR="1" MUF="1" PDF="320981"> Member 81 of sets NNPDF31_nnlo_as_0118_nf_4</weight>
    <weight id="556" MUR="1" MUF="1" PDF="320982"> Member 82 of sets NNPDF31_nnlo_as_0118_nf_4</weight>
    <weight id="557" MUR="1" MUF="1" PDF="320983"> Member 83 of sets NNPDF31_nnlo_as_0118_nf_4</weight>
    <weight id="558" MUR="1" MUF="1" PDF="320984"> Member 84 of sets NNPDF31_nnlo_as_0118_nf_4</weight>
    <weight id="559" MUR="1" MUF="1" PDF="320985"> Member 85 of sets NNPDF31_nnlo_as_0118_nf_4</weight>
    <weight id="560" MUR="1" MUF="1" PDF="320986"> Member 86 of sets NNPDF31_nnlo_as_0118_nf_4</weight>
    <weight id="561" MUR="1" MUF="1" PDF="320987"> Member 87 of sets NNPDF31_nnlo_as_0118_nf_4</weight>
    <weight id="562" MUR="1" MUF="1" PDF="320988"> Member 88 of sets NNPDF31_nnlo_as_0118_nf_4</weight>
    <weight id="563" MUR="1" MUF="1" PDF="320989"> Member 89 of sets NNPDF31_nnlo_as_0118_nf_4</weight>
    <weight id="564" MUR="1" MUF="1" PDF="320990"> Member 90 of sets NNPDF31_nnlo_as_0118_nf_4</weight>
    <weight id="565" MUR="1" MUF="1" PDF="320991"> Member 91 of sets NNPDF31_nnlo_as_0118_nf_4</weight>
    <weight id="566" MUR="1" MUF="1" PDF="320992"> Member 92 of sets NNPDF31_nnlo_as_0118_nf_4</weight>
    <weight id="567" MUR="1" MUF="1" PDF="320993"> Member 93 of sets NNPDF31_nnlo_as_0118_nf_4</weight>
    <weight id="568" MUR="1" MUF="1" PDF="320994"> Member 94 of sets NNPDF31_nnlo_as_0118_nf_4</weight>
    <weight id="569" MUR="1" MUF="1" PDF="320995"> Member 95 of sets NNPDF31_nnlo_as_0118_nf_4</weight>
    <weight id="570" MUR="1" MUF="1" PDF="320996"> Member 96 of sets NNPDF31_nnlo_as_0118_nf_4</weight>
    <weight id="571" MUR="1" MUF="1" PDF="320997"> Member 97 of sets NNPDF31_nnlo_as_0118_nf_4</weight>
    <weight id="572" MUR="1" MUF="1" PDF="320998"> Member 98 of sets NNPDF31_nnlo_as_0118_nf_4</weight>
    <weight id="573" MUR="1" MUF="1" PDF="320999"> Member 99 of sets NNPDF31_nnlo_as_0118_nf_4</weight>
    <weight id="574" MUR="1" MUF="1" PDF="321000"> Member 100 of sets NNPDF31_nnlo_as_0118_nf_4</weight>
  </weightgroup>
  <weightgroup name="NNPDF31_nlo_as_0118_nf_4" combine="hessian">
    <weight id="575" MUR="1" MUF="1" PDF="320500"> Member 0 of sets NNPDF31_nlo_as_0118_nf_4</weight>
    <weight id="576" MUR="1" MUF="1" PDF="320501"> Member 1 of sets NNPDF31_nlo_as_0118_nf_4</weight>
    <weight id="577" MUR="1" MUF="1" PDF="320502"> Member 2 of sets NNPDF31_nlo_as_0118_nf_4</weight>
    <weight id="578" MUR="1" MUF="1" PDF="320503"> Member 3 of sets NNPDF31_nlo_as_0118_nf_4</weight>
    <weight id="579" MUR="1" MUF="1" PDF="320504"> Member 4 of sets NNPDF31_nlo_as_0118_nf_4</weight>
    <weight id="580" MUR="1" MUF="1" PDF="320505"> Member 5 of sets NNPDF31_nlo_as_0118_nf_4</weight>
    <weight id="581" MUR="1" MUF="1" PDF="320506"> Member 6 of sets NNPDF31_nlo_as_0118_nf_4</weight>
    <weight id="582" MUR="1" MUF="1" PDF="320507"> Member 7 of sets NNPDF31_nlo_as_0118_nf_4</weight>
    <weight id="583" MUR="1" MUF="1" PDF="320508"> Member 8 of sets NNPDF31_nlo_as_0118_nf_4</weight>
    <weight id="584" MUR="1" MUF="1" PDF="320509"> Member 9 of sets NNPDF31_nlo_as_0118_nf_4</weight>
    <weight id="585" MUR="1" MUF="1" PDF="320510"> Member 10 of sets NNPDF31_nlo_as_0118_nf_4</weight>
    <weight id="586" MUR="1" MUF="1" PDF="320511"> Member 11 of sets NNPDF31_nlo_as_0118_nf_4</weight>
    <weight id="587" MUR="1" MUF="1" PDF="320512"> Member 12 of sets NNPDF31_nlo_as_0118_nf_4</weight>
    <weight id="588" MUR="1" MUF="1" PDF="320513"> Member 13 of sets NNPDF31_nlo_as_0118_nf_4</weight>
    <weight id="589" MUR="1" MUF="1" PDF="320514"> Member 14 of sets NNPDF31_nlo_as_0118_nf_4</weight>
    <weight id="590" MUR="1" MUF="1" PDF="320515"> Member 15 of sets NNPDF31_nlo_as_0118_nf_4</weight>
    <weight id="591" MUR="1" MUF="1" PDF="320516"> Member 16 of sets NNPDF31_nlo_as_0118_nf_4</weight>
    <weight id="592" MUR="1" MUF="1" PDF="320517"> Member 17 of sets NNPDF31_nlo_as_0118_nf_4</weight>
    <weight id="593" MUR="1" MUF="1" PDF="320518"> Member 18 of sets NNPDF31_nlo_as_0118_nf_4</weight>
    <weight id="594" MUR="1" MUF="1" PDF="320519"> Member 19 of sets NNPDF31_nlo_as_0118_nf_4</weight>
    <weight id="595" MUR="1" MUF="1" PDF="320520"> Member 20 of sets NNPDF31_nlo_as_0118_nf_4</weight>
    <weight id="596" MUR="1" MUF="1" PDF="320521"> Member 21 of sets NNPDF31_nlo_as_0118_nf_4</weight>
    <weight id="597" MUR="1" MUF="1" PDF="320522"> Member 22 of sets NNPDF31_nlo_as_0118_nf_4</weight>
    <weight id="598" MUR="1" MUF="1" PDF="320523"> Member 23 of sets NNPDF31_nlo_as_0118_nf_4</weight>
    <weight id="599" MUR="1" MUF="1" PDF="320524"> Member 24 of sets NNPDF31_nlo_as_0118_nf_4</weight>
    <weight id="600" MUR="1" MUF="1" PDF="320525"> Member 25 of sets NNPDF31_nlo_as_0118_nf_4</weight>
    <weight id="601" MUR="1" MUF="1" PDF="320526"> Member 26 of sets NNPDF31_nlo_as_0118_nf_4</weight>
    <weight id="602" MUR="1" MUF="1" PDF="320527"> Member 27 of sets NNPDF31_nlo_as_0118_nf_4</weight>
    <weight id="603" MUR="1" MUF="1" PDF="320528"> Member 28 of sets NNPDF31_nlo_as_0118_nf_4</weight>
    <weight id="604" MUR="1" MUF="1" PDF="320529"> Member 29 of sets NNPDF31_nlo_as_0118_nf_4</weight>
    <weight id="605" MUR="1" MUF="1" PDF="320530"> Member 30 of sets NNPDF31_nlo_as_0118_nf_4</weight>
    <weight id="606" MUR="1" MUF="1" PDF="320531"> Member 31 of sets NNPDF31_nlo_as_0118_nf_4</weight>
    <weight id="607" MUR="1" MUF="1" PDF="320532"> Member 32 of sets NNPDF31_nlo_as_0118_nf_4</weight>
    <weight id="608" MUR="1" MUF="1" PDF="320533"> Member 33 of sets NNPDF31_nlo_as_0118_nf_4</weight>
    <weight id="609" MUR="1" MUF="1" PDF="320534"> Member 34 of sets NNPDF31_nlo_as_0118_nf_4</weight>
    <weight id="610" MUR="1" MUF="1" PDF="320535"> Member 35 of sets NNPDF31_nlo_as_0118_nf_4</weight>
    <weight id="611" MUR="1" MUF="1" PDF="320536"> Member 36 of sets NNPDF31_nlo_as_0118_nf_4</weight>
    <weight id="612" MUR="1" MUF="1" PDF="320537"> Member 37 of sets NNPDF31_nlo_as_0118_nf_4</weight>
    <weight id="613" MUR="1" MUF="1" PDF="320538"> Member 38 of sets NNPDF31_nlo_as_0118_nf_4</weight>
    <weight id="614" MUR="1" MUF="1" PDF="320539"> Member 39 of sets NNPDF31_nlo_as_0118_nf_4</weight>
    <weight id="615" MUR="1" MUF="1" PDF="320540"> Member 40 of sets NNPDF31_nlo_as_0118_nf_4</weight>
    <weight id="616" MUR="1" MUF="1" PDF="320541"> Member 41 of sets NNPDF31_nlo_as_0118_nf_4</weight>
    <weight id="617" MUR="1" MUF="1" PDF="320542"> Member 42 of sets NNPDF31_nlo_as_0118_nf_4</weight>
    <weight id="618" MUR="1" MUF="1" PDF="320543"> Member 43 of sets NNPDF31_nlo_as_0118_nf_4</weight>
    <weight id="619" MUR="1" MUF="1" PDF="320544"> Member 44 of sets NNPDF31_nlo_as_0118_nf_4</weight>
    <weight id="620" MUR="1" MUF="1" PDF="320545"> Member 45 of sets NNPDF31_nlo_as_0118_nf_4</weight>
    <weight id="621" MUR="1" MUF="1" PDF="320546"> Member 46 of sets NNPDF31_nlo_as_0118_nf_4</weight>
    <weight id="622" MUR="1" MUF="1" PDF="320547"> Member 47 of sets NNPDF31_nlo_as_0118_nf_4</weight>
    <weight id="623" MUR="1" MUF="1" PDF="320548"> Member 48 of sets NNPDF31_nlo_as_0118_nf_4</weight>
    <weight id="624" MUR="1" MUF="1" PDF="320549"> Member 49 of sets NNPDF31_nlo_as_0118_nf_4</weight>
    <weight id="625" MUR="1" MUF="1" PDF="320550"> Member 50 of sets NNPDF31_nlo_as_0118_nf_4</weight>
    <weight id="626" MUR="1" MUF="1" PDF="320551"> Member 51 of sets NNPDF31_nlo_as_0118_nf_4</weight>
    <weight id="627" MUR="1" MUF="1" PDF="320552"> Member 52 of sets NNPDF31_nlo_as_0118_nf_4</weight>
    <weight id="628" MUR="1" MUF="1" PDF="320553"> Member 53 of sets NNPDF31_nlo_as_0118_nf_4</weight>
    <weight id="629" MUR="1" MUF="1" PDF="320554"> Member 54 of sets NNPDF31_nlo_as_0118_nf_4</weight>
    <weight id="630" MUR="1" MUF="1" PDF="320555"> Member 55 of sets NNPDF31_nlo_as_0118_nf_4</weight>
    <weight id="631" MUR="1" MUF="1" PDF="320556"> Member 56 of sets NNPDF31_nlo_as_0118_nf_4</weight>
    <weight id="632" MUR="1" MUF="1" PDF="320557"> Member 57 of sets NNPDF31_nlo_as_0118_nf_4</weight>
    <weight id="633" MUR="1" MUF="1" PDF="320558"> Member 58 of sets NNPDF31_nlo_as_0118_nf_4</weight>
    <weight id="634" MUR="1" MUF="1" PDF="320559"> Member 59 of sets NNPDF31_nlo_as_0118_nf_4</weight>
    <weight id="635" MUR="1" MUF="1" PDF="320560"> Member 60 of sets NNPDF31_nlo_as_0118_nf_4</weight>
    <weight id="636" MUR="1" MUF="1" PDF="320561"> Member 61 of sets NNPDF31_nlo_as_0118_nf_4</weight>
    <weight id="637" MUR="1" MUF="1" PDF="320562"> Member 62 of sets NNPDF31_nlo_as_0118_nf_4</weight>
    <weight id="638" MUR="1" MUF="1" PDF="320563"> Member 63 of sets NNPDF31_nlo_as_0118_nf_4</weight>
    <weight id="639" MUR="1" MUF="1" PDF="320564"> Member 64 of sets NNPDF31_nlo_as_0118_nf_4</weight>
    <weight id="640" MUR="1" MUF="1" PDF="320565"> Member 65 of sets NNPDF31_nlo_as_0118_nf_4</weight>
    <weight id="641" MUR="1" MUF="1" PDF="320566"> Member 66 of sets NNPDF31_nlo_as_0118_nf_4</weight>
    <weight id="642" MUR="1" MUF="1" PDF="320567"> Member 67 of sets NNPDF31_nlo_as_0118_nf_4</weight>
    <weight id="643" MUR="1" MUF="1" PDF="320568"> Member 68 of sets NNPDF31_nlo_as_0118_nf_4</weight>
    <weight id="644" MUR="1" MUF="1" PDF="320569"> Member 69 of sets NNPDF31_nlo_as_0118_nf_4</weight>
    <weight id="645" MUR="1" MUF="1" PDF="320570"> Member 70 of sets NNPDF31_nlo_as_0118_nf_4</weight>
    <weight id="646" MUR="1" MUF="1" PDF="320571"> Member 71 of sets NNPDF31_nlo_as_0118_nf_4</weight>
    <weight id="647" MUR="1" MUF="1" PDF="320572"> Member 72 of sets NNPDF31_nlo_as_0118_nf_4</weight>
    <weight id="648" MUR="1" MUF="1" PDF="320573"> Member 73 of sets NNPDF31_nlo_as_0118_nf_4</weight>
    <weight id="649" MUR="1" MUF="1" PDF="320574"> Member 74 of sets NNPDF31_nlo_as_0118_nf_4</weight>
    <weight id="650" MUR="1" MUF="1" PDF="320575"> Member 75 of sets NNPDF31_nlo_as_0118_nf_4</weight>
    <weight id="651" MUR="1" MUF="1" PDF="320576"> Member 76 of sets NNPDF31_nlo_as_0118_nf_4</weight>
    <weight id="652" MUR="1" MUF="1" PDF="320577"> Member 77 of sets NNPDF31_nlo_as_0118_nf_4</weight>
    <weight id="653" MUR="1" MUF="1" PDF="320578"> Member 78 of sets NNPDF31_nlo_as_0118_nf_4</weight>
    <weight id="654" MUR="1" MUF="1" PDF="320579"> Member 79 of sets NNPDF31_nlo_as_0118_nf_4</weight>
    <weight id="655" MUR="1" MUF="1" PDF="320580"> Member 80 of sets NNPDF31_nlo_as_0118_nf_4</weight>
    <weight id="656" MUR="1" MUF="1" PDF="320581"> Member 81 of sets NNPDF31_nlo_as_0118_nf_4</weight>
    <weight id="657" MUR="1" MUF="1" PDF="320582"> Member 82 of sets NNPDF31_nlo_as_0118_nf_4</weight>
    <weight id="658" MUR="1" MUF="1" PDF="320583"> Member 83 of sets NNPDF31_nlo_as_0118_nf_4</weight>
    <weight id="659" MUR="1" MUF="1" PDF="320584"> Member 84 of sets NNPDF31_nlo_as_0118_nf_4</weight>
    <weight id="660" MUR="1" MUF="1" PDF="320585"> Member 85 of sets NNPDF31_nlo_as_0118_nf_4</weight>
    <weight id="661" MUR="1" MUF="1" PDF="320586"> Member 86 of sets NNPDF31_nlo_as_0118_nf_4</weight>
    <weight id="662" MUR="1" MUF="1" PDF="320587"> Member 87 of sets NNPDF31_nlo_as_0118_nf_4</weight>
    <weight id="663" MUR="1" MUF="1" PDF="320588"> Member 88 of sets NNPDF31_nlo_as_0118_nf_4</weight>
    <weight id="664" MUR="1" MUF="1" PDF="320589"> Member 89 of sets NNPDF31_nlo_as_0118_nf_4</weight>
    <weight id="665" MUR="1" MUF="1" PDF="320590"> Member 90 of sets NNPDF31_nlo_as_0118_nf_4</weight>
    <weight id="666" MUR="1" MUF="1" PDF="320591"> Member 91 of sets NNPDF31_nlo_as_0118_nf_4</weight>
    <weight id="667" MUR="1" MUF="1" PDF="320592"> Member 92 of sets NNPDF31_nlo_as_0118_nf_4</weight>
    <weight id="668" MUR="1" MUF="1" PDF="320593"> Member 93 of sets NNPDF31_nlo_as_0118_nf_4</weight>
    <weight id="669" MUR="1" MUF="1" PDF="320594"> Member 94 of sets NNPDF31_nlo_as_0118_nf_4</weight>
    <weight id="670" MUR="1" MUF="1" PDF="320595"> Member 95 of sets NNPDF31_nlo_as_0118_nf_4</weight>
    <weight id="671" MUR="1" MUF="1" PDF="320596"> Member 96 of sets NNPDF31_nlo_as_0118_nf_4</weight>
    <weight id="672" MUR="1" MUF="1" PDF="320597"> Member 97 of sets NNPDF31_nlo_as_0118_nf_4</weight>
    <weight id="673" MUR="1" MUF="1" PDF="320598"> Member 98 of sets NNPDF31_nlo_as_0118_nf_4</weight>
    <weight id="674" MUR="1" MUF="1" PDF="320599"> Member 99 of sets NNPDF31_nlo_as_0118_nf_4</weight>
    <weight id="675" MUR="1" MUF="1" PDF="320600"> Member 100 of sets NNPDF31_nlo_as_0118_nf_4</weight>
  </weightgroup>
  <weightgroup name="NNPDF30_nlo_as_0118_nf_4" combine="hessian">
    <weight id="676" MUR="1" MUF="1" PDF="260400"> Member 0 of sets NNPDF30_nlo_as_0118_nf_4</weight>
    <weight id="677" MUR="1" MUF="1" PDF="260401"> Member 1 of sets NNPDF30_nlo_as_0118_nf_4</weight>
    <weight id="678" MUR="1" MUF="1" PDF="260402"> Member 2 of sets NNPDF30_nlo_as_0118_nf_4</weight>
    <weight id="679" MUR="1" MUF="1" PDF="260403"> Member 3 of sets NNPDF30_nlo_as_0118_nf_4</weight>
    <weight id="680" MUR="1" MUF="1" PDF="260404"> Member 4 of sets NNPDF30_nlo_as_0118_nf_4</weight>
    <weight id="681" MUR="1" MUF="1" PDF="260405"> Member 5 of sets NNPDF30_nlo_as_0118_nf_4</weight>
    <weight id="682" MUR="1" MUF="1" PDF="260406"> Member 6 of sets NNPDF30_nlo_as_0118_nf_4</weight>
    <weight id="683" MUR="1" MUF="1" PDF="260407"> Member 7 of sets NNPDF30_nlo_as_0118_nf_4</weight>
    <weight id="684" MUR="1" MUF="1" PDF="260408"> Member 8 of sets NNPDF30_nlo_as_0118_nf_4</weight>
    <weight id="685" MUR="1" MUF="1" PDF="260409"> Member 9 of sets NNPDF30_nlo_as_0118_nf_4</weight>
    <weight id="686" MUR="1" MUF="1" PDF="260410"> Member 10 of sets NNPDF30_nlo_as_0118_nf_4</weight>
    <weight id="687" MUR="1" MUF="1" PDF="260411"> Member 11 of sets NNPDF30_nlo_as_0118_nf_4</weight>
    <weight id="688" MUR="1" MUF="1" PDF="260412"> Member 12 of sets NNPDF30_nlo_as_0118_nf_4</weight>
    <weight id="689" MUR="1" MUF="1" PDF="260413"> Member 13 of sets NNPDF30_nlo_as_0118_nf_4</weight>
    <weight id="690" MUR="1" MUF="1" PDF="260414"> Member 14 of sets NNPDF30_nlo_as_0118_nf_4</weight>
    <weight id="691" MUR="1" MUF="1" PDF="260415"> Member 15 of sets NNPDF30_nlo_as_0118_nf_4</weight>
    <weight id="692" MUR="1" MUF="1" PDF="260416"> Member 16 of sets NNPDF30_nlo_as_0118_nf_4</weight>
    <weight id="693" MUR="1" MUF="1" PDF="260417"> Member 17 of sets NNPDF30_nlo_as_0118_nf_4</weight>
    <weight id="694" MUR="1" MUF="1" PDF="260418"> Member 18 of sets NNPDF30_nlo_as_0118_nf_4</weight>
    <weight id="695" MUR="1" MUF="1" PDF="260419"> Member 19 of sets NNPDF30_nlo_as_0118_nf_4</weight>
    <weight id="696" MUR="1" MUF="1" PDF="260420"> Member 20 of sets NNPDF30_nlo_as_0118_nf_4</weight>
    <weight id="697" MUR="1" MUF="1" PDF="260421"> Member 21 of sets NNPDF30_nlo_as_0118_nf_4</weight>
    <weight id="698" MUR="1" MUF="1" PDF="260422"> Member 22 of sets NNPDF30_nlo_as_0118_nf_4</weight>
    <weight id="699" MUR="1" MUF="1" PDF="260423"> Member 23 of sets NNPDF30_nlo_as_0118_nf_4</weight>
    <weight id="700" MUR="1" MUF="1" PDF="260424"> Member 24 of sets NNPDF30_nlo_as_0118_nf_4</weight>
    <weight id="701" MUR="1" MUF="1" PDF="260425"> Member 25 of sets NNPDF30_nlo_as_0118_nf_4</weight>
    <weight id="702" MUR="1" MUF="1" PDF="260426"> Member 26 of sets NNPDF30_nlo_as_0118_nf_4</weight>
    <weight id="703" MUR="1" MUF="1" PDF="260427"> Member 27 of sets NNPDF30_nlo_as_0118_nf_4</weight>
    <weight id="704" MUR="1" MUF="1" PDF="260428"> Member 28 of sets NNPDF30_nlo_as_0118_nf_4</weight>
    <weight id="705" MUR="1" MUF="1" PDF="260429"> Member 29 of sets NNPDF30_nlo_as_0118_nf_4</weight>
    <weight id="706" MUR="1" MUF="1" PDF="260430"> Member 30 of sets NNPDF30_nlo_as_0118_nf_4</weight>
    <weight id="707" MUR="1" MUF="1" PDF="260431"> Member 31 of sets NNPDF30_nlo_as_0118_nf_4</weight>
    <weight id="708" MUR="1" MUF="1" PDF="260432"> Member 32 of sets NNPDF30_nlo_as_0118_nf_4</weight>
    <weight id="709" MUR="1" MUF="1" PDF="260433"> Member 33 of sets NNPDF30_nlo_as_0118_nf_4</weight>
    <weight id="710" MUR="1" MUF="1" PDF="260434"> Member 34 of sets NNPDF30_nlo_as_0118_nf_4</weight>
    <weight id="711" MUR="1" MUF="1" PDF="260435"> Member 35 of sets NNPDF30_nlo_as_0118_nf_4</weight>
    <weight id="712" MUR="1" MUF="1" PDF="260436"> Member 36 of sets NNPDF30_nlo_as_0118_nf_4</weight>
    <weight id="713" MUR="1" MUF="1" PDF="260437"> Member 37 of sets NNPDF30_nlo_as_0118_nf_4</weight>
    <weight id="714" MUR="1" MUF="1" PDF="260438"> Member 38 of sets NNPDF30_nlo_as_0118_nf_4</weight>
    <weight id="715" MUR="1" MUF="1" PDF="260439"> Member 39 of sets NNPDF30_nlo_as_0118_nf_4</weight>
    <weight id="716" MUR="1" MUF="1" PDF="260440"> Member 40 of sets NNPDF30_nlo_as_0118_nf_4</weight>
    <weight id="717" MUR="1" MUF="1" PDF="260441"> Member 41 of sets NNPDF30_nlo_as_0118_nf_4</weight>
    <weight id="718" MUR="1" MUF="1" PDF="260442"> Member 42 of sets NNPDF30_nlo_as_0118_nf_4</weight>
    <weight id="719" MUR="1" MUF="1" PDF="260443"> Member 43 of sets NNPDF30_nlo_as_0118_nf_4</weight>
    <weight id="720" MUR="1" MUF="1" PDF="260444"> Member 44 of sets NNPDF30_nlo_as_0118_nf_4</weight>
    <weight id="721" MUR="1" MUF="1" PDF="260445"> Member 45 of sets NNPDF30_nlo_as_0118_nf_4</weight>
    <weight id="722" MUR="1" MUF="1" PDF="260446"> Member 46 of sets NNPDF30_nlo_as_0118_nf_4</weight>
    <weight id="723" MUR="1" MUF="1" PDF="260447"> Member 47 of sets NNPDF30_nlo_as_0118_nf_4</weight>
    <weight id="724" MUR="1" MUF="1" PDF="260448"> Member 48 of sets NNPDF30_nlo_as_0118_nf_4</weight>
    <weight id="725" MUR="1" MUF="1" PDF="260449"> Member 49 of sets NNPDF30_nlo_as_0118_nf_4</weight>
    <weight id="726" MUR="1" MUF="1" PDF="260450"> Member 50 of sets NNPDF30_nlo_as_0118_nf_4</weight>
    <weight id="727" MUR="1" MUF="1" PDF="260451"> Member 51 of sets NNPDF30_nlo_as_0118_nf_4</weight>
    <weight id="728" MUR="1" MUF="1" PDF="260452"> Member 52 of sets NNPDF30_nlo_as_0118_nf_4</weight>
    <weight id="729" MUR="1" MUF="1" PDF="260453"> Member 53 of sets NNPDF30_nlo_as_0118_nf_4</weight>
    <weight id="730" MUR="1" MUF="1" PDF="260454"> Member 54 of sets NNPDF30_nlo_as_0118_nf_4</weight>
    <weight id="731" MUR="1" MUF="1" PDF="260455"> Member 55 of sets NNPDF30_nlo_as_0118_nf_4</weight>
    <weight id="732" MUR="1" MUF="1" PDF="260456"> Member 56 of sets NNPDF30_nlo_as_0118_nf_4</weight>
    <weight id="733" MUR="1" MUF="1" PDF="260457"> Member 57 of sets NNPDF30_nlo_as_0118_nf_4</weight>
    <weight id="734" MUR="1" MUF="1" PDF="260458"> Member 58 of sets NNPDF30_nlo_as_0118_nf_4</weight>
    <weight id="735" MUR="1" MUF="1" PDF="260459"> Member 59 of sets NNPDF30_nlo_as_0118_nf_4</weight>
    <weight id="736" MUR="1" MUF="1" PDF="260460"> Member 60 of sets NNPDF30_nlo_as_0118_nf_4</weight>
    <weight id="737" MUR="1" MUF="1" PDF="260461"> Member 61 of sets NNPDF30_nlo_as_0118_nf_4</weight>
    <weight id="738" MUR="1" MUF="1" PDF="260462"> Member 62 of sets NNPDF30_nlo_as_0118_nf_4</weight>
    <weight id="739" MUR="1" MUF="1" PDF="260463"> Member 63 of sets NNPDF30_nlo_as_0118_nf_4</weight>
    <weight id="740" MUR="1" MUF="1" PDF="260464"> Member 64 of sets NNPDF30_nlo_as_0118_nf_4</weight>
    <weight id="741" MUR="1" MUF="1" PDF="260465"> Member 65 of sets NNPDF30_nlo_as_0118_nf_4</weight>
    <weight id="742" MUR="1" MUF="1" PDF="260466"> Member 66 of sets NNPDF30_nlo_as_0118_nf_4</weight>
    <weight id="743" MUR="1" MUF="1" PDF="260467"> Member 67 of sets NNPDF30_nlo_as_0118_nf_4</weight>
    <weight id="744" MUR="1" MUF="1" PDF="260468"> Member 68 of sets NNPDF30_nlo_as_0118_nf_4</weight>
    <weight id="745" MUR="1" MUF="1" PDF="260469"> Member 69 of sets NNPDF30_nlo_as_0118_nf_4</weight>
    <weight id="746" MUR="1" MUF="1" PDF="260470"> Member 70 of sets NNPDF30_nlo_as_0118_nf_4</weight>
    <weight id="747" MUR="1" MUF="1" PDF="260471"> Member 71 of sets NNPDF30_nlo_as_0118_nf_4</weight>
    <weight id="748" MUR="1" MUF="1" PDF="260472"> Member 72 of sets NNPDF30_nlo_as_0118_nf_4</weight>
    <weight id="749" MUR="1" MUF="1" PDF="260473"> Member 73 of sets NNPDF30_nlo_as_0118_nf_4</weight>
    <weight id="750" MUR="1" MUF="1" PDF="260474"> Member 74 of sets NNPDF30_nlo_as_0118_nf_4</weight>
    <weight id="751" MUR="1" MUF="1" PDF="260475"> Member 75 of sets NNPDF30_nlo_as_0118_nf_4</weight>
    <weight id="752" MUR="1" MUF="1" PDF="260476"> Member 76 of sets NNPDF30_nlo_as_0118_nf_4</weight>
    <weight id="753" MUR="1" MUF="1" PDF="260477"> Member 77 of sets NNPDF30_nlo_as_0118_nf_4</weight>
    <weight id="754" MUR="1" MUF="1" PDF="260478"> Member 78 of sets NNPDF30_nlo_as_0118_nf_4</weight>
    <weight id="755" MUR="1" MUF="1" PDF="260479"> Member 79 of sets NNPDF30_nlo_as_0118_nf_4</weight>
    <weight id="756" MUR="1" MUF="1" PDF="260480"> Member 80 of sets NNPDF30_nlo_as_0118_nf_4</weight>
    <weight id="757" MUR="1" MUF="1" PDF="260481"> Member 81 of sets NNPDF30_nlo_as_0118_nf_4</weight>
    <weight id="758" MUR="1" MUF="1" PDF="260482"> Member 82 of sets NNPDF30_nlo_as_0118_nf_4</weight>
    <weight id="759" MUR="1" MUF="1" PDF="260483"> Member 83 of sets NNPDF30_nlo_as_0118_nf_4</weight>
    <weight id="760" MUR="1" MUF="1" PDF="260484"> Member 84 of sets NNPDF30_nlo_as_0118_nf_4</weight>
    <weight id="761" MUR="1" MUF="1" PDF="260485"> Member 85 of sets NNPDF30_nlo_as_0118_nf_4</weight>
    <weight id="762" MUR="1" MUF="1" PDF="260486"> Member 86 of sets NNPDF30_nlo_as_0118_nf_4</weight>
    <weight id="763" MUR="1" MUF="1" PDF="260487"> Member 87 of sets NNPDF30_nlo_as_0118_nf_4</weight>
    <weight id="764" MUR="1" MUF="1" PDF="260488"> Member 88 of sets NNPDF30_nlo_as_0118_nf_4</weight>
    <weight id="765" MUR="1" MUF="1" PDF="260489"> Member 89 of sets NNPDF30_nlo_as_0118_nf_4</weight>
    <weight id="766" MUR="1" MUF="1" PDF="260490"> Member 90 of sets NNPDF30_nlo_as_0118_nf_4</weight>
    <weight id="767" MUR="1" MUF="1" PDF="260491"> Member 91 of sets NNPDF30_nlo_as_0118_nf_4</weight>
    <weight id="768" MUR="1" MUF="1" PDF="260492"> Member 92 of sets NNPDF30_nlo_as_0118_nf_4</weight>
    <weight id="769" MUR="1" MUF="1" PDF="260493"> Member 93 of sets NNPDF30_nlo_as_0118_nf_4</weight>
    <weight id="770" MUR="1" MUF="1" PDF="260494"> Member 94 of sets NNPDF30_nlo_as_0118_nf_4</weight>
    <weight id="771" MUR="1" MUF="1" PDF="260495"> Member 95 of sets NNPDF30_nlo_as_0118_nf_4</weight>
    <weight id="772" MUR="1" MUF="1" PDF="260496"> Member 96 of sets NNPDF30_nlo_as_0118_nf_4</weight>
    <weight id="773" MUR="1" MUF="1" PDF="260497"> Member 97 of sets NNPDF30_nlo_as_0118_nf_4</weight>
    <weight id="774" MUR="1" MUF="1" PDF="260498"> Member 98 of sets NNPDF30_nlo_as_0118_nf_4</weight>
    <weight id="775" MUR="1" MUF="1" PDF="260499"> Member 99 of sets NNPDF30_nlo_as_0118_nf_4</weight>
    <weight id="776" MUR="1" MUF="1" PDF="260500"> Member 100 of sets NNPDF30_nlo_as_0118_nf_4</weight>
  </weightgroup>
  <weightgroup name="NNPDF30_lo_as_0118_nf_4" combine="hessian">
    <weight id="777" MUR="1" MUF="1" PDF="262400"> Member 0 of sets NNPDF30_lo_as_0118_nf_4</weight>
  </weightgroup>
  <weightgroup name="NNPDF30_lo_as_0130_nf_4" combine="hessian">
    <weight id="778" MUR="1" MUF="1" PDF="263400"> Member 0 of sets NNPDF30_lo_as_0130_nf_4</weight>
    <weight id="779" MUR="1" MUF="1" PDF="263401"> Member 1 of sets NNPDF30_lo_as_0130_nf_4</weight>
    <weight id="780" MUR="1" MUF="1" PDF="263402"> Member 2 of sets NNPDF30_lo_as_0130_nf_4</weight>
    <weight id="781" MUR="1" MUF="1" PDF="263403"> Member 3 of sets NNPDF30_lo_as_0130_nf_4</weight>
    <weight id="782" MUR="1" MUF="1" PDF="263404"> Member 4 of sets NNPDF30_lo_as_0130_nf_4</weight>
    <weight id="783" MUR="1" MUF="1" PDF="263405"> Member 5 of sets NNPDF30_lo_as_0130_nf_4</weight>
    <weight id="784" MUR="1" MUF="1" PDF="263406"> Member 6 of sets NNPDF30_lo_as_0130_nf_4</weight>
    <weight id="785" MUR="1" MUF="1" PDF="263407"> Member 7 of sets NNPDF30_lo_as_0130_nf_4</weight>
    <weight id="786" MUR="1" MUF="1" PDF="263408"> Member 8 of sets NNPDF30_lo_as_0130_nf_4</weight>
    <weight id="787" MUR="1" MUF="1" PDF="263409"> Member 9 of sets NNPDF30_lo_as_0130_nf_4</weight>
    <weight id="788" MUR="1" MUF="1" PDF="263410"> Member 10 of sets NNPDF30_lo_as_0130_nf_4</weight>
    <weight id="789" MUR="1" MUF="1" PDF="263411"> Member 11 of sets NNPDF30_lo_as_0130_nf_4</weight>
    <weight id="790" MUR="1" MUF="1" PDF="263412"> Member 12 of sets NNPDF30_lo_as_0130_nf_4</weight>
    <weight id="791" MUR="1" MUF="1" PDF="263413"> Member 13 of sets NNPDF30_lo_as_0130_nf_4</weight>
    <weight id="792" MUR="1" MUF="1" PDF="263414"> Member 14 of sets NNPDF30_lo_as_0130_nf_4</weight>
    <weight id="793" MUR="1" MUF="1" PDF="263415"> Member 15 of sets NNPDF30_lo_as_0130_nf_4</weight>
    <weight id="794" MUR="1" MUF="1" PDF="263416"> Member 16 of sets NNPDF30_lo_as_0130_nf_4</weight>
    <weight id="795" MUR="1" MUF="1" PDF="263417"> Member 17 of sets NNPDF30_lo_as_0130_nf_4</weight>
    <weight id="796" MUR="1" MUF="1" PDF="263418"> Member 18 of sets NNPDF30_lo_as_0130_nf_4</weight>
    <weight id="797" MUR="1" MUF="1" PDF="263419"> Member 19 of sets NNPDF30_lo_as_0130_nf_4</weight>
    <weight id="798" MUR="1" MUF="1" PDF="263420"> Member 20 of sets NNPDF30_lo_as_0130_nf_4</weight>
    <weight id="799" MUR="1" MUF="1" PDF="263421"> Member 21 of sets NNPDF30_lo_as_0130_nf_4</weight>
    <weight id="800" MUR="1" MUF="1" PDF="263422"> Member 22 of sets NNPDF30_lo_as_0130_nf_4</weight>
    <weight id="801" MUR="1" MUF="1" PDF="263423"> Member 23 of sets NNPDF30_lo_as_0130_nf_4</weight>
    <weight id="802" MUR="1" MUF="1" PDF="263424"> Member 24 of sets NNPDF30_lo_as_0130_nf_4</weight>
    <weight id="803" MUR="1" MUF="1" PDF="263425"> Member 25 of sets NNPDF30_lo_as_0130_nf_4</weight>
    <weight id="804" MUR="1" MUF="1" PDF="263426"> Member 26 of sets NNPDF30_lo_as_0130_nf_4</weight>
    <weight id="805" MUR="1" MUF="1" PDF="263427"> Member 27 of sets NNPDF30_lo_as_0130_nf_4</weight>
    <weight id="806" MUR="1" MUF="1" PDF="263428"> Member 28 of sets NNPDF30_lo_as_0130_nf_4</weight>
    <weight id="807" MUR="1" MUF="1" PDF="263429"> Member 29 of sets NNPDF30_lo_as_0130_nf_4</weight>
    <weight id="808" MUR="1" MUF="1" PDF="263430"> Member 30 of sets NNPDF30_lo_as_0130_nf_4</weight>
    <weight id="809" MUR="1" MUF="1" PDF="263431"> Member 31 of sets NNPDF30_lo_as_0130_nf_4</weight>
    <weight id="810" MUR="1" MUF="1" PDF="263432"> Member 32 of sets NNPDF30_lo_as_0130_nf_4</weight>
    <weight id="811" MUR="1" MUF="1" PDF="263433"> Member 33 of sets NNPDF30_lo_as_0130_nf_4</weight>
    <weight id="812" MUR="1" MUF="1" PDF="263434"> Member 34 of sets NNPDF30_lo_as_0130_nf_4</weight>
    <weight id="813" MUR="1" MUF="1" PDF="263435"> Member 35 of sets NNPDF30_lo_as_0130_nf_4</weight>
    <weight id="814" MUR="1" MUF="1" PDF="263436"> Member 36 of sets NNPDF30_lo_as_0130_nf_4</weight>
    <weight id="815" MUR="1" MUF="1" PDF="263437"> Member 37 of sets NNPDF30_lo_as_0130_nf_4</weight>
    <weight id="816" MUR="1" MUF="1" PDF="263438"> Member 38 of sets NNPDF30_lo_as_0130_nf_4</weight>
    <weight id="817" MUR="1" MUF="1" PDF="263439"> Member 39 of sets NNPDF30_lo_as_0130_nf_4</weight>
    <weight id="818" MUR="1" MUF="1" PDF="263440"> Member 40 of sets NNPDF30_lo_as_0130_nf_4</weight>
    <weight id="819" MUR="1" MUF="1" PDF="263441"> Member 41 of sets NNPDF30_lo_as_0130_nf_4</weight>
    <weight id="820" MUR="1" MUF="1" PDF="263442"> Member 42 of sets NNPDF30_lo_as_0130_nf_4</weight>
    <weight id="821" MUR="1" MUF="1" PDF="263443"> Member 43 of sets NNPDF30_lo_as_0130_nf_4</weight>
    <weight id="822" MUR="1" MUF="1" PDF="263444"> Member 44 of sets NNPDF30_lo_as_0130_nf_4</weight>
    <weight id="823" MUR="1" MUF="1" PDF="263445"> Member 45 of sets NNPDF30_lo_as_0130_nf_4</weight>
    <weight id="824" MUR="1" MUF="1" PDF="263446"> Member 46 of sets NNPDF30_lo_as_0130_nf_4</weight>
    <weight id="825" MUR="1" MUF="1" PDF="263447"> Member 47 of sets NNPDF30_lo_as_0130_nf_4</weight>
    <weight id="826" MUR="1" MUF="1" PDF="263448"> Member 48 of sets NNPDF30_lo_as_0130_nf_4</weight>
    <weight id="827" MUR="1" MUF="1" PDF="263449"> Member 49 of sets NNPDF30_lo_as_0130_nf_4</weight>
    <weight id="828" MUR="1" MUF="1" PDF="263450"> Member 50 of sets NNPDF30_lo_as_0130_nf_4</weight>
    <weight id="829" MUR="1" MUF="1" PDF="263451"> Member 51 of sets NNPDF30_lo_as_0130_nf_4</weight>
    <weight id="830" MUR="1" MUF="1" PDF="263452"> Member 52 of sets NNPDF30_lo_as_0130_nf_4</weight>
    <weight id="831" MUR="1" MUF="1" PDF="263453"> Member 53 of sets NNPDF30_lo_as_0130_nf_4</weight>
    <weight id="832" MUR="1" MUF="1" PDF="263454"> Member 54 of sets NNPDF30_lo_as_0130_nf_4</weight>
    <weight id="833" MUR="1" MUF="1" PDF="263455"> Member 55 of sets NNPDF30_lo_as_0130_nf_4</weight>
    <weight id="834" MUR="1" MUF="1" PDF="263456"> Member 56 of sets NNPDF30_lo_as_0130_nf_4</weight>
    <weight id="835" MUR="1" MUF="1" PDF="263457"> Member 57 of sets NNPDF30_lo_as_0130_nf_4</weight>
    <weight id="836" MUR="1" MUF="1" PDF="263458"> Member 58 of sets NNPDF30_lo_as_0130_nf_4</weight>
    <weight id="837" MUR="1" MUF="1" PDF="263459"> Member 59 of sets NNPDF30_lo_as_0130_nf_4</weight>
    <weight id="838" MUR="1" MUF="1" PDF="263460"> Member 60 of sets NNPDF30_lo_as_0130_nf_4</weight>
    <weight id="839" MUR="1" MUF="1" PDF="263461"> Member 61 of sets NNPDF30_lo_as_0130_nf_4</weight>
    <weight id="840" MUR="1" MUF="1" PDF="263462"> Member 62 of sets NNPDF30_lo_as_0130_nf_4</weight>
    <weight id="841" MUR="1" MUF="1" PDF="263463"> Member 63 of sets NNPDF30_lo_as_0130_nf_4</weight>
    <weight id="842" MUR="1" MUF="1" PDF="263464"> Member 64 of sets NNPDF30_lo_as_0130_nf_4</weight>
    <weight id="843" MUR="1" MUF="1" PDF="263465"> Member 65 of sets NNPDF30_lo_as_0130_nf_4</weight>
    <weight id="844" MUR="1" MUF="1" PDF="263466"> Member 66 of sets NNPDF30_lo_as_0130_nf_4</weight>
    <weight id="845" MUR="1" MUF="1" PDF="263467"> Member 67 of sets NNPDF30_lo_as_0130_nf_4</weight>
    <weight id="846" MUR="1" MUF="1" PDF="263468"> Member 68 of sets NNPDF30_lo_as_0130_nf_4</weight>
    <weight id="847" MUR="1" MUF="1" PDF="263469"> Member 69 of sets NNPDF30_lo_as_0130_nf_4</weight>
    <weight id="848" MUR="1" MUF="1" PDF="263470"> Member 70 of sets NNPDF30_lo_as_0130_nf_4</weight>
    <weight id="849" MUR="1" MUF="1" PDF="263471"> Member 71 of sets NNPDF30_lo_as_0130_nf_4</weight>
    <weight id="850" MUR="1" MUF="1" PDF="263472"> Member 72 of sets NNPDF30_lo_as_0130_nf_4</weight>
    <weight id="851" MUR="1" MUF="1" PDF="263473"> Member 73 of sets NNPDF30_lo_as_0130_nf_4</weight>
    <weight id="852" MUR="1" MUF="1" PDF="263474"> Member 74 of sets NNPDF30_lo_as_0130_nf_4</weight>
    <weight id="853" MUR="1" MUF="1" PDF="263475"> Member 75 of sets NNPDF30_lo_as_0130_nf_4</weight>
    <weight id="854" MUR="1" MUF="1" PDF="263476"> Member 76 of sets NNPDF30_lo_as_0130_nf_4</weight>
    <weight id="855" MUR="1" MUF="1" PDF="263477"> Member 77 of sets NNPDF30_lo_as_0130_nf_4</weight>
    <weight id="856" MUR="1" MUF="1" PDF="263478"> Member 78 of sets NNPDF30_lo_as_0130_nf_4</weight>
    <weight id="857" MUR="1" MUF="1" PDF="263479"> Member 79 of sets NNPDF30_lo_as_0130_nf_4</weight>
    <weight id="858" MUR="1" MUF="1" PDF="263480"> Member 80 of sets NNPDF30_lo_as_0130_nf_4</weight>
    <weight id="859" MUR="1" MUF="1" PDF="263481"> Member 81 of sets NNPDF30_lo_as_0130_nf_4</weight>
    <weight id="860" MUR="1" MUF="1" PDF="263482"> Member 82 of sets NNPDF30_lo_as_0130_nf_4</weight>
    <weight id="861" MUR="1" MUF="1" PDF="263483"> Member 83 of sets NNPDF30_lo_as_0130_nf_4</weight>
    <weight id="862" MUR="1" MUF="1" PDF="263484"> Member 84 of sets NNPDF30_lo_as_0130_nf_4</weight>
    <weight id="863" MUR="1" MUF="1" PDF="263485"> Member 85 of sets NNPDF30_lo_as_0130_nf_4</weight>
    <weight id="864" MUR="1" MUF="1" PDF="263486"> Member 86 of sets NNPDF30_lo_as_0130_nf_4</weight>
    <weight id="865" MUR="1" MUF="1" PDF="263487"> Member 87 of sets NNPDF30_lo_as_0130_nf_4</weight>
    <weight id="866" MUR="1" MUF="1" PDF="263488"> Member 88 of sets NNPDF30_lo_as_0130_nf_4</weight>
    <weight id="867" MUR="1" MUF="1" PDF="263489"> Member 89 of sets NNPDF30_lo_as_0130_nf_4</weight>
    <weight id="868" MUR="1" MUF="1" PDF="263490"> Member 90 of sets NNPDF30_lo_as_0130_nf_4</weight>
    <weight id="869" MUR="1" MUF="1" PDF="263491"> Member 91 of sets NNPDF30_lo_as_0130_nf_4</weight>
    <weight id="870" MUR="1" MUF="1" PDF="263492"> Member 92 of sets NNPDF30_lo_as_0130_nf_4</weight>
    <weight id="871" MUR="1" MUF="1" PDF="263493"> Member 93 of sets NNPDF30_lo_as_0130_nf_4</weight>
    <weight id="872" MUR="1" MUF="1" PDF="263494"> Member 94 of sets NNPDF30_lo_as_0130_nf_4</weight>
    <weight id="873" MUR="1" MUF="1" PDF="263495"> Member 95 of sets NNPDF30_lo_as_0130_nf_4</weight>
    <weight id="874" MUR="1" MUF="1" PDF="263496"> Member 96 of sets NNPDF30_lo_as_0130_nf_4</weight>
    <weight id="875" MUR="1" MUF="1" PDF="263497"> Member 97 of sets NNPDF30_lo_as_0130_nf_4</weight>
    <weight id="876" MUR="1" MUF="1" PDF="263498"> Member 98 of sets NNPDF30_lo_as_0130_nf_4</weight>
    <weight id="877" MUR="1" MUF="1" PDF="263499"> Member 99 of sets NNPDF30_lo_as_0130_nf_4</weight>
    <weight id="878" MUR="1" MUF="1" PDF="263500"> Member 100 of sets NNPDF30_lo_as_0130_nf_4</weight>
  </weightgroup>
  <weightgroup name="NNPDF30_nlo_nf_4_pdfas" combine="hessian">
    <weight id="879" MUR="1" MUF="1" PDF="292000"> Member 0 of sets NNPDF30_nlo_nf_4_pdfas</weight>
    <weight id="880" MUR="1" MUF="1" PDF="292001"> Member 1 of sets NNPDF30_nlo_nf_4_pdfas</weight>
    <weight id="881" MUR="1" MUF="1" PDF="292002"> Member 2 of sets NNPDF30_nlo_nf_4_pdfas</weight>
    <weight id="882" MUR="1" MUF="1" PDF="292003"> Member 3 of sets NNPDF30_nlo_nf_4_pdfas</weight>
    <weight id="883" MUR="1" MUF="1" PDF="292004"> Member 4 of sets NNPDF30_nlo_nf_4_pdfas</weight>
    <weight id="884" MUR="1" MUF="1" PDF="292005"> Member 5 of sets NNPDF30_nlo_nf_4_pdfas</weight>
    <weight id="885" MUR="1" MUF="1" PDF="292006"> Member 6 of sets NNPDF30_nlo_nf_4_pdfas</weight>
    <weight id="886" MUR="1" MUF="1" PDF="292007"> Member 7 of sets NNPDF30_nlo_nf_4_pdfas</weight>
    <weight id="887" MUR="1" MUF="1" PDF="292008"> Member 8 of sets NNPDF30_nlo_nf_4_pdfas</weight>
    <weight id="888" MUR="1" MUF="1" PDF="292009"> Member 9 of sets NNPDF30_nlo_nf_4_pdfas</weight>
    <weight id="889" MUR="1" MUF="1" PDF="292010"> Member 10 of sets NNPDF30_nlo_nf_4_pdfas</weight>
    <weight id="890" MUR="1" MUF="1" PDF="292011"> Member 11 of sets NNPDF30_nlo_nf_4_pdfas</weight>
    <weight id="891" MUR="1" MUF="1" PDF="292012"> Member 12 of sets NNPDF30_nlo_nf_4_pdfas</weight>
    <weight id="892" MUR="1" MUF="1" PDF="292013"> Member 13 of sets NNPDF30_nlo_nf_4_pdfas</weight>
    <weight id="893" MUR="1" MUF="1" PDF="292014"> Member 14 of sets NNPDF30_nlo_nf_4_pdfas</weight>
    <weight id="894" MUR="1" MUF="1" PDF="292015"> Member 15 of sets NNPDF30_nlo_nf_4_pdfas</weight>
    <weight id="895" MUR="1" MUF="1" PDF="292016"> Member 16 of sets NNPDF30_nlo_nf_4_pdfas</weight>
    <weight id="896" MUR="1" MUF="1" PDF="292017"> Member 17 of sets NNPDF30_nlo_nf_4_pdfas</weight>
    <weight id="897" MUR="1" MUF="1" PDF="292018"> Member 18 of sets NNPDF30_nlo_nf_4_pdfas</weight>
    <weight id="898" MUR="1" MUF="1" PDF="292019"> Member 19 of sets NNPDF30_nlo_nf_4_pdfas</weight>
    <weight id="899" MUR="1" MUF="1" PDF="292020"> Member 20 of sets NNPDF30_nlo_nf_4_pdfas</weight>
    <weight id="900" MUR="1" MUF="1" PDF="292021"> Member 21 of sets NNPDF30_nlo_nf_4_pdfas</weight>
    <weight id="901" MUR="1" MUF="1" PDF="292022"> Member 22 of sets NNPDF30_nlo_nf_4_pdfas</weight>
    <weight id="902" MUR="1" MUF="1" PDF="292023"> Member 23 of sets NNPDF30_nlo_nf_4_pdfas</weight>
    <weight id="903" MUR="1" MUF="1" PDF="292024"> Member 24 of sets NNPDF30_nlo_nf_4_pdfas</weight>
    <weight id="904" MUR="1" MUF="1" PDF="292025"> Member 25 of sets NNPDF30_nlo_nf_4_pdfas</weight>
    <weight id="905" MUR="1" MUF="1" PDF="292026"> Member 26 of sets NNPDF30_nlo_nf_4_pdfas</weight>
    <weight id="906" MUR="1" MUF="1" PDF="292027"> Member 27 of sets NNPDF30_nlo_nf_4_pdfas</weight>
    <weight id="907" MUR="1" MUF="1" PDF="292028"> Member 28 of sets NNPDF30_nlo_nf_4_pdfas</weight>
    <weight id="908" MUR="1" MUF="1" PDF="292029"> Member 29 of sets NNPDF30_nlo_nf_4_pdfas</weight>
    <weight id="909" MUR="1" MUF="1" PDF="292030"> Member 30 of sets NNPDF30_nlo_nf_4_pdfas</weight>
    <weight id="910" MUR="1" MUF="1" PDF="292031"> Member 31 of sets NNPDF30_nlo_nf_4_pdfas</weight>
    <weight id="911" MUR="1" MUF="1" PDF="292032"> Member 32 of sets NNPDF30_nlo_nf_4_pdfas</weight>
    <weight id="912" MUR="1" MUF="1" PDF="292033"> Member 33 of sets NNPDF30_nlo_nf_4_pdfas</weight>
    <weight id="913" MUR="1" MUF="1" PDF="292034"> Member 34 of sets NNPDF30_nlo_nf_4_pdfas</weight>
    <weight id="914" MUR="1" MUF="1" PDF="292035"> Member 35 of sets NNPDF30_nlo_nf_4_pdfas</weight>
    <weight id="915" MUR="1" MUF="1" PDF="292036"> Member 36 of sets NNPDF30_nlo_nf_4_pdfas</weight>
    <weight id="916" MUR="1" MUF="1" PDF="292037"> Member 37 of sets NNPDF30_nlo_nf_4_pdfas</weight>
    <weight id="917" MUR="1" MUF="1" PDF="292038"> Member 38 of sets NNPDF30_nlo_nf_4_pdfas</weight>
    <weight id="918" MUR="1" MUF="1" PDF="292039"> Member 39 of sets NNPDF30_nlo_nf_4_pdfas</weight>
    <weight id="919" MUR="1" MUF="1" PDF="292040"> Member 40 of sets NNPDF30_nlo_nf_4_pdfas</weight>
    <weight id="920" MUR="1" MUF="1" PDF="292041"> Member 41 of sets NNPDF30_nlo_nf_4_pdfas</weight>
    <weight id="921" MUR="1" MUF="1" PDF="292042"> Member 42 of sets NNPDF30_nlo_nf_4_pdfas</weight>
    <weight id="922" MUR="1" MUF="1" PDF="292043"> Member 43 of sets NNPDF30_nlo_nf_4_pdfas</weight>
    <weight id="923" MUR="1" MUF="1" PDF="292044"> Member 44 of sets NNPDF30_nlo_nf_4_pdfas</weight>
    <weight id="924" MUR="1" MUF="1" PDF="292045"> Member 45 of sets NNPDF30_nlo_nf_4_pdfas</weight>
    <weight id="925" MUR="1" MUF="1" PDF="292046"> Member 46 of sets NNPDF30_nlo_nf_4_pdfas</weight>
    <weight id="926" MUR="1" MUF="1" PDF="292047"> Member 47 of sets NNPDF30_nlo_nf_4_pdfas</weight>
    <weight id="927" MUR="1" MUF="1" PDF="292048"> Member 48 of sets NNPDF30_nlo_nf_4_pdfas</weight>
    <weight id="928" MUR="1" MUF="1" PDF="292049"> Member 49 of sets NNPDF30_nlo_nf_4_pdfas</weight>
    <weight id="929" MUR="1" MUF="1" PDF="292050"> Member 50 of sets NNPDF30_nlo_nf_4_pdfas</weight>
    <weight id="930" MUR="1" MUF="1" PDF="292051"> Member 51 of sets NNPDF30_nlo_nf_4_pdfas</weight>
    <weight id="931" MUR="1" MUF="1" PDF="292052"> Member 52 of sets NNPDF30_nlo_nf_4_pdfas</weight>
    <weight id="932" MUR="1" MUF="1" PDF="292053"> Member 53 of sets NNPDF30_nlo_nf_4_pdfas</weight>
    <weight id="933" MUR="1" MUF="1" PDF="292054"> Member 54 of sets NNPDF30_nlo_nf_4_pdfas</weight>
    <weight id="934" MUR="1" MUF="1" PDF="292055"> Member 55 of sets NNPDF30_nlo_nf_4_pdfas</weight>
    <weight id="935" MUR="1" MUF="1" PDF="292056"> Member 56 of sets NNPDF30_nlo_nf_4_pdfas</weight>
    <weight id="936" MUR="1" MUF="1" PDF="292057"> Member 57 of sets NNPDF30_nlo_nf_4_pdfas</weight>
    <weight id="937" MUR="1" MUF="1" PDF="292058"> Member 58 of sets NNPDF30_nlo_nf_4_pdfas</weight>
    <weight id="938" MUR="1" MUF="1" PDF="292059"> Member 59 of sets NNPDF30_nlo_nf_4_pdfas</weight>
    <weight id="939" MUR="1" MUF="1" PDF="292060"> Member 60 of sets NNPDF30_nlo_nf_4_pdfas</weight>
    <weight id="940" MUR="1" MUF="1" PDF="292061"> Member 61 of sets NNPDF30_nlo_nf_4_pdfas</weight>
    <weight id="941" MUR="1" MUF="1" PDF="292062"> Member 62 of sets NNPDF30_nlo_nf_4_pdfas</weight>
    <weight id="942" MUR="1" MUF="1" PDF="292063"> Member 63 of sets NNPDF30_nlo_nf_4_pdfas</weight>
    <weight id="943" MUR="1" MUF="1" PDF="292064"> Member 64 of sets NNPDF30_nlo_nf_4_pdfas</weight>
    <weight id="944" MUR="1" MUF="1" PDF="292065"> Member 65 of sets NNPDF30_nlo_nf_4_pdfas</weight>
    <weight id="945" MUR="1" MUF="1" PDF="292066"> Member 66 of sets NNPDF30_nlo_nf_4_pdfas</weight>
    <weight id="946" MUR="1" MUF="1" PDF="292067"> Member 67 of sets NNPDF30_nlo_nf_4_pdfas</weight>
    <weight id="947" MUR="1" MUF="1" PDF="292068"> Member 68 of sets NNPDF30_nlo_nf_4_pdfas</weight>
    <weight id="948" MUR="1" MUF="1" PDF="292069"> Member 69 of sets NNPDF30_nlo_nf_4_pdfas</weight>
    <weight id="949" MUR="1" MUF="1" PDF="292070"> Member 70 of sets NNPDF30_nlo_nf_4_pdfas</weight>
    <weight id="950" MUR="1" MUF="1" PDF="292071"> Member 71 of sets NNPDF30_nlo_nf_4_pdfas</weight>
    <weight id="951" MUR="1" MUF="1" PDF="292072"> Member 72 of sets NNPDF30_nlo_nf_4_pdfas</weight>
    <weight id="952" MUR="1" MUF="1" PDF="292073"> Member 73 of sets NNPDF30_nlo_nf_4_pdfas</weight>
    <weight id="953" MUR="1" MUF="1" PDF="292074"> Member 74 of sets NNPDF30_nlo_nf_4_pdfas</weight>
    <weight id="954" MUR="1" MUF="1" PDF="292075"> Member 75 of sets NNPDF30_nlo_nf_4_pdfas</weight>
    <weight id="955" MUR="1" MUF="1" PDF="292076"> Member 76 of sets NNPDF30_nlo_nf_4_pdfas</weight>
    <weight id="956" MUR="1" MUF="1" PDF="292077"> Member 77 of sets NNPDF30_nlo_nf_4_pdfas</weight>
    <weight id="957" MUR="1" MUF="1" PDF="292078"> Member 78 of sets NNPDF30_nlo_nf_4_pdfas</weight>
    <weight id="958" MUR="1" MUF="1" PDF="292079"> Member 79 of sets NNPDF30_nlo_nf_4_pdfas</weight>
    <weight id="959" MUR="1" MUF="1" PDF="292080"> Member 80 of sets NNPDF30_nlo_nf_4_pdfas</weight>
    <weight id="960" MUR="1" MUF="1" PDF="292081"> Member 81 of sets NNPDF30_nlo_nf_4_pdfas</weight>
    <weight id="961" MUR="1" MUF="1" PDF="292082"> Member 82 of sets NNPDF30_nlo_nf_4_pdfas</weight>
    <weight id="962" MUR="1" MUF="1" PDF="292083"> Member 83 of sets NNPDF30_nlo_nf_4_pdfas</weight>
    <weight id="963" MUR="1" MUF="1" PDF="292084"> Member 84 of sets NNPDF30_nlo_nf_4_pdfas</weight>
    <weight id="964" MUR="1" MUF="1" PDF="292085"> Member 85 of sets NNPDF30_nlo_nf_4_pdfas</weight>
    <weight id="965" MUR="1" MUF="1" PDF="292086"> Member 86 of sets NNPDF30_nlo_nf_4_pdfas</weight>
    <weight id="966" MUR="1" MUF="1" PDF="292087"> Member 87 of sets NNPDF30_nlo_nf_4_pdfas</weight>
    <weight id="967" MUR="1" MUF="1" PDF="292088"> Member 88 of sets NNPDF30_nlo_nf_4_pdfas</weight>
    <weight id="968" MUR="1" MUF="1" PDF="292089"> Member 89 of sets NNPDF30_nlo_nf_4_pdfas</weight>
    <weight id="969" MUR="1" MUF="1" PDF="292090"> Member 90 of sets NNPDF30_nlo_nf_4_pdfas</weight>
    <weight id="970" MUR="1" MUF="1" PDF="292091"> Member 91 of sets NNPDF30_nlo_nf_4_pdfas</weight>
    <weight id="971" MUR="1" MUF="1" PDF="292092"> Member 92 of sets NNPDF30_nlo_nf_4_pdfas</weight>
    <weight id="972" MUR="1" MUF="1" PDF="292093"> Member 93 of sets NNPDF30_nlo_nf_4_pdfas</weight>
    <weight id="973" MUR="1" MUF="1" PDF="292094"> Member 94 of sets NNPDF30_nlo_nf_4_pdfas</weight>
    <weight id="974" MUR="1" MUF="1" PDF="292095"> Member 95 of sets NNPDF30_nlo_nf_4_pdfas</weight>
    <weight id="975" MUR="1" MUF="1" PDF="292096"> Member 96 of sets NNPDF30_nlo_nf_4_pdfas</weight>
    <weight id="976" MUR="1" MUF="1" PDF="292097"> Member 97 of sets NNPDF30_nlo_nf_4_pdfas</weight>
    <weight id="977" MUR="1" MUF="1" PDF="292098"> Member 98 of sets NNPDF30_nlo_nf_4_pdfas</weight>
    <weight id="978" MUR="1" MUF="1" PDF="292099"> Member 99 of sets NNPDF30_nlo_nf_4_pdfas</weight>
    <weight id="979" MUR="1" MUF="1" PDF="292100"> Member 100 of sets NNPDF30_nlo_nf_4_pdfas</weight>
    <weight id="980" MUR="1" MUF="1" PDF="292101"> Member 101 of sets NNPDF30_nlo_nf_4_pdfas</weight>
    <weight id="981" MUR="1" MUF="1" PDF="292102"> Member 102 of sets NNPDF30_nlo_nf_4_pdfas</weight>
  </weightgroup>
  <weightgroup name="NNPDF30_nnlo_nf_4_pdfas" combine="hessian">
    <weight id="982" MUR="1" MUF="1" PDF="292400"> Member 0 of sets NNPDF30_nnlo_nf_4_pdfas</weight>
  </weightgroup>
</initrwgt>
</header>
<init>
     2212     2212  0.65000000000E+04  0.65000000000E+04 0 0  320900  320900 -3   1
  0.15128071464E-07  0.15566189376E-10  0.30248000000E-11   1
<generator name='MadGraph5_aMC@NLO' version='#5.2.4.2'>please cite 1405.0301 </generator>
</init>
<event>
 5   1  0.3028200E-11  0.2479746E+04  0.7818608E-02  0.7651006E-01
       21   -1    0    0  502  501  0.00000000000E+00  0.00000000000E+00  0.89706709096E+03  0.89706709096E+03  0.00000000000E+00 0. -1.
       21   -1    0    0  501  502 -0.00000000000E+00 -0.00000000000E+00 -0.17136796596E+04  0.17136796596E+04  0.00000000000E+00 0.  1.
       39    2    1    2    0    0  0.00000000000E+00  0.00000000000E+00 -0.81661256867E+03  0.26107467506E+04  0.24797464605E+04 0.  0.
       25    1    3    3    0    0 -0.10084961633E+04 -0.70212855913E+03 -0.29485653490E+03  0.12698875545E+04  0.12500000000E+03 0.  0.
       25    1    3    3    0    0  0.10084961633E+04  0.70212855913E+03 -0.52175603377E+03  0.13408591961E+04  0.12500000000E+03 0.  0.
<mgrwt>
<rscale>  0 0.24797465E+04</rscale>
<asrwt>0</asrwt>
<pdfrwt beam="1">  1       21 0.13801032E+00 0.24797465E+04</pdfrwt>
<pdfrwt beam="2">  1       21 0.26364302E+00 0.24797465E+04</pdfrwt>
<totfact> 0.68824246E+00</totfact>
</mgrwt>
<rwgt>
  <wgt id="1">3.0282e-12</wgt>
  <wgt id="2">2.62205e-12</wgt>
  <wgt id="3">3.53507e-12</wgt>
  <wgt id="4">3.0282e-12</wgt>
  <wgt id="5">2.62205e-12</wgt>
  <wgt id="6">3.53507e-12</wgt>
  <wgt id="7">3.0282e-12</wgt>
  <wgt id="8">2.62205e-12</wgt>
  <wgt id="9">3.53507e-12</wgt>
  <wgt id="10">3.16876e-12</wgt>
  <wgt id="11">3.16643e-12</wgt>
  <wgt id="12">3.16266e-12</wgt>
  <wgt id="13">3.15909e-12</wgt>
  <wgt id="14">3.18036e-12</wgt>
  <wgt id="15">3.17406e-12</wgt>
  <wgt id="16">3.16324e-12</wgt>
  <wgt id="17">3.17844e-12</wgt>
  <wgt id="18">3.16256e-12</wgt>
  <wgt id="19">3.1777e-12</wgt>
  <wgt id="20">3.16199e-12</wgt>
  <wgt id="21">3.14596e-12</wgt>
  <wgt id="22">3.15167e-12</wgt>
  <wgt id="23">3.13187e-12</wgt>
  <wgt id="24">3.15057e-12</wgt>
  <wgt id="25">3.15905e-12</wgt>
  <wgt id="26">3.1802e-12</wgt>
  <wgt id="27">3.16649e-12</wgt>
  <wgt id="28">3.15221e-12</wgt>
  <wgt id="29">3.17093e-12</wgt>
  <wgt id="30">3.1539e-12</wgt>
  <wgt id="31">3.18087e-12</wgt>
  <wgt id="32">3.15848e-12</wgt>
  <wgt id="33">3.17594e-12</wgt>
  <wgt id="34">3.15391e-12</wgt>
  <wgt id="35">3.16141e-12</wgt>
  <wgt id="36">3.1821e-12</wgt>
  <wgt id="37">3.15978e-12</wgt>
  <wgt id="38">3.15764e-12</wgt>
  <wgt id="39">3.2106e-12</wgt>
  <wgt id="40">3.17265e-12</wgt>
  <wgt id="41">3.16701e-12</wgt>
  <wgt id="42">3.17392e-12</wgt>
  <wgt id="43">3.16827e-12</wgt>
  <wgt id="44">3.16817e-12</wgt>
  <wgt id="45">3.17607e-12</wgt>
  <wgt id="46">3.16776e-12</wgt>
  <wgt id="47">3.1715e-12</wgt>
  <wgt id="48">3.17327e-12</wgt>
  <wgt id="49">3.16181e-12</wgt>
  <wgt id="50">3.16855e-12</wgt>
  <wgt id="51">3.16967e-12</wgt>
  <wgt id="52">3.17417e-12</wgt>
  <wgt id="53">3.16029e-12</wgt>
  <wgt id="54">3.16915e-12</wgt>
  <wgt id="55">3.16894e-12</wgt>
  <wgt id="56">3.17586e-12</wgt>
  <wgt id="57">3.17047e-12</wgt>
  <wgt id="58">3.15531e-12</wgt>
  <wgt id="59">3.16238e-12</wgt>
  <wgt id="60">3.16429e-12</wgt>
  <wgt id="61">3.15045e-12</wgt>
  <wgt id="62">3.16011e-12</wgt>
  <wgt id="63">3.16607e-12</wgt>
  <wgt id="64">3.1691e-12</wgt>
  <wgt id="65">3.1698e-12</wgt>
  <wgt id="66">3.16548e-12</wgt>
  <wgt id="67">3.15547e-12</wgt>
  <wgt id="68">3.16724e-12</wgt>
  <wgt id="69">3.16775e-12</wgt>
  <wgt id="70">3.16746e-12</wgt>
  <wgt id="71">3.16572e-12</wgt>
  <wgt id="72">3.15715e-12</wgt>
  <wgt id="73">3.17639e-12</wgt>
  <wgt id="74">3.17229e-12</wgt>
  <wgt id="75">3.16753e-12</wgt>
  <wgt id="76">3.18098e-12</wgt>
  <wgt id="77">3.16614e-12</wgt>
  <wgt id="78">3.16661e-12</wgt>
  <wgt id="79">3.17772e-12</wgt>
  <wgt id="80">3.15141e-12</wgt>
  <wgt id="81">3.16813e-12</wgt>
  <wgt id="82">3.16954e-12</wgt>
  <wgt id="83">3.15436e-12</wgt>
  <wgt id="84">3.16365e-12</wgt>
  <wgt id="85">3.16016e-12</wgt>
  <wgt id="86">3.17904e-12</wgt>
  <wgt id="87">3.14815e-12</wgt>
  <wgt id="88">3.17303e-12</wgt>
  <wgt id="89">3.17139e-12</wgt>
  <wgt id="90">3.17805e-12</wgt>
  <wgt id="91">3.17227e-12</wgt>
  <wgt id="92">3.17577e-12</wgt>
  <wgt id="93">3.1724e-12</wgt>
  <wgt id="94">3.16481e-12</wgt>
  <wgt id="95">3.17745e-12</wgt>
  <wgt id="96">3.1728e-12</wgt>
  <wgt id="97">3.1603e-12</wgt>
  <wgt id="98">3.17003e-12</wgt>
  <wgt id="99">3.16119e-12</wgt>
  <wgt id="100">3.17539e-12</wgt>
  <wgt id="101">3.16983e-12</wgt>
  <wgt id="102">3.1667e-12</wgt>
  <wgt id="103">3.17537e-12</wgt>
  <wgt id="104">3.16587e-12</wgt>
  <wgt id="105">3.17415e-12</wgt>
  <wgt id="106">3.16265e-12</wgt>
  <wgt id="107">3.18166e-12</wgt>
  <wgt id="108">3.16371e-12</wgt>
  <wgt id="109">3.17145e-12</wgt>
  <wgt id="110">3.16805e-12</wgt>
  <wgt id="111">3.1909e-12</wgt>
  <wgt id="112">3.18492e-12</wgt>
  <wgt id="113">4.43075e-12</wgt>
  <wgt id="114">4.40739e-12</wgt>
  <wgt id="115">4.33848e-12</wgt>
  <wgt id="116">6.18588e-12</wgt>
  <wgt id="117">3.55641e-12</wgt>
  <wgt id="118">3.57001e-12</wgt>
  <wgt id="119">3.54867e-12</wgt>
  <wgt id="120">3.55662e-12</wgt>
  <wgt id="121">3.55626e-12</wgt>
  <wgt id="122">3.55046e-12</wgt>
  <wgt id="123">3.56458e-12</wgt>
  <wgt id="124">3.55155e-12</wgt>
  <wgt id="125">3.5595e-12</wgt>
  <wgt id="126">3.56297e-12</wgt>
  <wgt id="127">3.55207e-12</wgt>
  <wgt id="128">3.56741e-12</wgt>
  <wgt id="129">3.54545e-12</wgt>
  <wgt id="130">3.57648e-12</wgt>
  <wgt id="131">3.53581e-12</wgt>
  <wgt id="132">3.45954e-12</wgt>
  <wgt id="133">3.67173e-12</wgt>
  <wgt id="134">3.51666e-12</wgt>
  <wgt id="135">3.58756e-12</wgt>
  <wgt id="136">3.60701e-12</wgt>
  <wgt id="137">3.49542e-12</wgt>
  <wgt id="138">3.70804e-12</wgt>
  <wgt id="139">3.41129e-12</wgt>
  <wgt id="140">3.53543e-12</wgt>
  <wgt id="141">3.57271e-12</wgt>
  <wgt id="142">3.55641e-12</wgt>
  <wgt id="143">3.56404e-12</wgt>
  <wgt id="144">3.43125e-12</wgt>
  <wgt id="145">3.67542e-12</wgt>
  <wgt id="146">3.59653e-12</wgt>
  <wgt id="147">3.52422e-12</wgt>
  <wgt id="148">3.56874e-12</wgt>
  <wgt id="149">3.55554e-12</wgt>
  <wgt id="150">3.58771e-12</wgt>
  <wgt id="151">3.54175e-12</wgt>
  <wgt id="152">3.55803e-12</wgt>
  <wgt id="153">3.55583e-12</wgt>
  <wgt id="154">3.57666e-12</wgt>
  <wgt id="155">3.52961e-12</wgt>
  <wgt id="156">3.65177e-12</wgt>
  <wgt id="157">3.4641e-12</wgt>
  <wgt id="158">4.27233e-12</wgt>
  <wgt id="159">4.29019e-12</wgt>
  <wgt id="160">4.25771e-12</wgt>
  <wgt id="161">4.26072e-12</wgt>
  <wgt id="162">4.28492e-12</wgt>
  <wgt id="163">4.26711e-12</wgt>
  <wgt id="164">4.27958e-12</wgt>
  <wgt id="165">4.2737e-12</wgt>
  <wgt id="166">4.27093e-12</wgt>
  <wgt id="167">4.26924e-12</wgt>
  <wgt id="168">4.27647e-12</wgt>
  <wgt id="169">4.25436e-12</wgt>
  <wgt id="170">4.28336e-12</wgt>
  <wgt id="171">4.2675e-12</wgt>
  <wgt id="172">4.27861e-12</wgt>
  <wgt id="173">4.26879e-12</wgt>
  <wgt id="174">4.2733e-12</wgt>
  <wgt id="175">4.14627e-12</wgt>
  <wgt id="176">4.43687e-12</wgt>
  <wgt id="177">4.29554e-12</wgt>
  <wgt id="178">4.25093e-12</wgt>
  <wgt id="179">4.47249e-12</wgt>
  <wgt id="180">3.95965e-12</wgt>
  <wgt id="181">4.13639e-12</wgt>
  <wgt id="182">4.36245e-12</wgt>
  <wgt id="183">4.18957e-12</wgt>
  <wgt id="184">4.31321e-12</wgt>
  <wgt id="185">4.23192e-12</wgt>
  <wgt id="186">4.32174e-12</wgt>
  <wgt id="187">4.2296e-12</wgt>
  <wgt id="188">4.34857e-12</wgt>
  <wgt id="189">4.24115e-12</wgt>
  <wgt id="190">4.28486e-12</wgt>
  <wgt id="191">4.28557e-12</wgt>
  <wgt id="192">4.2642e-12</wgt>
  <wgt id="193">4.33988e-12</wgt>
  <wgt id="194">4.23858e-12</wgt>
  <wgt id="195">4.13746e-12</wgt>
  <wgt id="196">4.49863e-12</wgt>
  <wgt id="197">4.29516e-12</wgt>
  <wgt id="198">4.26671e-12</wgt>
  <wgt id="199">4.27233e-12</wgt>
  <wgt id="200">4.31174e-12</wgt>
  <wgt id="201">4.29762e-12</wgt>
  <wgt id="202">4.28427e-12</wgt>
  <wgt id="203">4.26402e-12</wgt>
  <wgt id="204">4.25435e-12</wgt>
  <wgt id="205">4.24624e-12</wgt>
  <wgt id="206">4.14189e-12</wgt>
  <wgt id="207">4.1666e-12</wgt>
  <wgt id="208">4.11753e-12</wgt>
  <wgt id="209">4.15589e-12</wgt>
  <wgt id="210">4.13175e-12</wgt>
  <wgt id="211">4.14025e-12</wgt>
  <wgt id="212">4.14323e-12</wgt>
  <wgt id="213">4.14156e-12</wgt>
  <wgt id="214">4.1425e-12</wgt>
  <wgt id="215">4.14532e-12</wgt>
  <wgt id="216">4.13949e-12</wgt>
  <wgt id="217">4.15356e-12</wgt>
  <wgt id="218">4.13296e-12</wgt>
  <wgt id="219">4.13827e-12</wgt>
  <wgt id="220">4.14416e-12</wgt>
  <wgt id="221">4.14124e-12</wgt>
  <wgt id="222">4.14302e-12</wgt>
  <wgt id="223">3.91045e-12</wgt>
  <wgt id="224">4.35372e-12</wgt>
  <wgt id="225">4.08936e-12</wgt>
  <wgt id="226">4.20841e-12</wgt>
  <wgt id="227">4.1012e-12</wgt>
  <wgt id="228">4.15983e-12</wgt>
  <wgt id="229">4.08212e-12</wgt>
  <wgt id="230">4.17166e-12</wgt>
  <wgt id="231">4.27155e-12</wgt>
  <wgt id="232">4.03573e-12</wgt>
  <wgt id="233">4.11814e-12</wgt>
  <wgt id="234">4.18096e-12</wgt>
  <wgt id="235">4.0191e-12</wgt>
  <wgt id="236">4.24709e-12</wgt>
  <wgt id="237">4.06555e-12</wgt>
  <wgt id="238">4.16751e-12</wgt>
  <wgt id="239">4.11013e-12</wgt>
  <wgt id="240">4.19908e-12</wgt>
  <wgt id="241">4.09522e-12</wgt>
  <wgt id="242">4.19806e-12</wgt>
  <wgt id="243">4.20765e-12</wgt>
  <wgt id="244">4.15345e-12</wgt>
  <wgt id="245">4.13971e-12</wgt>
  <wgt id="246">4.16929e-12</wgt>
  <wgt id="247">4.14189e-12</wgt>
  <wgt id="248">4.18166e-12</wgt>
  <wgt id="249">4.16724e-12</wgt>
  <wgt id="250">4.15303e-12</wgt>
  <wgt id="251">4.13256e-12</wgt>
  <wgt id="252">4.1227e-12</wgt>
  <wgt id="253">4.11571e-12</wgt>
  <wgt id="254">4.03706e-12</wgt>
  <wgt id="255">4.04099e-12</wgt>
  <wgt id="256">4.03291e-12</wgt>
  <wgt id="257">4.04011e-12</wgt>
  <wgt id="258">4.0349e-12</wgt>
  <wgt id="259">4.06424e-12</wgt>
  <wgt id="260">4.01088e-12</wgt>
  <wgt id="261">4.04423e-12</wgt>
  <wgt id="262">4.02862e-12</wgt>
  <wgt id="263">4.03466e-12</wgt>
  <wgt id="264">4.03995e-12</wgt>
  <wgt id="265">4.0319e-12</wgt>
  <wgt id="266">4.04746e-12</wgt>
  <wgt id="267">4.03855e-12</wgt>
  <wgt id="268">4.03512e-12</wgt>
  <wgt id="269">4.05086e-12</wgt>
  <wgt id="270">4.02773e-12</wgt>
  <wgt id="271">4.02882e-12</wgt>
  <wgt id="272">4.04625e-12</wgt>
  <wgt id="273">4.02476e-12</wgt>
  <wgt id="274">4.04655e-12</wgt>
  <wgt id="275">4.01688e-12</wgt>
  <wgt id="276">4.05799e-12</wgt>
  <wgt id="277">4.01311e-12</wgt>
  <wgt id="278">4.05902e-12</wgt>
  <wgt id="279">3.95713e-12</wgt>
  <wgt id="280">4.13765e-12</wgt>
  <wgt id="281">4.01802e-12</wgt>
  <wgt id="282">4.03963e-12</wgt>
  <wgt id="283">3.9119e-12</wgt>
  <wgt id="284">4.19213e-12</wgt>
  <wgt id="285">3.83063e-12</wgt>
  <wgt id="286">4.20959e-12</wgt>
  <wgt id="287">4.05069e-12</wgt>
  <wgt id="288">4.01973e-12</wgt>
  <wgt id="289">4.06783e-12</wgt>
  <wgt id="290">3.96713e-12</wgt>
  <wgt id="291">4.02365e-12</wgt>
  <wgt id="292">4.03922e-12</wgt>
  <wgt id="293">4.00356e-12</wgt>
  <wgt id="294">4.07051e-12</wgt>
  <wgt id="295">3.95553e-12</wgt>
  <wgt id="296">4.13689e-12</wgt>
  <wgt id="297">4.03251e-12</wgt>
  <wgt id="298">4.05561e-12</wgt>
  <wgt id="299">4.02336e-12</wgt>
  <wgt id="300">4.07372e-12</wgt>
  <wgt id="301">3.96568e-12</wgt>
  <wgt id="302">4.20676e-12</wgt>
  <wgt id="303">3.99898e-12</wgt>
  <wgt id="304">4.05874e-12</wgt>
  <wgt id="305">4.0304e-12</wgt>
  <wgt id="306">4.03441e-12</wgt>
  <wgt id="307">4.02609e-12</wgt>
  <wgt id="308">4.03371e-12</wgt>
  <wgt id="309">4.02819e-12</wgt>
  <wgt id="310">4.05839e-12</wgt>
  <wgt id="311">4.00448e-12</wgt>
  <wgt id="312">4.03651e-12</wgt>
  <wgt id="313">4.02389e-12</wgt>
  <wgt id="314">4.02795e-12</wgt>
  <wgt id="315">4.03274e-12</wgt>
  <wgt id="316">4.02536e-12</wgt>
  <wgt id="317">4.04138e-12</wgt>
  <wgt id="318">4.03356e-12</wgt>
  <wgt id="319">4.02489e-12</wgt>
  <wgt id="320">4.045e-12</wgt>
  <wgt id="321">4.02229e-12</wgt>
  <wgt id="322">4.02047e-12</wgt>
  <wgt id="323">4.04194e-12</wgt>
  <wgt id="324">4.02029e-12</wgt>
  <wgt id="325">4.0392e-12</wgt>
  <wgt id="326">4.01413e-12</wgt>
  <wgt id="327">4.05128e-12</wgt>
  <wgt id="328">4.00918e-12</wgt>
  <wgt id="329">4.04221e-12</wgt>
  <wgt id="330">4.15205e-12</wgt>
  <wgt id="331">3.91458e-12</wgt>
  <wgt id="332">4.01449e-12</wgt>
  <wgt id="333">4.0317e-12</wgt>
  <wgt id="334">3.93317e-12</wgt>
  <wgt id="335">4.15164e-12</wgt>
  <wgt id="336">3.8817e-12</wgt>
  <wgt id="337">4.2129e-12</wgt>
  <wgt id="338">4.07811e-12</wgt>
  <wgt id="339">3.98627e-12</wgt>
  <wgt id="340">4.05896e-12</wgt>
  <wgt id="341">3.95829e-12</wgt>
  <wgt id="342">4.02061e-12</wgt>
  <wgt id="343">4.02527e-12</wgt>
  <wgt id="344">4.00029e-12</wgt>
  <wgt id="345">4.06536e-12</wgt>
  <wgt id="346">3.94601e-12</wgt>
  <wgt id="347">4.12751e-12</wgt>
  <wgt id="348">4.02693e-12</wgt>
  <wgt id="349">4.04652e-12</wgt>
  <wgt id="350">4.01322e-12</wgt>
  <wgt id="351">4.07402e-12</wgt>
  <wgt id="352">3.95382e-12</wgt>
  <wgt id="353">4.20306e-12</wgt>
  <wgt id="354">3.97349e-12</wgt>
  <wgt id="355">4.06455e-12</wgt>
  <wgt id="356">4.03706e-12</wgt>
  <wgt id="357">4.04166e-12</wgt>
  <wgt id="358">4.0304e-12</wgt>
  <wgt id="359">4.0456e-12</wgt>
  <wgt id="360">4.08198e-12</wgt>
  <wgt id="361">4.05361e-12</wgt>
  <wgt id="362">4.13026e-12</wgt>
  <wgt id="363">4.11975e-12</wgt>
  <wgt id="364">4.10272e-12</wgt>
  <wgt id="365">4.08781e-12</wgt>
  <wgt id="366">4.07171e-12</wgt>
  <wgt id="367">4.03955e-12</wgt>
  <wgt id="368">4.02091e-12</wgt>
  <wgt id="369">4.00086e-12</wgt>
  <wgt id="370">4.05361e-12</wgt>
  <wgt id="371">4.07147e-12</wgt>
  <wgt id="372">4.06162e-12</wgt>
  <wgt id="373">4.04705e-12</wgt>
  <wgt id="374">4.04821e-12</wgt>
  <wgt id="375">4.44103e-12</wgt>
  <wgt id="376">4.44163e-12</wgt>
  <wgt id="377">4.44036e-12</wgt>
  <wgt id="378">4.45755e-12</wgt>
  <wgt id="379">4.4248e-12</wgt>
  <wgt id="380">4.45308e-12</wgt>
  <wgt id="381">4.43633e-12</wgt>
  <wgt id="382">4.46476e-12</wgt>
  <wgt id="383">4.41768e-12</wgt>
  <wgt id="384">4.44403e-12</wgt>
  <wgt id="385">4.43814e-12</wgt>
  <wgt id="386">4.459e-12</wgt>
  <wgt id="387">4.43345e-12</wgt>
  <wgt id="388">4.43676e-12</wgt>
  <wgt id="389">4.44642e-12</wgt>
  <wgt id="390">4.45313e-12</wgt>
  <wgt id="391">4.42838e-12</wgt>
  <wgt id="392">4.4026e-12</wgt>
  <wgt id="393">4.46307e-12</wgt>
  <wgt id="394">4.44643e-12</wgt>
  <wgt id="395">4.43382e-12</wgt>
  <wgt id="396">4.44664e-12</wgt>
  <wgt id="397">4.43721e-12</wgt>
  <wgt id="398">4.42402e-12</wgt>
  <wgt id="399">4.45758e-12</wgt>
  <wgt id="400">4.4333e-12</wgt>
  <wgt id="401">4.45881e-12</wgt>
  <wgt id="402">4.40159e-12</wgt>
  <wgt id="403">4.46142e-12</wgt>
  <wgt id="404">4.55658e-12</wgt>
  <wgt id="405">4.16446e-12</wgt>
  <wgt id="406">4.35851e-12</wgt>
  <wgt id="407">4.62253e-12</wgt>
  <wgt id="408">4.48396e-12</wgt>
  <wgt id="409">4.36038e-12</wgt>
  <wgt id="410">4.30627e-12</wgt>
  <wgt id="411">4.5047e-12</wgt>
  <wgt id="412">4.43207e-12</wgt>
  <wgt id="413">4.45504e-12</wgt>
  <wgt id="414">4.38716e-12</wgt>
  <wgt id="415">4.48296e-12</wgt>
  <wgt id="416">4.57638e-12</wgt>
  <wgt id="417">4.25466e-12</wgt>
  <wgt id="418">4.44822e-12</wgt>
  <wgt id="419">4.40259e-12</wgt>
  <wgt id="420">4.5296e-12</wgt>
  <wgt id="421">4.38584e-12</wgt>
  <wgt id="422">4.42492e-12</wgt>
  <wgt id="423">4.44933e-12</wgt>
  <wgt id="424">4.55283e-12</wgt>
  <wgt id="425">4.36805e-12</wgt>
  <wgt id="426">4.44103e-12</wgt>
  <wgt id="427">4.3819e-12</wgt>
  <wgt id="428">4.5949e-12</wgt>
  <wgt id="429">4.49104e-12</wgt>
  <wgt id="430">4.62817e-12</wgt>
  <wgt id="431">4.60069e-12</wgt>
  <wgt id="432">4.57501e-12</wgt>
  <wgt id="433">4.55e-12</wgt>
  <wgt id="434">4.51903e-12</wgt>
  <wgt id="435">4.45614e-12</wgt>
  <wgt id="436">4.42425e-12</wgt>
  <wgt id="437">4.39339e-12</wgt>
  <wgt id="438">4.49104e-12</wgt>
  <wgt id="439">4.50556e-12</wgt>
  <wgt id="440">4.49673e-12</wgt>
  <wgt id="441">4.48676e-12</wgt>
  <wgt id="442">4.48341e-12</wgt>
  <wgt id="443">4.23723e-12</wgt>
  <wgt id="444">4.26978e-12</wgt>
  <wgt id="445">4.23838e-12</wgt>
  <wgt id="446">4.20758e-12</wgt>
  <wgt id="447">4.22791e-12</wgt>
  <wgt id="448">4.12277e-12</wgt>
  <wgt id="449">4.31241e-12</wgt>
  <wgt id="450">4.24626e-12</wgt>
  <wgt id="451">4.22776e-12</wgt>
  <wgt id="452">4.33802e-12</wgt>
  <wgt id="453">4.2835e-12</wgt>
  <wgt id="454">4.04568e-12</wgt>
  <wgt id="455">4.25247e-12</wgt>
  <wgt id="456">4.24745e-12</wgt>
  <wgt id="457">4.2551e-12</wgt>
  <wgt id="458">4.29684e-12</wgt>
  <wgt id="459">4.27113e-12</wgt>
  <wgt id="460">4.28152e-12</wgt>
  <wgt id="461">4.14468e-12</wgt>
  <wgt id="462">4.20088e-12</wgt>
  <wgt id="463">4.18025e-12</wgt>
  <wgt id="464">4.21247e-12</wgt>
  <wgt id="465">4.28644e-12</wgt>
  <wgt id="466">4.1687e-12</wgt>
  <wgt id="467">4.19501e-12</wgt>
  <wgt id="468">4.22684e-12</wgt>
  <wgt id="469">4.22471e-12</wgt>
  <wgt id="470">4.18784e-12</wgt>
  <wgt id="471">4.19186e-12</wgt>
  <wgt id="472">4.26116e-12</wgt>
  <wgt id="473">4.08825e-12</wgt>
  <wgt id="474">3.0282e-12</wgt>
  <wgt id="475">3.12646e-12</wgt>
  <wgt id="476">2.97992e-12</wgt>
  <wgt id="477">2.97878e-12</wgt>
  <wgt id="478">3.04956e-12</wgt>
  <wgt id="479">2.93766e-12</wgt>
  <wgt id="480">3.16097e-12</wgt>
  <wgt id="481">3.01196e-12</wgt>
  <wgt id="482">2.96805e-12</wgt>
  <wgt id="483">2.964e-12</wgt>
  <wgt id="484">3.1627e-12</wgt>
  <wgt id="485">2.93419e-12</wgt>
  <wgt id="486">3.15658e-12</wgt>
  <wgt id="487">3.04454e-12</wgt>
  <wgt id="488">3.07946e-12</wgt>
  <wgt id="489">2.85581e-12</wgt>
  <wgt id="490">2.90738e-12</wgt>
  <wgt id="491">2.99868e-12</wgt>
  <wgt id="492">2.95851e-12</wgt>
  <wgt id="493">2.87913e-12</wgt>
  <wgt id="494">2.90528e-12</wgt>
  <wgt id="495">3.06681e-12</wgt>
  <wgt id="496">2.92042e-12</wgt>
  <wgt id="497">2.88e-12</wgt>
  <wgt id="498">3.1035e-12</wgt>
  <wgt id="499">2.99191e-12</wgt>
  <wgt id="500">2.96755e-12</wgt>
  <wgt id="501">3.16724e-12</wgt>
  <wgt id="502">3.0196e-12</wgt>
  <wgt id="503">3.01639e-12</wgt>
  <wgt id="504">3.09665e-12</wgt>
  <wgt id="505">3.06055e-12</wgt>
  <wgt id="506">2.98755e-12</wgt>
  <wgt id="507">3.01988e-12</wgt>
  <wgt id="508">3.12343e-12</wgt>
  <wgt id="509">2.87594e-12</wgt>
  <wgt id="510">3.10949e-12</wgt>
  <wgt id="511">2.93497e-12</wgt>
  <wgt id="512">3.13728e-12</wgt>
  <wgt id="513">3.17023e-12</wgt>
  <wgt id="514">3.07388e-12</wgt>
  <wgt id="515">3.02314e-12</wgt>
  <wgt id="516">3.20443e-12</wgt>
  <wgt id="517">3.0966e-12</wgt>
  <wgt id="518">3.10852e-12</wgt>
  <wgt id="519">2.92183e-12</wgt>
  <wgt id="520">3.08653e-12</wgt>
  <wgt id="521">3.07862e-12</wgt>
  <wgt id="522">3.15921e-12</wgt>
  <wgt id="523">3.0082e-12</wgt>
  <wgt id="524">3.04163e-12</wgt>
  <wgt id="525">3.09763e-12</wgt>
  <wgt id="526">3.09483e-12</wgt>
  <wgt id="527">3.041e-12</wgt>
  <wgt id="528">3.05118e-12</wgt>
  <wgt id="529">2.95781e-12</wgt>
  <wgt id="530">3.11409e-12</wgt>
  <wgt id="531">2.96606e-12</wgt>
  <wgt id="532">3.24062e-12</wgt>
  <wgt id="533">2.90441e-12</wgt>
  <wgt id="534">3.00502e-12</wgt>
  <wgt id="535">3.04469e-12</wgt>
  <wgt id="536">3.0403e-12</wgt>
  <wgt id="537">2.98957e-12</wgt>
  <wgt id="538">3.04015e-12</wgt>
  <wgt id="539">2.96959e-12</wgt>
  <wgt id="540">3.04748e-12</wgt>
  <wgt id="541">2.95349e-12</wgt>
  <wgt id="542">2.99122e-12</wgt>
  <wgt id="543">2.99324e-12</wgt>
  <wgt id="544">3.1397e-12</wgt>
  <wgt id="545">2.95038e-12</wgt>
  <wgt id="546">2.91809e-12</wgt>
  <wgt id="547">2.94071e-12</wgt>
  <wgt id="548">2.90593e-12</wgt>
  <wgt id="549">2.97057e-12</wgt>
  <wgt id="550">2.97e-12</wgt>
  <wgt id="551">3.06077e-12</wgt>
  <wgt id="552">2.90991e-12</wgt>
  <wgt id="553">2.96682e-12</wgt>
  <wgt id="554">3.23374e-12</wgt>
  <wgt id="555">3.10611e-12</wgt>
  <wgt id="556">2.90738e-12</wgt>
  <wgt id="557">3.10213e-12</wgt>
  <wgt id="558">2.9569e-12</wgt>
  <wgt id="559">2.9786e-12</wgt>
  <wgt id="560">3.33193e-12</wgt>
  <wgt id="561">3.01404e-12</wgt>
  <wgt id="562">3.11243e-12</wgt>
  <wgt id="563">3.08913e-12</wgt>
  <wgt id="564">3.10481e-12</wgt>
  <wgt id="565">2.97029e-12</wgt>
  <wgt id="566">3.04829e-12</wgt>
  <wgt id="567">3.00295e-12</wgt>
  <wgt id="568">2.98724e-12</wgt>
  <wgt id="569">3.07016e-12</wgt>
  <wgt id="570">2.90063e-12</wgt>
  <wgt id="571">3.36225e-12</wgt>
  <wgt id="572">2.95521e-12</wgt>
  <wgt id="573">2.91748e-12</wgt>
  <wgt id="574">2.93225e-12</wgt>
  <wgt id="575">3.35539e-12</wgt>
  <wgt id="576">3.44988e-12</wgt>
  <wgt id="577">3.45223e-12</wgt>
  <wgt id="578">3.45263e-12</wgt>
  <wgt id="579">3.45591e-12</wgt>
  <wgt id="580">3.49033e-12</wgt>
  <wgt id="581">3.63397e-12</wgt>
  <wgt id="582">3.42785e-12</wgt>
  <wgt id="583">3.39609e-12</wgt>
  <wgt id="584">3.34322e-12</wgt>
  <wgt id="585">3.26809e-12</wgt>
  <wgt id="586">3.23218e-12</wgt>
  <wgt id="587">3.41108e-12</wgt>
  <wgt id="588">3.4296e-12</wgt>
  <wgt id="589">3.51268e-12</wgt>
  <wgt id="590">3.37195e-12</wgt>
  <wgt id="591">3.46738e-12</wgt>
  <wgt id="592">3.17012e-12</wgt>
  <wgt id="593">3.31221e-12</wgt>
  <wgt id="594">3.38528e-12</wgt>
  <wgt id="595">3.40098e-12</wgt>
  <wgt id="596">3.55888e-12</wgt>
  <wgt id="597">3.31849e-12</wgt>
  <wgt id="598">3.24397e-12</wgt>
  <wgt id="599">3.52332e-12</wgt>
  <wgt id="600">3.39171e-12</wgt>
  <wgt id="601">3.24499e-12</wgt>
  <wgt id="602">3.25936e-12</wgt>
  <wgt id="603">3.23488e-12</wgt>
  <wgt id="604">3.41542e-12</wgt>
  <wgt id="605">3.45976e-12</wgt>
  <wgt id="606">3.34743e-12</wgt>
  <wgt id="607">3.37944e-12</wgt>
  <wgt id="608">3.43691e-12</wgt>
  <wgt id="609">3.23055e-12</wgt>
  <wgt id="610">3.23238e-12</wgt>
  <wgt id="611">3.31713e-12</wgt>
  <wgt id="612">3.5629e-12</wgt>
  <wgt id="613">3.28412e-12</wgt>
  <wgt id="614">3.3698e-12</wgt>
  <wgt id="615">3.32511e-12</wgt>
  <wgt id="616">3.42504e-12</wgt>
  <wgt id="617">3.48868e-12</wgt>
  <wgt id="618">3.57188e-12</wgt>
  <wgt id="619">3.29539e-12</wgt>
  <wgt id="620">3.49835e-12</wgt>
  <wgt id="621">3.36001e-12</wgt>
  <wgt id="622">3.41108e-12</wgt>
  <wgt id="623">3.42763e-12</wgt>
  <wgt id="624">3.36867e-12</wgt>
  <wgt id="625">3.26914e-12</wgt>
  <wgt id="626">3.18101e-12</wgt>
  <wgt id="627">3.15438e-12</wgt>
  <wgt id="628">3.47792e-12</wgt>
  <wgt id="629">3.31085e-12</wgt>
  <wgt id="630">3.25426e-12</wgt>
  <wgt id="631">3.39707e-12</wgt>
  <wgt id="632">3.1551e-12</wgt>
  <wgt id="633">3.33065e-12</wgt>
  <wgt id="634">3.28635e-12</wgt>
  <wgt id="635">3.17649e-12</wgt>
  <wgt id="636">3.39038e-12</wgt>
  <wgt id="637">3.35456e-12</wgt>
  <wgt id="638">3.21862e-12</wgt>
  <wgt id="639">3.27498e-12</wgt>
  <wgt id="640">3.33013e-12</wgt>
  <wgt id="641">3.43718e-12</wgt>
  <wgt id="642">3.26997e-12</wgt>
  <wgt id="643">3.31118e-12</wgt>
  <wgt id="644">3.09686e-12</wgt>
  <wgt id="645">3.37484e-12</wgt>
  <wgt id="646">3.2859e-12</wgt>
  <wgt id="647">3.33608e-12</wgt>
  <wgt id="648">3.42419e-12</wgt>
  <wgt id="649">3.3895e-12</wgt>
  <wgt id="650">3.24553e-12</wgt>
  <wgt id="651">3.46289e-12</wgt>
  <wgt id="652">3.28276e-12</wgt>
  <wgt id="653">3.24701e-12</wgt>
  <wgt id="654">3.32844e-12</wgt>
  <wgt id="655">3.28427e-12</wgt>
  <wgt id="656">3.37125e-12</wgt>
  <wgt id="657">3.57283e-12</wgt>
  <wgt id="658">3.37753e-12</wgt>
  <wgt id="659">3.21916e-12</wgt>
  <wgt id="660">3.36323e-12</wgt>
  <wgt id="661">3.28963e-12</wgt>
  <wgt id="662">3.32613e-12</wgt>
  <wgt id="663">3.37959e-12</wgt>
  <wgt id="664">3.33457e-12</wgt>
  <wgt id="665">3.34198e-12</wgt>
  <wgt id="666">3.30335e-12</wgt>
  <wgt id="667">3.49012e-12</wgt>
  <wgt id="668">3.34616e-12</wgt>
  <wgt id="669">3.40899e-12</wgt>
  <wgt id="670">3.47011e-12</wgt>
  <wgt id="671">3.35263e-12</wgt>
  <wgt id="672">3.21779e-12</wgt>
  <wgt id="673">3.44002e-12</wgt>
  <wgt id="674">3.27691e-12</wgt>
  <wgt id="675">3.29276e-12</wgt>
  <wgt id="676">4.31033e-12</wgt>
  <wgt id="677">4.35585e-12</wgt>
  <wgt id="678">4.59462e-12</wgt>
  <wgt id="679">4.11618e-12</wgt>
  <wgt id="680">4.27882e-12</wgt>
  <wgt id="681">4.32234e-12</wgt>
  <wgt id="682">4.48249e-12</wgt>
  <wgt id="683">4.16312e-12</wgt>
  <wgt id="684">4.5165e-12</wgt>
  <wgt id="685">4.16421e-12</wgt>
  <wgt id="686">4.19701e-12</wgt>
  <wgt id="687">4.5193e-12</wgt>
  <wgt id="688">4.22684e-12</wgt>
  <wgt id="689">4.61613e-12</wgt>
  <wgt id="690">4.48072e-12</wgt>
  <wgt id="691">4.50443e-12</wgt>
  <wgt id="692">4.23617e-12</wgt>
  <wgt id="693">5.31908e-12</wgt>
  <wgt id="694">4.6388e-12</wgt>
  <wgt id="695">4.13595e-12</wgt>
  <wgt id="696">4.10117e-12</wgt>
  <wgt id="697">4.07281e-12</wgt>
  <wgt id="698">3.78297e-12</wgt>
  <wgt id="699">3.78838e-12</wgt>
  <wgt id="700">3.74613e-12</wgt>
  <wgt id="701">4.32136e-12</wgt>
  <wgt id="702">4.20139e-12</wgt>
  <wgt id="703">5.1076e-12</wgt>
  <wgt id="704">4.80268e-12</wgt>
  <wgt id="705">4.6594e-12</wgt>
  <wgt id="706">4.02875e-12</wgt>
  <wgt id="707">4.0987e-12</wgt>
  <wgt id="708">4.21953e-12</wgt>
  <wgt id="709">4.21552e-12</wgt>
  <wgt id="710">3.8389e-12</wgt>
  <wgt id="711">4.34229e-12</wgt>
  <wgt id="712">4.1541e-12</wgt>
  <wgt id="713">4.66614e-12</wgt>
  <wgt id="714">4.09704e-12</wgt>
  <wgt id="715">4.21054e-12</wgt>
  <wgt id="716">4.15566e-12</wgt>
  <wgt id="717">3.96365e-12</wgt>
  <wgt id="718">4.3587e-12</wgt>
  <wgt id="719">3.89411e-12</wgt>
  <wgt id="720">4.16421e-12</wgt>
  <wgt id="721">3.80295e-12</wgt>
  <wgt id="722">3.64833e-12</wgt>
  <wgt id="723">4.69797e-12</wgt>
  <wgt id="724">4.58482e-12</wgt>
  <wgt id="725">4.53254e-12</wgt>
  <wgt id="726">4.32718e-12</wgt>
  <wgt id="727">4.24969e-12</wgt>
  <wgt id="728">4.17866e-12</wgt>
  <wgt id="729">4.06366e-12</wgt>
  <wgt id="730">4.72916e-12</wgt>
  <wgt id="731">4.24151e-12</wgt>
  <wgt id="732">4.85912e-12</wgt>
  <wgt id="733">4.18722e-12</wgt>
  <wgt id="734">4.43379e-12</wgt>
  <wgt id="735">4.31941e-12</wgt>
  <wgt id="736">4.13461e-12</wgt>
  <wgt id="737">4.29822e-12</wgt>
  <wgt id="738">4.08281e-12</wgt>
  <wgt id="739">4.53363e-12</wgt>
  <wgt id="740">4.9063e-12</wgt>
  <wgt id="741">4.02974e-12</wgt>
  <wgt id="742">4.24569e-12</wgt>
  <wgt id="743">4.01331e-12</wgt>
  <wgt id="744">4.22569e-12</wgt>
  <wgt id="745">4.59106e-12</wgt>
  <wgt id="746">4.69911e-12</wgt>
  <wgt id="747">3.75377e-12</wgt>
  <wgt id="748">4.22657e-12</wgt>
  <wgt id="749">4.50808e-12</wgt>
  <wgt id="750">4.52666e-12</wgt>
  <wgt id="751">4.39665e-12</wgt>
  <wgt id="752">3.91176e-12</wgt>
  <wgt id="753">3.99746e-12</wgt>
  <wgt id="754">4.51375e-12</wgt>
  <wgt id="755">4.28573e-12</wgt>
  <wgt id="756">4.2813e-12</wgt>
  <wgt id="757">3.87133e-12</wgt>
  <wgt id="758">4.28438e-12</wgt>
  <wgt id="759">4.5899e-12</wgt>
  <wgt id="760">4.2758e-12</wgt>
  <wgt id="761">4.61976e-12</wgt>
  <wgt id="762">4.65453e-12</wgt>
  <wgt id="763">4.30735e-12</wgt>
  <wgt id="764">4.53109e-12</wgt>
  <wgt id="765">4.36223e-12</wgt>
  <wgt id="766">4.32659e-12</wgt>
  <wgt id="767">4.41532e-12</wgt>
  <wgt id="768">4.00268e-12</wgt>
  <wgt id="769">4.58034e-12</wgt>
  <wgt id="770">4.15627e-12</wgt>
  <wgt id="771">5.20009e-12</wgt>
  <wgt id="772">4.12188e-12</wgt>
  <wgt id="773">4.27834e-12</wgt>
  <wgt id="774">3.62158e-12</wgt>
  <wgt id="775">4.53726e-12</wgt>
  <wgt id="776">4.78407e-12</wgt>
  <wgt id="777">3.97534e-12</wgt>
  <wgt id="778">3.03302e-12</wgt>
  <wgt id="779">2.25519e-12</wgt>
  <wgt id="780">1.63971e-12</wgt>
  <wgt id="781">3.39835e-12</wgt>
  <wgt id="782">3.40959e-12</wgt>
  <wgt id="783">2.21986e-12</wgt>
  <wgt id="784">2.45459e-12</wgt>
  <wgt id="785">4.06936e-12</wgt>
  <wgt id="786">2.12328e-12</wgt>
  <wgt id="787">3.64875e-12</wgt>
  <wgt id="788">1.42232e-12</wgt>
  <wgt id="789">2.33558e-12</wgt>
  <wgt id="790">2.08237e-12</wgt>
  <wgt id="791">3.09059e-12</wgt>
  <wgt id="792">4.02982e-12</wgt>
  <wgt id="793">2.96486e-12</wgt>
  <wgt id="794">2.01425e-12</wgt>
  <wgt id="795">3.83464e-12</wgt>
  <wgt id="796">4.11857e-12</wgt>
  <wgt id="797">3.76284e-12</wgt>
  <wgt id="798">2.6012e-12</wgt>
  <wgt id="799">3.60062e-12</wgt>
  <wgt id="800">2.42066e-12</wgt>
  <wgt id="801">2.79333e-12</wgt>
  <wgt id="802">1.98602e-12</wgt>
  <wgt id="803">4.48478e-12</wgt>
  <wgt id="804">3.8055e-12</wgt>
  <wgt id="805">3.81746e-12</wgt>
  <wgt id="806">3.31766e-12</wgt>
  <wgt id="807">2.8866e-12</wgt>
  <wgt id="808">2.90873e-12</wgt>
  <wgt id="809">2.76547e-12</wgt>
  <wgt id="810">3.40034e-12</wgt>
  <wgt id="811">3.28155e-12</wgt>
  <wgt id="812">2.06977e-12</wgt>
  <wgt id="813">2.19663e-12</wgt>
  <wgt id="814">2.40451e-12</wgt>
  <wgt id="815">2.22437e-12</wgt>
  <wgt id="816">2.08007e-12</wgt>
  <wgt id="817">3.12029e-12</wgt>
  <wgt id="818">3.38055e-12</wgt>
  <wgt id="819">2.24394e-12</wgt>
  <wgt id="820">2.97076e-12</wgt>
  <wgt id="821">3.60359e-12</wgt>
  <wgt id="822">2.40084e-12</wgt>
  <wgt id="823">3.68796e-12</wgt>
  <wgt id="824">4.41325e-12</wgt>
  <wgt id="825">1.93194e-12</wgt>
  <wgt id="826">3.44492e-12</wgt>
  <wgt id="827">1.59477e-12</wgt>
  <wgt id="828">3.89608e-12</wgt>
  <wgt id="829">3.16213e-12</wgt>
  <wgt id="830">1.81898e-12</wgt>
  <wgt id="831">3.39862e-12</wgt>
  <wgt id="832">5.23699e-12</wgt>
  <wgt id="833">2.63834e-12</wgt>
  <wgt id="834">4.98367e-12</wgt>
  <wgt id="835">2.32932e-12</wgt>
  <wgt id="836">2.80439e-12</wgt>
  <wgt id="837">3.53618e-12</wgt>
  <wgt id="838">2.718e-12</wgt>
  <wgt id="839">3.36829e-12</wgt>
  <wgt id="840">2.70152e-12</wgt>
  <wgt id="841">4.0266e-12</wgt>
  <wgt id="842">2.79574e-12</wgt>
  <wgt id="843">3.12749e-12</wgt>
  <wgt id="844">3.25851e-12</wgt>
  <wgt id="845">4.76381e-12</wgt>
  <wgt id="846">3.07244e-12</wgt>
  <wgt id="847">3.14349e-12</wgt>
  <wgt id="848">2.30362e-12</wgt>
  <wgt id="849">3.18091e-12</wgt>
  <wgt id="850">4.30018e-12</wgt>
  <wgt id="851">3.44192e-12</wgt>
  <wgt id="852">2.19112e-12</wgt>
  <wgt id="853">3.51879e-12</wgt>
  <wgt id="854">3.93764e-12</wgt>
  <wgt id="855">3.67241e-12</wgt>
  <wgt id="856">1.8439e-12</wgt>
  <wgt id="857">2.8843e-12</wgt>
  <wgt id="858">2.87927e-12</wgt>
  <wgt id="859">2.84911e-12</wgt>
  <wgt id="860">3.56533e-12</wgt>
  <wgt id="861">2.5788e-12</wgt>
  <wgt id="862">3.09623e-12</wgt>
  <wgt id="863">3.3545e-12</wgt>
  <wgt id="864">3.21182e-12</wgt>
  <wgt id="865">4.6789e-12</wgt>
  <wgt id="866">5.1461e-12</wgt>
  <wgt id="867">3.12465e-12</wgt>
  <wgt id="868">3.06934e-12</wgt>
  <wgt id="869">2.09078e-12</wgt>
  <wgt id="870">2.2746e-12</wgt>
  <wgt id="871">2.20728e-12</wgt>
  <wgt id="872">3.958e-12</wgt>
  <wgt id="873">2.45767e-12</wgt>
  <wgt id="874">3.28484e-12</wgt>
  <wgt id="875">2.52039e-12</wgt>
  <wgt id="876">3.89888e-12</wgt>
  <wgt id="877">3.52698e-12</wgt>
  <wgt id="878">2.44795e-12</wgt>
  <wgt id="879">4.31033e-12</wgt>
  <wgt id="880">4.35585e-12</wgt>
  <wgt id="881">4.59462e-12</wgt>
  <wgt id="882">4.11618e-12</wgt>
  <wgt id="883">4.27882e-12</wgt>
  <wgt id="884">4.32234e-12</wgt>
  <wgt id="885">4.48249e-12</wgt>
  <wgt id="886">4.16312e-12</wgt>
  <wgt id="887">4.5165e-12</wgt>
  <wgt id="888">4.16421e-12</wgt>
  <wgt id="889">4.19701e-12</wgt>
  <wgt id="890">4.5193e-12</wgt>
  <wgt id="891">4.22684e-12</wgt>
  <wgt id="892">4.61613e-12</wgt>
  <wgt id="893">4.48072e-12</wgt>
  <wgt id="894">4.50443e-12</wgt>
  <wgt id="895">4.23617e-12</wgt>
  <wgt id="896">5.31908e-12</wgt>
  <wgt id="897">4.6388e-12</wgt>
  <wgt id="898">4.13595e-12</wgt>
  <wgt id="899">4.10117e-12</wgt>
  <wgt id="900">4.07281e-12</wgt>
  <wgt id="901">3.78297e-12</wgt>
  <wgt id="902">3.78838e-12</wgt>
  <wgt id="903">3.74613e-12</wgt>
  <wgt id="904">4.32136e-12</wgt>
  <wgt id="905">4.20139e-12</wgt>
  <wgt id="906">5.1076e-12</wgt>
  <wgt id="907">4.80268e-12</wgt>
  <wgt id="908">4.6594e-12</wgt>
  <wgt id="909">4.02875e-12</wgt>
  <wgt id="910">4.0987e-12</wgt>
  <wgt id="911">4.21953e-12</wgt>
  <wgt id="912">4.21552e-12</wgt>
  <wgt id="913">3.8389e-12</wgt>
  <wgt id="914">4.34229e-12</wgt>
  <wgt id="915">4.1541e-12</wgt>
  <wgt id="916">4.66614e-12</wgt>
  <wgt id="917">4.09704e-12</wgt>
  <wgt id="918">4.21054e-12</wgt>
  <wgt id="919">4.15566e-12</wgt>
  <wgt id="920">3.96365e-12</wgt>
  <wgt id="921">4.3587e-12</wgt>
  <wgt id="922">3.89411e-12</wgt>
  <wgt id="923">4.16421e-12</wgt>
  <wgt id="924">3.80295e-12</wgt>
  <wgt id="925">3.64833e-12</wgt>
  <wgt id="926">4.69797e-12</wgt>
  <wgt id="927">4.58482e-12</wgt>
  <wgt id="928">4.53254e-12</wgt>
  <wgt id="929">4.32718e-12</wgt>
  <wgt id="930">4.24969e-12</wgt>
  <wgt id="931">4.17866e-12</wgt>
  <wgt id="932">4.06366e-12</wgt>
  <wgt id="933">4.72916e-12</wgt>
  <wgt id="934">4.24151e-12</wgt>
  <wgt id="935">4.85912e-12</wgt>
  <wgt id="936">4.18722e-12</wgt>
  <wgt id="937">4.43379e-12</wgt>
  <wgt id="938">4.31941e-12</wgt>
  <wgt id="939">4.13461e-12</wgt>
  <wgt id="940">4.29822e-12</wgt>
  <wgt id="941">4.08281e-12</wgt>
  <wgt id="942">4.53363e-12</wgt>
  <wgt id="943">4.9063e-12</wgt>
  <wgt id="944">4.02974e-12</wgt>
  <wgt id="945">4.24569e-12</wgt>
  <wgt id="946">4.01331e-12</wgt>
  <wgt id="947">4.22569e-12</wgt>
  <wgt id="948">4.59106e-12</wgt>
  <wgt id="949">4.69911e-12</wgt>
  <wgt id="950">3.75377e-12</wgt>
  <wgt id="951">4.22657e-12</wgt>
  <wgt id="952">4.50808e-12</wgt>
  <wgt id="953">4.52666e-12</wgt>
  <wgt id="954">4.39665e-12</wgt>
  <wgt id="955">3.91176e-12</wgt>
  <wgt id="956">3.99746e-12</wgt>
  <wgt id="957">4.51375e-12</wgt>
  <wgt id="958">4.28573e-12</wgt>
  <wgt id="959">4.2813e-12</wgt>
  <wgt id="960">3.87133e-12</wgt>
  <wgt id="961">4.28438e-12</wgt>
  <wgt id="962">4.5899e-12</wgt>
  <wgt id="963">4.2758e-12</wgt>
  <wgt id="964">4.61976e-12</wgt>
  <wgt id="965">4.65453e-12</wgt>
  <wgt id="966">4.30735e-12</wgt>
  <wgt id="967">4.53109e-12</wgt>
  <wgt id="968">4.36223e-12</wgt>
  <wgt id="969">4.32659e-12</wgt>
  <wgt id="970">4.41532e-12</wgt>
  <wgt id="971">4.00268e-12</wgt>
  <wgt id="972">4.58034e-12</wgt>
  <wgt id="973">4.15627e-12</wgt>
  <wgt id="974">5.20009e-12</wgt>
  <wgt id="975">4.12188e-12</wgt>
  <wgt id="976">4.27834e-12</wgt>
  <wgt id="977">3.62158e-12</wgt>
  <wgt id="978">4.53726e-12</wgt>
  <wgt id="979">4.78407e-12</wgt>
  <wgt id="980">4.29427e-12</wgt>
  <wgt id="981">4.36068e-12</wgt>
  <wgt id="982">4.17776e-12</wgt>
</rwgt>
</event>
<event>
 5   1  0.3028200E-11  0.2395109E+04  0.7818608E-02  0.7679130E-01
       21   -1    0    0  502  501  0.00000000000E+00  0.00000000000E+00  0.97137944874E+03  0.97137944874E+03  0.00000000000E+00 0. -1.
       21   -1    0    0  501  502 -0.00000000000E+00 -0.00000000000E+00 -0.14763914396E+04  0.14763914396E+04  0.00000000000E+00 0.  1.
       39    2    1    2    0    0  0.00000000000E+00  0.00000000000E+00 -0.50501199082E+03  0.24477708883E+04  0.23951086010E+04 0.  0.
       25    1    3    3    0    0 -0.70243702038E+03 -0.96170810761E+03 -0.26735300886E+03  0.12269486066E+04  0.12500000000E+03 0.  0.
       25    1    3    3    0    0  0.70243702038E+03  0.96170810761E+03 -0.23765898196E+03  0.12208222817E+04  0.12500000000E+03 0.  0.
<mgrwt>
<rscale>  0 0.23951086E+04</rscale>
<asrwt>0</asrwt>
<pdfrwt beam="1">  1       21 0.14944299E+00 0.23951086E+04</pdfrwt>
<pdfrwt beam="2">  1       21 0.22713714E+00 0.23951086E+04</pdfrwt>
<totfact> 0.98459387E+00</totfact>
</mgrwt>
<rwgt>
  <wgt id="1">3.0282e-12</wgt>
  <wgt id="2">2.63071e-12</wgt>
  <wgt id="3">3.52278e-12</wgt>
  <wgt id="4">3.0282e-12</wgt>
  <wgt id="5">2.63071e-12</wgt>
  <wgt id="6">3.52278e-12</wgt>
  <wgt id="7">3.0282e-12</wgt>
  <wgt id="8">2.63071e-12</wgt>
  <wgt id="9">3.52278e-12</wgt>
  <wgt id="10">3.14644e-12</wgt>
  <wgt id="11">3.14365e-12</wgt>
  <wgt id="12">3.14038e-12</wgt>
  <wgt id="13">3.13583e-12</wgt>
  <wgt id="14">3.15805e-12</wgt>
  <wgt id="15">3.15144e-12</wgt>
  <wgt id="16">3.1407e-12</wgt>
  <wgt id="17">3.15301e-12</wgt>
  <wgt id="18">3.14028e-12</wgt>
  <wgt id="19">3.15392e-12</wgt>
  <wgt id="20">3.13756e-12</wgt>
  <wgt id="21">3.12657e-12</wgt>
  <wgt id="22">3.13368e-12</wgt>
  <wgt id="23">3.11631e-12</wgt>
  <wgt id="24">3.13138e-12</wgt>
  <wgt id="25">3.13868e-12</wgt>
  <wgt id="26">3.15894e-12</wgt>
  <wgt id="27">3.14592e-12</wgt>
  <wgt id="28">3.13177e-12</wgt>
  <wgt id="29">3.14904e-12</wgt>
  <wgt id="30">3.13724e-12</wgt>
  <wgt id="31">3.15598e-12</wgt>
  <wgt id="32">3.14093e-12</wgt>
  <wgt id="33">3.15435e-12</wgt>
  <wgt id="34">3.13534e-12</wgt>
  <wgt id="35">3.14373e-12</wgt>
  <wgt id="36">3.15758e-12</wgt>
  <wgt id="37">3.13816e-12</wgt>
  <wgt id="38">3.13668e-12</wgt>
  <wgt id="39">3.18068e-12</wgt>
  <wgt id="40">3.15201e-12</wgt>
  <wgt id="41">3.14548e-12</wgt>
  <wgt id="42">3.15214e-12</wgt>
  <wgt id="43">3.14625e-12</wgt>
  <wgt id="44">3.13911e-12</wgt>
  <wgt id="45">3.15397e-12</wgt>
  <wgt id="46">3.1505e-12</wgt>
  <wgt id="47">3.138e-12</wgt>
  <wgt id="48">3.1468e-12</wgt>
  <wgt id="49">3.14784e-12</wgt>
  <wgt id="50">3.15931e-12</wgt>
  <wgt id="51">3.15722e-12</wgt>
  <wgt id="52">3.14662e-12</wgt>
  <wgt id="53">3.12559e-12</wgt>
  <wgt id="54">3.14078e-12</wgt>
  <wgt id="55">3.14632e-12</wgt>
  <wgt id="56">3.15793e-12</wgt>
  <wgt id="57">3.15525e-12</wgt>
  <wgt id="58">3.12694e-12</wgt>
  <wgt id="59">3.13606e-12</wgt>
  <wgt id="60">3.14736e-12</wgt>
  <wgt id="61">3.13429e-12</wgt>
  <wgt id="62">3.14188e-12</wgt>
  <wgt id="63">3.14674e-12</wgt>
  <wgt id="64">3.14902e-12</wgt>
  <wgt id="65">3.15029e-12</wgt>
  <wgt id="66">3.14209e-12</wgt>
  <wgt id="67">3.13649e-12</wgt>
  <wgt id="68">3.14368e-12</wgt>
  <wgt id="69">3.14654e-12</wgt>
  <wgt id="70">3.14522e-12</wgt>
  <wgt id="71">3.14554e-12</wgt>
  <wgt id="72">3.14068e-12</wgt>
  <wgt id="73">3.14944e-12</wgt>
  <wgt id="74">3.14848e-12</wgt>
  <wgt id="75">3.14334e-12</wgt>
  <wgt id="76">3.15526e-12</wgt>
  <wgt id="77">3.14545e-12</wgt>
  <wgt id="78">3.14632e-12</wgt>
  <wgt id="79">3.15367e-12</wgt>
  <wgt id="80">3.13285e-12</wgt>
  <wgt id="81">3.14364e-12</wgt>
  <wgt id="82">3.14658e-12</wgt>
  <wgt id="83">3.13371e-12</wgt>
  <wgt id="84">3.1409e-12</wgt>
  <wgt id="85">3.13943e-12</wgt>
  <wgt id="86">3.15567e-12</wgt>
  <wgt id="87">3.12902e-12</wgt>
  <wgt id="88">3.15016e-12</wgt>
  <wgt id="89">3.14934e-12</wgt>
  <wgt id="90">3.15281e-12</wgt>
  <wgt id="91">3.14943e-12</wgt>
  <wgt id="92">3.15285e-12</wgt>
  <wgt id="93">3.14751e-12</wgt>
  <wgt id="94">3.14331e-12</wgt>
  <wgt id="95">3.15075e-12</wgt>
  <wgt id="96">3.14903e-12</wgt>
  <wgt id="97">3.14071e-12</wgt>
  <wgt id="98">3.14799e-12</wgt>
  <wgt id="99">3.14233e-12</wgt>
  <wgt id="100">3.15021e-12</wgt>
  <wgt id="101">3.14652e-12</wgt>
  <wgt id="102">3.14364e-12</wgt>
  <wgt id="103">3.15106e-12</wgt>
  <wgt id="104">3.14472e-12</wgt>
  <wgt id="105">3.15064e-12</wgt>
  <wgt id="106">3.14159e-12</wgt>
  <wgt id="107">3.15595e-12</wgt>
  <wgt id="108">3.14278e-12</wgt>
  <wgt id="109">3.14721e-12</wgt>
  <wgt id="110">3.14649e-12</wgt>
  <wgt id="111">3.17439e-12</wgt>
  <wgt id="112">3.15038e-12</wgt>
  <wgt id="113">4.29083e-12</wgt>
  <wgt id="114">4.38321e-12</wgt>
  <wgt id="115">4.32022e-12</wgt>
  <wgt id="116">6.10462e-12</wgt>
  <wgt id="117">3.51964e-12</wgt>
  <wgt id="118">3.53243e-12</wgt>
  <wgt id="119">3.51221e-12</wgt>
  <wgt id="120">3.51986e-12</wgt>
  <wgt id="121">3.51953e-12</wgt>
  <wgt id="122">3.51335e-12</wgt>
  <wgt id="123">3.52788e-12</wgt>
  <wgt id="124">3.51458e-12</wgt>
  <wgt id="125">3.5227e-12</wgt>
  <wgt id="126">3.52611e-12</wgt>
  <wgt id="127">3.51531e-12</wgt>
  <wgt id="128">3.53059e-12</wgt>
  <wgt id="129">3.50871e-12</wgt>
  <wgt id="130">3.54006e-12</wgt>
  <wgt id="131">3.49878e-12</wgt>
  <wgt id="132">3.42642e-12</wgt>
  <wgt id="133">3.63009e-12</wgt>
  <wgt id="134">3.48108e-12</wgt>
  <wgt id="135">3.54981e-12</wgt>
  <wgt id="136">3.56631e-12</wgt>
  <wgt id="137">3.46301e-12</wgt>
  <wgt id="138">3.66046e-12</wgt>
  <wgt id="139">3.38381e-12</wgt>
  <wgt id="140">3.49707e-12</wgt>
  <wgt id="141">3.53711e-12</wgt>
  <wgt id="142">3.51996e-12</wgt>
  <wgt id="143">3.52524e-12</wgt>
  <wgt id="144">3.4126e-12</wgt>
  <wgt id="145">3.6197e-12</wgt>
  <wgt id="146">3.55379e-12</wgt>
  <wgt id="147">3.49233e-12</wgt>
  <wgt id="148">3.53079e-12</wgt>
  <wgt id="149">3.51875e-12</wgt>
  <wgt id="150">3.55036e-12</wgt>
  <wgt id="151">3.50534e-12</wgt>
  <wgt id="152">3.52133e-12</wgt>
  <wgt id="153">3.51886e-12</wgt>
  <wgt id="154">3.54521e-12</wgt>
  <wgt id="155">3.48811e-12</wgt>
  <wgt id="156">3.59724e-12</wgt>
  <wgt id="157">3.44047e-12</wgt>
  <wgt id="158">4.23233e-12</wgt>
  <wgt id="159">4.25025e-12</wgt>
  <wgt id="160">4.21832e-12</wgt>
  <wgt id="161">4.22162e-12</wgt>
  <wgt id="162">4.24479e-12</wgt>
  <wgt id="163">4.22757e-12</wgt>
  <wgt id="164">4.23961e-12</wgt>
  <wgt id="165">4.2341e-12</wgt>
  <wgt id="166">4.23111e-12</wgt>
  <wgt id="167">4.22934e-12</wgt>
  <wgt id="168">4.23698e-12</wgt>
  <wgt id="169">4.21439e-12</wgt>
  <wgt id="170">4.24364e-12</wgt>
  <wgt id="171">4.22777e-12</wgt>
  <wgt id="172">4.2391e-12</wgt>
  <wgt id="173">4.23127e-12</wgt>
  <wgt id="174">4.23281e-12</wgt>
  <wgt id="175">4.11148e-12</wgt>
  <wgt id="176">4.39052e-12</wgt>
  <wgt id="177">4.25549e-12</wgt>
  <wgt id="178">4.2114e-12</wgt>
  <wgt id="179">4.4168e-12</wgt>
  <wgt id="180">3.94266e-12</wgt>
  <wgt id="181">4.10541e-12</wgt>
  <wgt id="182">4.31639e-12</wgt>
  <wgt id="183">4.15504e-12</wgt>
  <wgt id="184">4.2709e-12</wgt>
  <wgt id="185">4.19659e-12</wgt>
  <wgt id="186">4.27621e-12</wgt>
  <wgt id="187">4.19307e-12</wgt>
  <wgt id="188">4.30311e-12</wgt>
  <wgt id="189">4.20399e-12</wgt>
  <wgt id="190">4.24399e-12</wgt>
  <wgt id="191">4.24443e-12</wgt>
  <wgt id="192">4.22529e-12</wgt>
  <wgt id="193">4.29495e-12</wgt>
  <wgt id="194">4.20155e-12</wgt>
  <wgt id="195">4.11811e-12</wgt>
  <wgt id="196">4.43146e-12</wgt>
  <wgt id="197">4.25409e-12</wgt>
  <wgt id="198">4.22735e-12</wgt>
  <wgt id="199">4.23233e-12</wgt>
  <wgt id="200">4.26948e-12</wgt>
  <wgt id="201">4.25621e-12</wgt>
  <wgt id="202">4.24305e-12</wgt>
  <wgt id="203">4.22349e-12</wgt>
  <wgt id="204">4.21411e-12</wgt>
  <wgt id="205">4.20656e-12</wgt>
  <wgt id="206">4.10223e-12</wgt>
  <wgt id="207">4.12637e-12</wgt>
  <wgt id="208">4.07859e-12</wgt>
  <wgt id="209">4.11567e-12</wgt>
  <wgt id="210">4.09291e-12</wgt>
  <wgt id="211">4.10082e-12</wgt>
  <wgt id="212">4.10352e-12</wgt>
  <wgt id="213">4.10211e-12</wgt>
  <wgt id="214">4.10289e-12</wgt>
  <wgt id="215">4.1056e-12</wgt>
  <wgt id="216">4.10015e-12</wgt>
  <wgt id="217">4.11404e-12</wgt>
  <wgt id="218">4.09329e-12</wgt>
  <wgt id="219">4.09854e-12</wgt>
  <wgt id="220">4.10489e-12</wgt>
  <wgt id="221">4.10108e-12</wgt>
  <wgt id="222">4.10585e-12</wgt>
  <wgt id="223">3.88164e-12</wgt>
  <wgt id="224">4.30365e-12</wgt>
  <wgt id="225">4.05217e-12</wgt>
  <wgt id="226">4.16569e-12</wgt>
  <wgt id="227">4.06322e-12</wgt>
  <wgt id="228">4.11956e-12</wgt>
  <wgt id="229">4.04475e-12</wgt>
  <wgt id="230">4.13116e-12</wgt>
  <wgt id="231">4.22281e-12</wgt>
  <wgt id="232">4.00362e-12</wgt>
  <wgt id="233">4.08052e-12</wgt>
  <wgt id="234">4.13758e-12</wgt>
  <wgt id="235">4.00728e-12</wgt>
  <wgt id="236">4.18809e-12</wgt>
  <wgt id="237">4.04001e-12</wgt>
  <wgt id="238">4.12356e-12</wgt>
  <wgt id="239">4.07585e-12</wgt>
  <wgt id="240">4.15057e-12</wgt>
  <wgt id="241">4.05933e-12</wgt>
  <wgt id="242">4.15428e-12</wgt>
  <wgt id="243">4.15784e-12</wgt>
  <wgt id="244">4.12049e-12</wgt>
  <wgt id="245">4.09983e-12</wgt>
  <wgt id="246">4.13151e-12</wgt>
  <wgt id="247">4.10223e-12</wgt>
  <wgt id="248">4.13899e-12</wgt>
  <wgt id="249">4.12508e-12</wgt>
  <wgt id="250">4.11205e-12</wgt>
  <wgt id="251">4.0929e-12</wgt>
  <wgt id="252">4.08363e-12</wgt>
  <wgt id="253">4.07729e-12</wgt>
  <wgt id="254">4.01367e-12</wgt>
  <wgt id="255">4.0175e-12</wgt>
  <wgt id="256">4.00956e-12</wgt>
  <wgt id="257">4.01665e-12</wgt>
  <wgt id="258">4.0116e-12</wgt>
  <wgt id="259">4.04052e-12</wgt>
  <wgt id="260">3.98781e-12</wgt>
  <wgt id="261">4.01984e-12</wgt>
  <wgt id="262">4.00617e-12</wgt>
  <wgt id="263">4.01153e-12</wgt>
  <wgt id="264">4.01595e-12</wgt>
  <wgt id="265">4.00885e-12</wgt>
  <wgt id="266">4.02346e-12</wgt>
  <wgt id="267">4.01487e-12</wgt>
  <wgt id="268">4.01175e-12</wgt>
  <wgt id="269">4.02691e-12</wgt>
  <wgt id="270">4.00466e-12</wgt>
  <wgt id="271">4.00659e-12</wgt>
  <wgt id="272">4.02173e-12</wgt>
  <wgt id="273">4.0012e-12</wgt>
  <wgt id="274">4.02318e-12</wgt>
  <wgt id="275">3.99623e-12</wgt>
  <wgt id="276">4.0317e-12</wgt>
  <wgt id="277">3.99048e-12</wgt>
  <wgt id="278">4.03501e-12</wgt>
  <wgt id="279">3.93578e-12</wgt>
  <wgt id="280">4.11148e-12</wgt>
  <wgt id="281">3.99573e-12</wgt>
  <wgt id="282">4.01502e-12</wgt>
  <wgt id="283">3.89635e-12</wgt>
  <wgt id="284">4.15822e-12</wgt>
  <wgt id="285">3.81958e-12</wgt>
  <wgt id="286">4.17445e-12</wgt>
  <wgt id="287">4.02658e-12</wgt>
  <wgt id="288">3.99738e-12</wgt>
  <wgt id="289">4.04244e-12</wgt>
  <wgt id="290">3.94738e-12</wgt>
  <wgt id="291">4.00204e-12</wgt>
  <wgt id="292">4.01624e-12</wgt>
  <wgt id="293">3.98226e-12</wgt>
  <wgt id="294">4.04491e-12</wgt>
  <wgt id="295">3.93676e-12</wgt>
  <wgt id="296">4.10751e-12</wgt>
  <wgt id="297">4.01218e-12</wgt>
  <wgt id="298">4.02954e-12</wgt>
  <wgt id="299">4.0006e-12</wgt>
  <wgt id="300">4.04846e-12</wgt>
  <wgt id="301">3.95369e-12</wgt>
  <wgt id="302">4.16162e-12</wgt>
  <wgt id="303">3.98118e-12</wgt>
  <wgt id="304">4.0322e-12</wgt>
  <wgt id="305">4.02148e-12</wgt>
  <wgt id="306">4.0256e-12</wgt>
  <wgt id="307">4.01695e-12</wgt>
  <wgt id="308">4.02488e-12</wgt>
  <wgt id="309">4.01928e-12</wgt>
  <wgt id="310">4.04943e-12</wgt>
  <wgt id="311">3.99548e-12</wgt>
  <wgt id="312">4.02654e-12</wgt>
  <wgt id="313">4.01623e-12</wgt>
  <wgt id="314">4.01933e-12</wgt>
  <wgt id="315">4.02332e-12</wgt>
  <wgt id="316">4.01676e-12</wgt>
  <wgt id="317">4.0316e-12</wgt>
  <wgt id="318">4.0245e-12</wgt>
  <wgt id="319">4.01611e-12</wgt>
  <wgt id="320">4.03549e-12</wgt>
  <wgt id="321">4.01365e-12</wgt>
  <wgt id="322">4.01231e-12</wgt>
  <wgt id="323">4.03197e-12</wgt>
  <wgt id="324">4.01101e-12</wgt>
  <wgt id="325">4.03046e-12</wgt>
  <wgt id="326">4.00733e-12</wgt>
  <wgt id="327">4.03954e-12</wgt>
  <wgt id="328">4.0005e-12</wgt>
  <wgt id="329">4.03314e-12</wgt>
  <wgt id="330">4.14098e-12</wgt>
  <wgt id="331">3.90764e-12</wgt>
  <wgt id="332">4.00632e-12</wgt>
  <wgt id="333">4.02196e-12</wgt>
  <wgt id="334">3.92956e-12</wgt>
  <wgt id="335">4.13558e-12</wgt>
  <wgt id="336">3.88068e-12</wgt>
  <wgt id="337">4.19311e-12</wgt>
  <wgt id="338">4.06672e-12</wgt>
  <wgt id="339">3.97949e-12</wgt>
  <wgt id="340">4.04826e-12</wgt>
  <wgt id="341">3.95229e-12</wgt>
  <wgt id="342">4.01326e-12</wgt>
  <wgt id="343">4.01718e-12</wgt>
  <wgt id="344">3.99299e-12</wgt>
  <wgt id="345">4.0543e-12</wgt>
  <wgt id="346">3.94155e-12</wgt>
  <wgt id="347">4.11331e-12</wgt>
  <wgt id="348">4.02154e-12</wgt>
  <wgt id="349">4.03495e-12</wgt>
  <wgt id="350">4.00492e-12</wgt>
  <wgt id="351">4.06317e-12</wgt>
  <wgt id="352">3.95563e-12</wgt>
  <wgt id="353">4.17501e-12</wgt>
  <wgt id="354">3.97225e-12</wgt>
  <wgt id="355">4.05139e-12</wgt>
  <wgt id="356">4.01367e-12</wgt>
  <wgt id="357">4.03665e-12</wgt>
  <wgt id="358">4.02148e-12</wgt>
  <wgt id="359">4.02644e-12</wgt>
  <wgt id="360">4.04491e-12</wgt>
  <wgt id="361">4.02723e-12</wgt>
  <wgt id="362">4.0987e-12</wgt>
  <wgt id="363">4.08882e-12</wgt>
  <wgt id="364">4.074e-12</wgt>
  <wgt id="365">4.06002e-12</wgt>
  <wgt id="366">4.04443e-12</wgt>
  <wgt id="367">4.01304e-12</wgt>
  <wgt id="368">3.99536e-12</wgt>
  <wgt id="369">3.97624e-12</wgt>
  <wgt id="370">4.02723e-12</wgt>
  <wgt id="371">4.04537e-12</wgt>
  <wgt id="372">4.03549e-12</wgt>
  <wgt id="373">4.02059e-12</wgt>
  <wgt id="374">4.02002e-12</wgt>
  <wgt id="375">4.32536e-12</wgt>
  <wgt id="376">4.32592e-12</wgt>
  <wgt id="377">4.32449e-12</wgt>
  <wgt id="378">4.34132e-12</wgt>
  <wgt id="379">4.30957e-12</wgt>
  <wgt id="380">4.3369e-12</wgt>
  <wgt id="381">4.32084e-12</wgt>
  <wgt id="382">4.34815e-12</wgt>
  <wgt id="383">4.30276e-12</wgt>
  <wgt id="384">4.32827e-12</wgt>
  <wgt id="385">4.32256e-12</wgt>
  <wgt id="386">4.34292e-12</wgt>
  <wgt id="387">4.31779e-12</wgt>
  <wgt id="388">4.32114e-12</wgt>
  <wgt id="389">4.3304e-12</wgt>
  <wgt id="390">4.33711e-12</wgt>
  <wgt id="391">4.31307e-12</wgt>
  <wgt id="392">4.29101e-12</wgt>
  <wgt id="393">4.34503e-12</wgt>
  <wgt id="394">4.33135e-12</wgt>
  <wgt id="395">4.31735e-12</wgt>
  <wgt id="396">4.32901e-12</wgt>
  <wgt id="397">4.32287e-12</wgt>
  <wgt id="398">4.30695e-12</wgt>
  <wgt id="399">4.34326e-12</wgt>
  <wgt id="400">4.31803e-12</wgt>
  <wgt id="401">4.34207e-12</wgt>
  <wgt id="402">4.2892e-12</wgt>
  <wgt id="403">4.34199e-12</wgt>
  <wgt id="404">4.42812e-12</wgt>
  <wgt id="405">4.0778e-12</wgt>
  <wgt id="406">4.25148e-12</wgt>
  <wgt id="407">4.48592e-12</wgt>
  <wgt id="408">4.36334e-12</wgt>
  <wgt id="409">4.25302e-12</wgt>
  <wgt id="410">4.20467e-12</wgt>
  <wgt id="411">4.38156e-12</wgt>
  <wgt id="412">4.31739e-12</wgt>
  <wgt id="413">4.33726e-12</wgt>
  <wgt id="414">4.27717e-12</wgt>
  <wgt id="415">4.363e-12</wgt>
  <wgt id="416">4.44391e-12</wgt>
  <wgt id="417">4.16178e-12</wgt>
  <wgt id="418">4.33135e-12</wgt>
  <wgt id="419">4.29283e-12</wgt>
  <wgt id="420">4.39559e-12</wgt>
  <wgt id="421">4.28421e-12</wgt>
  <wgt id="422">4.31628e-12</wgt>
  <wgt id="423">4.33049e-12</wgt>
  <wgt id="424">4.41827e-12</wgt>
  <wgt id="425">4.26633e-12</wgt>
  <wgt id="426">4.32536e-12</wgt>
  <wgt id="427">4.28254e-12</wgt>
  <wgt id="428">4.44698e-12</wgt>
  <wgt id="429">4.36665e-12</wgt>
  <wgt id="430">4.49125e-12</wgt>
  <wgt id="431">4.46624e-12</wgt>
  <wgt id="432">4.44282e-12</wgt>
  <wgt id="433">4.42015e-12</wgt>
  <wgt id="434">4.39245e-12</wgt>
  <wgt id="435">4.33478e-12</wgt>
  <wgt id="436">4.30533e-12</wgt>
  <wgt id="437">4.27701e-12</wgt>
  <wgt id="438">4.36665e-12</wgt>
  <wgt id="439">4.38105e-12</wgt>
  <wgt id="440">4.37257e-12</wgt>
  <wgt id="441">4.36229e-12</wgt>
  <wgt id="442">4.35877e-12</wgt>
  <wgt id="443">4.20247e-12</wgt>
  <wgt id="444">4.22804e-12</wgt>
  <wgt id="445">4.18986e-12</wgt>
  <wgt id="446">4.17493e-12</wgt>
  <wgt id="447">4.18913e-12</wgt>
  <wgt id="448">4.09086e-12</wgt>
  <wgt id="449">4.26948e-12</wgt>
  <wgt id="450">4.19341e-12</wgt>
  <wgt id="451">4.19498e-12</wgt>
  <wgt id="452">4.29837e-12</wgt>
  <wgt id="453">4.24364e-12</wgt>
  <wgt id="454">4.03028e-12</wgt>
  <wgt id="455">4.2101e-12</wgt>
  <wgt id="456">4.17545e-12</wgt>
  <wgt id="457">4.21987e-12</wgt>
  <wgt id="458">4.25316e-12</wgt>
  <wgt id="459">4.23198e-12</wgt>
  <wgt id="460">4.23087e-12</wgt>
  <wgt id="461">4.12156e-12</wgt>
  <wgt id="462">4.16771e-12</wgt>
  <wgt id="463">4.15416e-12</wgt>
  <wgt id="464">4.17845e-12</wgt>
  <wgt id="465">4.24784e-12</wgt>
  <wgt id="466">4.14986e-12</wgt>
  <wgt id="467">4.16134e-12</wgt>
  <wgt id="468">4.19116e-12</wgt>
  <wgt id="469">4.19059e-12</wgt>
  <wgt id="470">4.16248e-12</wgt>
  <wgt id="471">4.16358e-12</wgt>
  <wgt id="472">4.2228e-12</wgt>
  <wgt id="473">4.06403e-12</wgt>
  <wgt id="474">3.0282e-12</wgt>
  <wgt id="475">3.18843e-12</wgt>
  <wgt id="476">2.96619e-12</wgt>
  <wgt id="477">2.92913e-12</wgt>
  <wgt id="478">3.04596e-12</wgt>
  <wgt id="479">2.96371e-12</wgt>
  <wgt id="480">3.1453e-12</wgt>
  <wgt id="481">2.98232e-12</wgt>
  <wgt id="482">2.93439e-12</wgt>
  <wgt id="483">2.95121e-12</wgt>
  <wgt id="484">3.1966e-12</wgt>
  <wgt id="485">3.00349e-12</wgt>
  <wgt id="486">3.1262e-12</wgt>
  <wgt id="487">3.07692e-12</wgt>
  <wgt id="488">3.07713e-12</wgt>
  <wgt id="489">2.90971e-12</wgt>
  <wgt id="490">2.91914e-12</wgt>
  <wgt id="491">2.99887e-12</wgt>
  <wgt id="492">2.94512e-12</wgt>
  <wgt id="493">2.90845e-12</wgt>
  <wgt id="494">2.9324e-12</wgt>
  <wgt id="495">3.08438e-12</wgt>
  <wgt id="496">2.9291e-12</wgt>
  <wgt id="497">2.90384e-12</wgt>
  <wgt id="498">3.08434e-12</wgt>
  <wgt id="499">2.96575e-12</wgt>
  <wgt id="500">2.97633e-12</wgt>
  <wgt id="501">3.16746e-12</wgt>
  <wgt id="502">2.97141e-12</wgt>
  <wgt id="503">3.02668e-12</wgt>
  <wgt id="504">3.06749e-12</wgt>
  <wgt id="505">3.01263e-12</wgt>
  <wgt id="506">3.06114e-12</wgt>
  <wgt id="507">3.01032e-12</wgt>
  <wgt id="508">3.08904e-12</wgt>
  <wgt id="509">2.91363e-12</wgt>
  <wgt id="510">3.11217e-12</wgt>
  <wgt id="511">2.95947e-12</wgt>
  <wgt id="512">3.09215e-12</wgt>
  <wgt id="513">3.16487e-12</wgt>
  <wgt id="514">3.02612e-12</wgt>
  <wgt id="515">2.99764e-12</wgt>
  <wgt id="516">3.14026e-12</wgt>
  <wgt id="517">3.0939e-12</wgt>
  <wgt id="518">3.10189e-12</wgt>
  <wgt id="519">2.93784e-12</wgt>
  <wgt id="520">3.06987e-12</wgt>
  <wgt id="521">3.12039e-12</wgt>
  <wgt id="522">3.15149e-12</wgt>
  <wgt id="523">3.07118e-12</wgt>
  <wgt id="524">3.05679e-12</wgt>
  <wgt id="525">3.12201e-12</wgt>
  <wgt id="526">3.05487e-12</wgt>
  <wgt id="527">3.06569e-12</wgt>
  <wgt id="528">3.04804e-12</wgt>
  <wgt id="529">2.97483e-12</wgt>
  <wgt id="530">3.07595e-12</wgt>
  <wgt id="531">2.98969e-12</wgt>
  <wgt id="532">3.21091e-12</wgt>
  <wgt id="533">2.86513e-12</wgt>
  <wgt id="534">3.03374e-12</wgt>
  <wgt id="535">3.07331e-12</wgt>
  <wgt id="536">3.01034e-12</wgt>
  <wgt id="537">3.02897e-12</wgt>
  <wgt id="538">3.05898e-12</wgt>
  <wgt id="539">2.97288e-12</wgt>
  <wgt id="540">2.98348e-12</wgt>
  <wgt id="541">2.93607e-12</wgt>
  <wgt id="542">2.98429e-12</wgt>
  <wgt id="543">3.01811e-12</wgt>
  <wgt id="544">3.16974e-12</wgt>
  <wgt id="545">2.98079e-12</wgt>
  <wgt id="546">2.97105e-12</wgt>
  <wgt id="547">2.9409e-12</wgt>
  <wgt id="548">2.90535e-12</wgt>
  <wgt id="549">2.97504e-12</wgt>
  <wgt id="550">2.9842e-12</wgt>
  <wgt id="551">3.06131e-12</wgt>
  <wgt id="552">2.97558e-12</wgt>
  <wgt id="553">3.00854e-12</wgt>
  <wgt id="554">3.24773e-12</wgt>
  <wgt id="555">3.10668e-12</wgt>
  <wgt id="556">2.91914e-12</wgt>
  <wgt id="557">3.0886e-12</wgt>
  <wgt id="558">2.93958e-12</wgt>
  <wgt id="559">2.97911e-12</wgt>
  <wgt id="560">3.29975e-12</wgt>
  <wgt id="561">2.98123e-12</wgt>
  <wgt id="562">3.09029e-12</wgt>
  <wgt id="563">2.97346e-12</wgt>
  <wgt id="564">3.0548e-12</wgt>
  <wgt id="565">2.92805e-12</wgt>
  <wgt id="566">3.07386e-12</wgt>
  <wgt id="567">2.99237e-12</wgt>
  <wgt id="568">3.01174e-12</wgt>
  <wgt id="569">3.08176e-12</wgt>
  <wgt id="570">2.91883e-12</wgt>
  <wgt id="571">3.35809e-12</wgt>
  <wgt id="572">2.96113e-12</wgt>
  <wgt id="573">2.90334e-12</wgt>
  <wgt id="574">2.92541e-12</wgt>
  <wgt id="575">3.34124e-12</wgt>
  <wgt id="576">3.34498e-12</wgt>
  <wgt id="577">3.4295e-12</wgt>
  <wgt id="578">3.43517e-12</wgt>
  <wgt id="579">3.41147e-12</wgt>
  <wgt id="580">3.42562e-12</wgt>
  <wgt id="581">3.57458e-12</wgt>
  <wgt id="582">3.33604e-12</wgt>
  <wgt id="583">3.37721e-12</wgt>
  <wgt id="584">3.34081e-12</wgt>
  <wgt id="585">3.33175e-12</wgt>
  <wgt id="586">3.25364e-12</wgt>
  <wgt id="587">3.39089e-12</wgt>
  <wgt id="588">3.34156e-12</wgt>
  <wgt id="589">3.42949e-12</wgt>
  <wgt id="590">3.38472e-12</wgt>
  <wgt id="591">3.46375e-12</wgt>
  <wgt id="592">3.23362e-12</wgt>
  <wgt id="593">3.31992e-12</wgt>
  <wgt id="594">3.42462e-12</wgt>
  <wgt id="595">3.34264e-12</wgt>
  <wgt id="596">3.40126e-12</wgt>
  <wgt id="597">3.25829e-12</wgt>
  <wgt id="598">3.22962e-12</wgt>
  <wgt id="599">3.5006e-12</wgt>
  <wgt id="600">3.32392e-12</wgt>
  <wgt id="601">3.24419e-12</wgt>
  <wgt id="602">3.25766e-12</wgt>
  <wgt id="603">3.26413e-12</wgt>
  <wgt id="604">3.39272e-12</wgt>
  <wgt id="605">3.46922e-12</wgt>
  <wgt id="606">3.28801e-12</wgt>
  <wgt id="607">3.31628e-12</wgt>
  <wgt id="608">3.38229e-12</wgt>
  <wgt id="609">3.17603e-12</wgt>
  <wgt id="610">3.21902e-12</wgt>
  <wgt id="611">3.35564e-12</wgt>
  <wgt id="612">3.57724e-12</wgt>
  <wgt id="613">3.31797e-12</wgt>
  <wgt id="614">3.37675e-12</wgt>
  <wgt id="615">3.28333e-12</wgt>
  <wgt id="616">3.50003e-12</wgt>
  <wgt id="617">3.46632e-12</wgt>
  <wgt id="618">3.46133e-12</wgt>
  <wgt id="619">3.29732e-12</wgt>
  <wgt id="620">3.48318e-12</wgt>
  <wgt id="621">3.37271e-12</wgt>
  <wgt id="622">3.39089e-12</wgt>
  <wgt id="623">3.43165e-12</wgt>
  <wgt id="624">3.33752e-12</wgt>
  <wgt id="625">3.2901e-12</wgt>
  <wgt id="626">3.23728e-12</wgt>
  <wgt id="627">3.19396e-12</wgt>
  <wgt id="628">3.51405e-12</wgt>
  <wgt id="629">3.27442e-12</wgt>
  <wgt id="630">3.22707e-12</wgt>
  <wgt id="631">3.36343e-12</wgt>
  <wgt id="632">3.20146e-12</wgt>
  <wgt id="633">3.30928e-12</wgt>
  <wgt id="634">3.31646e-12</wgt>
  <wgt id="635">3.23928e-12</wgt>
  <wgt id="636">3.36661e-12</wgt>
  <wgt id="637">3.33511e-12</wgt>
  <wgt id="638">3.21375e-12</wgt>
  <wgt id="639">3.28887e-12</wgt>
  <wgt id="640">3.33755e-12</wgt>
  <wgt id="641">3.37932e-12</wgt>
  <wgt id="642">3.23852e-12</wgt>
  <wgt id="643">3.31648e-12</wgt>
  <wgt id="644">3.17091e-12</wgt>
  <wgt id="645">3.36895e-12</wgt>
  <wgt id="646">3.35806e-12</wgt>
  <wgt id="647">3.3035e-12</wgt>
  <wgt id="648">3.37337e-12</wgt>
  <wgt id="649">3.38639e-12</wgt>
  <wgt id="650">3.26574e-12</wgt>
  <wgt id="651">3.38049e-12</wgt>
  <wgt id="652">3.30595e-12</wgt>
  <wgt id="653">3.24412e-12</wgt>
  <wgt id="654">3.3132e-12</wgt>
  <wgt id="655">3.28621e-12</wgt>
  <wgt id="656">3.35895e-12</wgt>
  <wgt id="657">3.49093e-12</wgt>
  <wgt id="658">3.35132e-12</wgt>
  <wgt id="659">3.20903e-12</wgt>
  <wgt id="660">3.39244e-12</wgt>
  <wgt id="661">3.28502e-12</wgt>
  <wgt id="662">3.33225e-12</wgt>
  <wgt id="663">3.34771e-12</wgt>
  <wgt id="664">3.29997e-12</wgt>
  <wgt id="665">3.33196e-12</wgt>
  <wgt id="666">3.30805e-12</wgt>
  <wgt id="667">3.45332e-12</wgt>
  <wgt id="668">3.33722e-12</wgt>
  <wgt id="669">3.41601e-12</wgt>
  <wgt id="670">3.42048e-12</wgt>
  <wgt id="671">3.31788e-12</wgt>
  <wgt id="672">3.20146e-12</wgt>
  <wgt id="673">3.36832e-12</wgt>
  <wgt id="674">3.27351e-12</wgt>
  <wgt id="675">3.2932e-12</wgt>
  <wgt id="676">4.23535e-12</wgt>
  <wgt id="677">4.28226e-12</wgt>
  <wgt id="678">4.45509e-12</wgt>
  <wgt id="679">3.98216e-12</wgt>
  <wgt id="680">4.15265e-12</wgt>
  <wgt id="681">4.30851e-12</wgt>
  <wgt id="682">4.36878e-12</wgt>
  <wgt id="683">4.15967e-12</wgt>
  <wgt id="684">4.42725e-12</wgt>
  <wgt id="685">4.0369e-12</wgt>
  <wgt id="686">4.13704e-12</wgt>
  <wgt id="687">4.44176e-12</wgt>
  <wgt id="688">4.1979e-12</wgt>
  <wgt id="689">4.56305e-12</wgt>
  <wgt id="690">4.43745e-12</wgt>
  <wgt id="691">4.47176e-12</wgt>
  <wgt id="692">4.18417e-12</wgt>
  <wgt id="693">5.02522e-12</wgt>
  <wgt id="694">4.50361e-12</wgt>
  <wgt id="695">4.09722e-12</wgt>
  <wgt id="696">4.02233e-12</wgt>
  <wgt id="697">4.0886e-12</wgt>
  <wgt id="698">3.8493e-12</wgt>
  <wgt id="699">3.82585e-12</wgt>
  <wgt id="700">3.69623e-12</wgt>
  <wgt id="701">4.24847e-12</wgt>
  <wgt id="702">4.114e-12</wgt>
  <wgt id="703">4.89143e-12</wgt>
  <wgt id="704">4.65119e-12</wgt>
  <wgt id="705">4.466e-12</wgt>
  <wgt id="706">3.95762e-12</wgt>
  <wgt id="707">4.05814e-12</wgt>
  <wgt id="708">4.17233e-12</wgt>
  <wgt id="709">4.15632e-12</wgt>
  <wgt id="710">3.81608e-12</wgt>
  <wgt id="711">4.2171e-12</wgt>
  <wgt id="712">4.1417e-12</wgt>
  <wgt id="713">4.57836e-12</wgt>
  <wgt id="714">4.13388e-12</wgt>
  <wgt id="715">4.17951e-12</wgt>
  <wgt id="716">4.07757e-12</wgt>
  <wgt id="717">4.00274e-12</wgt>
  <wgt id="718">4.24099e-12</wgt>
  <wgt id="719">3.84109e-12</wgt>
  <wgt id="720">4.01289e-12</wgt>
  <wgt id="721">3.85919e-12</wgt>
  <wgt id="722">3.72006e-12</wgt>
  <wgt id="723">4.53722e-12</wgt>
  <wgt id="724">4.4507e-12</wgt>
  <wgt id="725">4.46373e-12</wgt>
  <wgt id="726">4.2691e-12</wgt>
  <wgt id="727">4.14621e-12</wgt>
  <wgt id="728">4.13218e-12</wgt>
  <wgt id="729">3.92987e-12</wgt>
  <wgt id="730">4.58583e-12</wgt>
  <wgt id="731">4.17752e-12</wgt>
  <wgt id="732">4.68004e-12</wgt>
  <wgt id="733">4.19869e-12</wgt>
  <wgt id="734">4.34109e-12</wgt>
  <wgt id="735">4.22996e-12</wgt>
  <wgt id="736">4.13239e-12</wgt>
  <wgt id="737">4.29084e-12</wgt>
  <wgt id="738">4.02262e-12</wgt>
  <wgt id="739">4.33852e-12</wgt>
  <wgt id="740">4.72913e-12</wgt>
  <wgt id="741">3.81238e-12</wgt>
  <wgt id="742">4.17487e-12</wgt>
  <wgt id="743">4.01965e-12</wgt>
  <wgt id="744">4.14897e-12</wgt>
  <wgt id="745">4.44539e-12</wgt>
  <wgt id="746">4.52699e-12</wgt>
  <wgt id="747">3.80085e-12</wgt>
  <wgt id="748">4.1772e-12</wgt>
  <wgt id="749">4.44876e-12</wgt>
  <wgt id="750">4.35453e-12</wgt>
  <wgt id="751">4.35504e-12</wgt>
  <wgt id="752">3.87401e-12</wgt>
  <wgt id="753">4.00283e-12</wgt>
  <wgt id="754">4.42585e-12</wgt>
  <wgt id="755">4.24078e-12</wgt>
  <wgt id="756">4.24744e-12</wgt>
  <wgt id="757">3.87635e-12</wgt>
  <wgt id="758">4.25512e-12</wgt>
  <wgt id="759">4.3808e-12</wgt>
  <wgt id="760">4.26521e-12</wgt>
  <wgt id="761">4.47736e-12</wgt>
  <wgt id="762">4.50623e-12</wgt>
  <wgt id="763">4.2194e-12</wgt>
  <wgt id="764">4.4141e-12</wgt>
  <wgt id="765">4.30114e-12</wgt>
  <wgt id="766">4.23389e-12</wgt>
  <wgt id="767">4.34169e-12</wgt>
  <wgt id="768">3.98043e-12</wgt>
  <wgt id="769">4.49568e-12</wgt>
  <wgt id="770">4.11704e-12</wgt>
  <wgt id="771">5.02963e-12</wgt>
  <wgt id="772">4.01173e-12</wgt>
  <wgt id="773">4.20127e-12</wgt>
  <wgt id="774">3.71086e-12</wgt>
  <wgt id="775">4.46073e-12</wgt>
  <wgt id="776">4.63621e-12</wgt>
  <wgt id="777">3.99551e-12</wgt>
  <wgt id="778">3.08509e-12</wgt>
  <wgt id="779">2.49123e-12</wgt>
  <wgt id="780">1.96888e-12</wgt>
  <wgt id="781">3.27357e-12</wgt>
  <wgt id="782">3.30499e-12</wgt>
  <wgt id="783">2.50683e-12</wgt>
  <wgt id="784">2.64358e-12</wgt>
  <wgt id="785">3.84443e-12</wgt>
  <wgt id="786">2.32733e-12</wgt>
  <wgt id="787">3.56587e-12</wgt>
  <wgt id="788">1.8095e-12</wgt>
  <wgt id="789">2.46182e-12</wgt>
  <wgt id="790">2.28964e-12</wgt>
  <wgt id="791">2.95604e-12</wgt>
  <wgt id="792">4.05662e-12</wgt>
  <wgt id="793">3.02516e-12</wgt>
  <wgt id="794">2.27242e-12</wgt>
  <wgt id="795">3.69419e-12</wgt>
  <wgt id="796">4.09344e-12</wgt>
  <wgt id="797">3.65149e-12</wgt>
  <wgt id="798">2.78667e-12</wgt>
  <wgt id="799">3.551e-12</wgt>
  <wgt id="800">2.49731e-12</wgt>
  <wgt id="801">2.85769e-12</wgt>
  <wgt id="802">2.27496e-12</wgt>
  <wgt id="803">4.18033e-12</wgt>
  <wgt id="804">3.6657e-12</wgt>
  <wgt id="805">3.71705e-12</wgt>
  <wgt id="806">3.42104e-12</wgt>
  <wgt id="807">2.93076e-12</wgt>
  <wgt id="808">2.98607e-12</wgt>
  <wgt id="809">2.83668e-12</wgt>
  <wgt id="810">3.48579e-12</wgt>
  <wgt id="811">3.36503e-12</wgt>
  <wgt id="812">2.27142e-12</wgt>
  <wgt id="813">2.35134e-12</wgt>
  <wgt id="814">2.5874e-12</wgt>
  <wgt id="815">2.49066e-12</wgt>
  <wgt id="816">2.21503e-12</wgt>
  <wgt id="817">3.21818e-12</wgt>
  <wgt id="818">3.15282e-12</wgt>
  <wgt id="819">2.48821e-12</wgt>
  <wgt id="820">3.07168e-12</wgt>
  <wgt id="821">3.58573e-12</wgt>
  <wgt id="822">2.50613e-12</wgt>
  <wgt id="823">3.62554e-12</wgt>
  <wgt id="824">4.21622e-12</wgt>
  <wgt id="825">2.19471e-12</wgt>
  <wgt id="826">3.32622e-12</wgt>
  <wgt id="827">1.80103e-12</wgt>
  <wgt id="828">3.95457e-12</wgt>
  <wgt id="829">3.21539e-12</wgt>
  <wgt id="830">2.076e-12</wgt>
  <wgt id="831">3.35986e-12</wgt>
  <wgt id="832">5.14263e-12</wgt>
  <wgt id="833">2.81817e-12</wgt>
  <wgt id="834">4.83293e-12</wgt>
  <wgt id="835">2.47173e-12</wgt>
  <wgt id="836">3.00861e-12</wgt>
  <wgt id="837">3.53524e-12</wgt>
  <wgt id="838">2.89575e-12</wgt>
  <wgt id="839">3.33423e-12</wgt>
  <wgt id="840">2.84157e-12</wgt>
  <wgt id="841">3.8894e-12</wgt>
  <wgt id="842">2.79577e-12</wgt>
  <wgt id="843">3.07708e-12</wgt>
  <wgt id="844">3.24806e-12</wgt>
  <wgt id="845">4.48272e-12</wgt>
  <wgt id="846">2.98301e-12</wgt>
  <wgt id="847">3.14716e-12</wgt>
  <wgt id="848">2.57548e-12</wgt>
  <wgt id="849">3.18179e-12</wgt>
  <wgt id="850">4.12415e-12</wgt>
  <wgt id="851">3.41545e-12</wgt>
  <wgt id="852">2.53044e-12</wgt>
  <wgt id="853">3.43896e-12</wgt>
  <wgt id="854">3.82619e-12</wgt>
  <wgt id="855">3.62987e-12</wgt>
  <wgt id="856">2.12401e-12</wgt>
  <wgt id="857">3.04768e-12</wgt>
  <wgt id="858">3.0101e-12</wgt>
  <wgt id="859">2.87449e-12</wgt>
  <wgt id="860">3.40744e-12</wgt>
  <wgt id="861">2.67454e-12</wgt>
  <wgt id="862">3.14573e-12</wgt>
  <wgt id="863">3.30864e-12</wgt>
  <wgt id="864">3.28532e-12</wgt>
  <wgt id="865">4.52745e-12</wgt>
  <wgt id="866">4.96269e-12</wgt>
  <wgt id="867">3.16372e-12</wgt>
  <wgt id="868">3.07529e-12</wgt>
  <wgt id="869">2.32059e-12</wgt>
  <wgt id="870">2.4556e-12</wgt>
  <wgt id="871">2.37915e-12</wgt>
  <wgt id="872">3.78072e-12</wgt>
  <wgt id="873">2.53e-12</wgt>
  <wgt id="874">3.27852e-12</wgt>
  <wgt id="875">2.65058e-12</wgt>
  <wgt id="876">3.77244e-12</wgt>
  <wgt id="877">3.56696e-12</wgt>
  <wgt id="878">2.58902e-12</wgt>
  <wgt id="879">4.23535e-12</wgt>
  <wgt id="880">4.28226e-12</wgt>
  <wgt id="881">4.45509e-12</wgt>
  <wgt id="882">3.98216e-12</wgt>
  <wgt id="883">4.15265e-12</wgt>
  <wgt id="884">4.30851e-12</wgt>
  <wgt id="885">4.36878e-12</wgt>
  <wgt id="886">4.15967e-12</wgt>
  <wgt id="887">4.42725e-12</wgt>
  <wgt id="888">4.0369e-12</wgt>
  <wgt id="889">4.13704e-12</wgt>
  <wgt id="890">4.44176e-12</wgt>
  <wgt id="891">4.1979e-12</wgt>
  <wgt id="892">4.56305e-12</wgt>
  <wgt id="893">4.43745e-12</wgt>
  <wgt id="894">4.47176e-12</wgt>
  <wgt id="895">4.18417e-12</wgt>
  <wgt id="896">5.02522e-12</wgt>
  <wgt id="897">4.50361e-12</wgt>
  <wgt id="898">4.09722e-12</wgt>
  <wgt id="899">4.02233e-12</wgt>
  <wgt id="900">4.0886e-12</wgt>
  <wgt id="901">3.8493e-12</wgt>
  <wgt id="902">3.82585e-12</wgt>
  <wgt id="903">3.69623e-12</wgt>
  <wgt id="904">4.24847e-12</wgt>
  <wgt id="905">4.114e-12</wgt>
  <wgt id="906">4.89143e-12</wgt>
  <wgt id="907">4.65119e-12</wgt>
  <wgt id="908">4.466e-12</wgt>
  <wgt id="909">3.95762e-12</wgt>
  <wgt id="910">4.05814e-12</wgt>
  <wgt id="911">4.17233e-12</wgt>
  <wgt id="912">4.15632e-12</wgt>
  <wgt id="913">3.81608e-12</wgt>
  <wgt id="914">4.2171e-12</wgt>
  <wgt id="915">4.1417e-12</wgt>
  <wgt id="916">4.57836e-12</wgt>
  <wgt id="917">4.13388e-12</wgt>
  <wgt id="918">4.17951e-12</wgt>
  <wgt id="919">4.07757e-12</wgt>
  <wgt id="920">4.00274e-12</wgt>
  <wgt id="921">4.24099e-12</wgt>
  <wgt id="922">3.84109e-12</wgt>
  <wgt id="923">4.01289e-12</wgt>
  <wgt id="924">3.85919e-12</wgt>
  <wgt id="925">3.72006e-12</wgt>
  <wgt id="926">4.53722e-12</wgt>
  <wgt id="927">4.4507e-12</wgt>
  <wgt id="928">4.46373e-12</wgt>
  <wgt id="929">4.2691e-12</wgt>
  <wgt id="930">4.14621e-12</wgt>
  <wgt id="931">4.13218e-12</wgt>
  <wgt id="932">3.92987e-12</wgt>
  <wgt id="933">4.58583e-12</wgt>
  <wgt id="934">4.17752e-12</wgt>
  <wgt id="935">4.68004e-12</wgt>
  <wgt id="936">4.19869e-12</wgt>
  <wgt id="937">4.34109e-12</wgt>
  <wgt id="938">4.22996e-12</wgt>
  <wgt id="939">4.13239e-12</wgt>
  <wgt id="940">4.29084e-12</wgt>
  <wgt id="941">4.02262e-12</wgt>
  <wgt id="942">4.33852e-12</wgt>
  <wgt id="943">4.72913e-12</wgt>
  <wgt id="944">3.81238e-12</wgt>
  <wgt id="945">4.17487e-12</wgt>
  <wgt id="946">4.01965e-12</wgt>
  <wgt id="947">4.14897e-12</wgt>
  <wgt id="948">4.44539e-12</wgt>
  <wgt id="949">4.52699e-12</wgt>
  <wgt id="950">3.80085e-12</wgt>
  <wgt id="951">4.1772e-12</wgt>
  <wgt id="952">4.44876e-12</wgt>
  <wgt id="953">4.35453e-12</wgt>
  <wgt id="954">4.35504e-12</wgt>
  <wgt id="955">3.87401e-12</wgt>
  <wgt id="956">4.00283e-12</wgt>
  <wgt id="957">4.42585e-12</wgt>
  <wgt id="958">4.24078e-12</wgt>
  <wgt id="959">4.24744e-12</wgt>
  <wgt id="960">3.87635e-12</wgt>
  <wgt id="961">4.25512e-12</wgt>
  <wgt id="962">4.3808e-12</wgt>
  <wgt id="963">4.26521e-12</wgt>
  <wgt id="964">4.47736e-12</wgt>
  <wgt id="965">4.50623e-12</wgt>
  <wgt id="966">4.2194e-12</wgt>
  <wgt id="967">4.4141e-12</wgt>
  <wgt id="968">4.30114e-12</wgt>
  <wgt id="969">4.23389e-12</wgt>
  <wgt id="970">4.34169e-12</wgt>
  <wgt id="971">3.98043e-12</wgt>
  <wgt id="972">4.49568e-12</wgt>
  <wgt id="973">4.11704e-12</wgt>
  <wgt id="974">5.02963e-12</wgt>
  <wgt id="975">4.01173e-12</wgt>
  <wgt id="976">4.20127e-12</wgt>
  <wgt id="977">3.71086e-12</wgt>
  <wgt id="978">4.46073e-12</wgt>
  <wgt id="979">4.63621e-12</wgt>
  <wgt id="980">4.23001e-12</wgt>
  <wgt id="981">4.26453e-12</wgt>
  <wgt id="982">4.1104e-12</wgt>
</rwgt>
</event>
<event>
 5   1  0.3028200E-11  0.2641896E+04  0.7818608E-02  0.7600255E-01
       21   -1    0    0  502  501  0.00000000000E+00  0.00000000000E+00  0.12198967492E+04  0.12198967492E+04  0.00000000000E+00 0. -1.
       21   -1    0    0  501  502 -0.00000000000E+00 -0.00000000000E+00 -0.14303700796E+04  0.14303700796E+04  0.00000000000E+00 0.  1.
       39    2    1    2    0    0  0.00000000000E+00  0.00000000000E+00 -0.21047333048E+03  0.26502668288E+04  0.26418961450E+04 0.  0.
       25    1    3    3    0    0  0.11260478682E+04 -0.45496308456E+03 -0.61111969897E+03  0.13653085718E+04  0.12500000000E+03 0.  0.
       25    1    3    3    0    0 -0.11260478682E+04  0.45496308456E+03  0.40064636849E+03  0.12849582570E+04  0.12500000000E+03 0.  0.
<mgrwt>
<rscale>  0 0.26418961E+04</rscale>
<asrwt>0</asrwt>
<pdfrwt beam="1">  1       21 0.18767642E+00 0.26418961E+04</pdfrwt>
<pdfrwt beam="2">  1       21 0.22005694E+00 0.26418961E+04</pdfrwt>
<totfact> 0.51540580E+00</totfact>
</mgrwt>
<rwgt>
  <wgt id="1">3.0282e-12</wgt>
  <wgt id="2">2.61816e-12</wgt>
  <wgt id="3">3.54146e-12</wgt>
  <wgt id="4">3.0282e-12</wgt>
  <wgt id="5">2.61816e-12</wgt>
  <wgt id="6">3.54146e-12</wgt>
  <wgt id="7">3.0282e-12</wgt>
  <wgt id="8">2.61816e-12</wgt>
  <wgt id="9">3.54146e-12</wgt>
  <wgt id="10">3.17133e-12</wgt>
  <wgt id="11">3.16802e-12</wgt>
  <wgt id="12">3.16499e-12</wgt>
  <wgt id="13">3.16018e-12</wgt>
  <wgt id="14">3.18363e-12</wgt>
  <wgt id="15">3.17661e-12</wgt>
  <wgt id="16">3.16604e-12</wgt>
  <wgt id="17">3.17701e-12</wgt>
  <wgt id="18">3.16308e-12</wgt>
  <wgt id="19">3.17976e-12</wgt>
  <wgt id="20">3.1614e-12</wgt>
  <wgt id="21">3.15024e-12</wgt>
  <wgt id="22">3.15831e-12</wgt>
  <wgt id="23">3.14059e-12</wgt>
  <wgt id="24">3.15654e-12</wgt>
  <wgt id="25">3.16435e-12</wgt>
  <wgt id="26">3.18514e-12</wgt>
  <wgt id="27">3.17175e-12</wgt>
  <wgt id="28">3.15739e-12</wgt>
  <wgt id="29">3.17355e-12</wgt>
  <wgt id="30">3.16463e-12</wgt>
  <wgt id="31">3.17989e-12</wgt>
  <wgt id="32">3.16961e-12</wgt>
  <wgt id="33">3.18108e-12</wgt>
  <wgt id="34">3.16055e-12</wgt>
  <wgt id="35">3.17299e-12</wgt>
  <wgt id="36">3.1857e-12</wgt>
  <wgt id="37">3.1631e-12</wgt>
  <wgt id="38">3.15933e-12</wgt>
  <wgt id="39">3.20368e-12</wgt>
  <wgt id="40">3.17626e-12</wgt>
  <wgt id="41">3.17088e-12</wgt>
  <wgt id="42">3.17351e-12</wgt>
  <wgt id="43">3.16867e-12</wgt>
  <wgt id="44">3.16634e-12</wgt>
  <wgt id="45">3.18204e-12</wgt>
  <wgt id="46">3.17911e-12</wgt>
  <wgt id="47">3.16159e-12</wgt>
  <wgt id="48">3.17021e-12</wgt>
  <wgt id="49">3.1685e-12</wgt>
  <wgt id="50">3.1859e-12</wgt>
  <wgt id="51">3.18688e-12</wgt>
  <wgt id="52">3.17909e-12</wgt>
  <wgt id="53">3.14074e-12</wgt>
  <wgt id="54">3.16303e-12</wgt>
  <wgt id="55">3.17187e-12</wgt>
  <wgt id="56">3.18525e-12</wgt>
  <wgt id="57">3.18128e-12</wgt>
  <wgt id="58">3.14857e-12</wgt>
  <wgt id="59">3.15844e-12</wgt>
  <wgt id="60">3.17294e-12</wgt>
  <wgt id="61">3.15546e-12</wgt>
  <wgt id="62">3.16624e-12</wgt>
  <wgt id="63">3.1715e-12</wgt>
  <wgt id="64">3.17451e-12</wgt>
  <wgt id="65">3.17628e-12</wgt>
  <wgt id="66">3.16591e-12</wgt>
  <wgt id="67">3.15982e-12</wgt>
  <wgt id="68">3.16775e-12</wgt>
  <wgt id="69">3.17231e-12</wgt>
  <wgt id="70">3.16912e-12</wgt>
  <wgt id="71">3.17259e-12</wgt>
  <wgt id="72">3.16629e-12</wgt>
  <wgt id="73">3.17317e-12</wgt>
  <wgt id="74">3.17451e-12</wgt>
  <wgt id="75">3.16563e-12</wgt>
  <wgt id="76">3.18162e-12</wgt>
  <wgt id="77">3.17062e-12</wgt>
  <wgt id="78">3.1716e-12</wgt>
  <wgt id="79">3.17913e-12</wgt>
  <wgt id="80">3.15603e-12</wgt>
  <wgt id="81">3.16743e-12</wgt>
  <wgt id="82">3.1713e-12</wgt>
  <wgt id="83">3.15604e-12</wgt>
  <wgt id="84">3.16405e-12</wgt>
  <wgt id="85">3.16289e-12</wgt>
  <wgt id="86">3.18226e-12</wgt>
  <wgt id="87">3.15044e-12</wgt>
  <wgt id="88">3.17623e-12</wgt>
  <wgt id="89">3.17494e-12</wgt>
  <wgt id="90">3.17791e-12</wgt>
  <wgt id="91">3.1744e-12</wgt>
  <wgt id="92">3.1787e-12</wgt>
  <wgt id="93">3.17143e-12</wgt>
  <wgt id="94">3.16727e-12</wgt>
  <wgt id="95">3.17497e-12</wgt>
  <wgt id="96">3.17435e-12</wgt>
  <wgt id="97">3.16539e-12</wgt>
  <wgt id="98">3.17273e-12</wgt>
  <wgt id="99">3.1686e-12</wgt>
  <wgt id="100">3.17469e-12</wgt>
  <wgt id="101">3.17001e-12</wgt>
  <wgt id="102">3.16714e-12</wgt>
  <wgt id="103">3.1771e-12</wgt>
  <wgt id="104">3.16885e-12</wgt>
  <wgt id="105">3.17563e-12</wgt>
  <wgt id="106">3.16591e-12</wgt>
  <wgt id="107">3.18166e-12</wgt>
  <wgt id="108">3.16768e-12</wgt>
  <wgt id="109">3.17163e-12</wgt>
  <wgt id="110">3.17145e-12</wgt>
  <wgt id="111">3.19253e-12</wgt>
  <wgt id="112">3.17905e-12</wgt>
  <wgt id="113">4.43832e-12</wgt>
  <wgt id="114">4.50556e-12</wgt>
  <wgt id="115">4.44133e-12</wgt>
  <wgt id="116">6.50621e-12</wgt>
  <wgt id="117">3.60665e-12</wgt>
  <wgt id="118">3.62121e-12</wgt>
  <wgt id="119">3.59842e-12</wgt>
  <wgt id="120">3.6069e-12</wgt>
  <wgt id="121">3.60657e-12</wgt>
  <wgt id="122">3.60066e-12</wgt>
  <wgt id="123">3.61487e-12</wgt>
  <wgt id="124">3.60171e-12</wgt>
  <wgt id="125">3.60982e-12</wgt>
  <wgt id="126">3.61414e-12</wgt>
  <wgt id="127">3.60164e-12</wgt>
  <wgt id="128">3.618e-12</wgt>
  <wgt id="129">3.59549e-12</wgt>
  <wgt id="130">3.62807e-12</wgt>
  <wgt id="131">3.58481e-12</wgt>
  <wgt id="132">3.50731e-12</wgt>
  <wgt id="133">3.72507e-12</wgt>
  <wgt id="134">3.56488e-12</wgt>
  <wgt id="135">3.63956e-12</wgt>
  <wgt id="136">3.65801e-12</wgt>
  <wgt id="137">3.54471e-12</wgt>
  <wgt id="138">3.76109e-12</wgt>
  <wgt id="139">3.4587e-12</wgt>
  <wgt id="140">3.58439e-12</wgt>
  <wgt id="141">3.62405e-12</wgt>
  <wgt id="142">3.60695e-12</wgt>
  <wgt id="143">3.6134e-12</wgt>
  <wgt id="144">3.48054e-12</wgt>
  <wgt id="145">3.72621e-12</wgt>
  <wgt id="146">3.64731e-12</wgt>
  <wgt id="147">3.57403e-12</wgt>
  <wgt id="148">3.61927e-12</wgt>
  <wgt id="149">3.60582e-12</wgt>
  <wgt id="150">3.6395e-12</wgt>
  <wgt id="151">3.59138e-12</wgt>
  <wgt id="152">3.60876e-12</wgt>
  <wgt id="153">3.60587e-12</wgt>
  <wgt id="154">3.6299e-12</wgt>
  <wgt id="155">3.5775e-12</wgt>
  <wgt id="156">3.70144e-12</wgt>
  <wgt id="157">3.51424e-12</wgt>
  <wgt id="158">4.33547e-12</wgt>
  <wgt id="159">4.35382e-12</wgt>
  <wgt id="160">4.32093e-12</wgt>
  <wgt id="161">4.32334e-12</wgt>
  <wgt id="162">4.34941e-12</wgt>
  <wgt id="163">4.33011e-12</wgt>
  <wgt id="164">4.3436e-12</wgt>
  <wgt id="165">4.33719e-12</wgt>
  <wgt id="166">4.3343e-12</wgt>
  <wgt id="167">4.33245e-12</wgt>
  <wgt id="168">4.34e-12</wgt>
  <wgt id="169">4.31741e-12</wgt>
  <wgt id="170">4.34698e-12</wgt>
  <wgt id="171">4.33029e-12</wgt>
  <wgt id="172">4.34303e-12</wgt>
  <wgt id="173">4.3333e-12</wgt>
  <wgt id="174">4.33632e-12</wgt>
  <wgt id="175">4.20492e-12</wgt>
  <wgt id="176">4.50693e-12</wgt>
  <wgt id="177">4.36135e-12</wgt>
  <wgt id="178">4.31208e-12</wgt>
  <wgt id="179">4.53915e-12</wgt>
  <wgt id="180">4.0174e-12</wgt>
  <wgt id="181">4.19628e-12</wgt>
  <wgt id="182">4.42781e-12</wgt>
  <wgt id="183">4.25085e-12</wgt>
  <wgt id="184">4.37774e-12</wgt>
  <wgt id="185">4.2969e-12</wgt>
  <wgt id="186">4.38434e-12</wgt>
  <wgt id="187">4.29347e-12</wgt>
  <wgt id="188">4.4115e-12</wgt>
  <wgt id="189">4.30405e-12</wgt>
  <wgt id="190">4.34837e-12</wgt>
  <wgt id="191">4.3489e-12</wgt>
  <wgt id="192">4.32761e-12</wgt>
  <wgt id="193">4.40515e-12</wgt>
  <wgt id="194">4.3013e-12</wgt>
  <wgt id="195">4.19513e-12</wgt>
  <wgt id="196">4.56964e-12</wgt>
  <wgt id="197">4.35928e-12</wgt>
  <wgt id="198">4.32999e-12</wgt>
  <wgt id="199">4.33547e-12</wgt>
  <wgt id="200">4.3756e-12</wgt>
  <wgt id="201">4.36144e-12</wgt>
  <wgt id="202">4.34735e-12</wgt>
  <wgt id="203">4.32645e-12</wgt>
  <wgt id="204">4.31655e-12</wgt>
  <wgt id="205">4.30857e-12</wgt>
  <wgt id="206">4.17864e-12</wgt>
  <wgt id="207">4.20355e-12</wgt>
  <wgt id="208">4.15409e-12</wgt>
  <wgt id="209">4.19425e-12</wgt>
  <wgt id="210">4.16748e-12</wgt>
  <wgt id="211">4.17675e-12</wgt>
  <wgt id="212">4.18021e-12</wgt>
  <wgt id="213">4.17831e-12</wgt>
  <wgt id="214">4.17919e-12</wgt>
  <wgt id="215">4.18238e-12</wgt>
  <wgt id="216">4.17601e-12</wgt>
  <wgt id="217">4.19149e-12</wgt>
  <wgt id="218">4.16871e-12</wgt>
  <wgt id="219">4.17622e-12</wgt>
  <wgt id="220">4.1803e-12</wgt>
  <wgt id="221">4.17741e-12</wgt>
  <wgt id="222">4.18176e-12</wgt>
  <wgt id="223">3.94223e-12</wgt>
  <wgt id="224">4.39507e-12</wgt>
  <wgt id="225">4.12367e-12</wgt>
  <wgt id="226">4.24819e-12</wgt>
  <wgt id="227">4.13661e-12</wgt>
  <wgt id="228">4.19713e-12</wgt>
  <wgt id="229">4.11711e-12</wgt>
  <wgt id="230">4.20942e-12</wgt>
  <wgt id="231">4.3085e-12</wgt>
  <wgt id="232">4.07247e-12</wgt>
  <wgt id="233">4.15467e-12</wgt>
  <wgt id="234">4.21808e-12</wgt>
  <wgt id="235">4.06223e-12</wgt>
  <wgt id="236">4.27936e-12</wgt>
  <wgt id="237">4.10517e-12</wgt>
  <wgt id="238">4.20356e-12</wgt>
  <wgt id="239">4.14787e-12</wgt>
  <wgt id="240">4.23422e-12</wgt>
  <wgt id="241">4.13174e-12</wgt>
  <wgt id="242">4.23577e-12</wgt>
  <wgt id="243">4.24933e-12</wgt>
  <wgt id="244">4.19041e-12</wgt>
  <wgt id="245">4.17691e-12</wgt>
  <wgt id="246">4.20627e-12</wgt>
  <wgt id="247">4.17864e-12</wgt>
  <wgt id="248">4.21767e-12</wgt>
  <wgt id="249">4.2029e-12</wgt>
  <wgt id="250">4.18928e-12</wgt>
  <wgt id="251">4.16885e-12</wgt>
  <wgt id="252">4.15929e-12</wgt>
  <wgt id="253">4.15251e-12</wgt>
  <wgt id="254">4.09103e-12</wgt>
  <wgt id="255">4.09478e-12</wgt>
  <wgt id="256">4.0866e-12</wgt>
  <wgt id="257">4.09374e-12</wgt>
  <wgt id="258">4.08891e-12</wgt>
  <wgt id="259">4.11845e-12</wgt>
  <wgt id="260">4.06432e-12</wgt>
  <wgt id="261">4.09894e-12</wgt>
  <wgt id="262">4.08115e-12</wgt>
  <wgt id="263">4.08846e-12</wgt>
  <wgt id="264">4.09378e-12</wgt>
  <wgt id="265">4.08535e-12</wgt>
  <wgt id="266">4.10216e-12</wgt>
  <wgt id="267">4.09234e-12</wgt>
  <wgt id="268">4.08876e-12</wgt>
  <wgt id="269">4.106e-12</wgt>
  <wgt id="270">4.08078e-12</wgt>
  <wgt id="271">4.08353e-12</wgt>
  <wgt id="272">4.09936e-12</wgt>
  <wgt id="273">4.07742e-12</wgt>
  <wgt id="274">4.10111e-12</wgt>
  <wgt id="275">4.07134e-12</wgt>
  <wgt id="276">4.11125e-12</wgt>
  <wgt id="277">4.06607e-12</wgt>
  <wgt id="278">4.11371e-12</wgt>
  <wgt id="279">4.00633e-12</wgt>
  <wgt id="280">4.19724e-12</wgt>
  <wgt id="281">4.07089e-12</wgt>
  <wgt id="282">4.0928e-12</wgt>
  <wgt id="283">3.96316e-12</wgt>
  <wgt id="284">4.2489e-12</wgt>
  <wgt id="285">3.88054e-12</wgt>
  <wgt id="286">4.26634e-12</wgt>
  <wgt id="287">4.10478e-12</wgt>
  <wgt id="288">4.07323e-12</wgt>
  <wgt id="289">4.12215e-12</wgt>
  <wgt id="290">4.01961e-12</wgt>
  <wgt id="291">4.0775e-12</wgt>
  <wgt id="292">4.0937e-12</wgt>
  <wgt id="293">4.05657e-12</wgt>
  <wgt id="294">4.12502e-12</wgt>
  <wgt id="295">4.00774e-12</wgt>
  <wgt id="296">4.19256e-12</wgt>
  <wgt id="297">4.087e-12</wgt>
  <wgt id="298">4.11023e-12</wgt>
  <wgt id="299">4.07633e-12</wgt>
  <wgt id="300">4.12918e-12</wgt>
  <wgt id="301">4.01586e-12</wgt>
  <wgt id="302">4.26675e-12</wgt>
  <wgt id="303">4.0518e-12</wgt>
  <wgt id="304">4.11309e-12</wgt>
  <wgt id="305">4.09085e-12</wgt>
  <wgt id="306">4.09525e-12</wgt>
  <wgt id="307">4.08622e-12</wgt>
  <wgt id="308">4.09413e-12</wgt>
  <wgt id="309">4.08888e-12</wgt>
  <wgt id="310">4.11952e-12</wgt>
  <wgt id="311">4.06449e-12</wgt>
  <wgt id="312">4.09815e-12</wgt>
  <wgt id="313">4.08332e-12</wgt>
  <wgt id="314">4.08844e-12</wgt>
  <wgt id="315">4.09323e-12</wgt>
  <wgt id="316">4.08541e-12</wgt>
  <wgt id="317">4.10276e-12</wgt>
  <wgt id="318">4.09438e-12</wgt>
  <wgt id="319">4.08498e-12</wgt>
  <wgt id="320">4.10691e-12</wgt>
  <wgt id="321">4.08213e-12</wgt>
  <wgt id="322">4.08157e-12</wgt>
  <wgt id="323">4.10176e-12</wgt>
  <wgt id="324">4.0797e-12</wgt>
  <wgt id="325">4.10074e-12</wgt>
  <wgt id="326">4.07525e-12</wgt>
  <wgt id="327">4.11104e-12</wgt>
  <wgt id="328">4.06897e-12</wgt>
  <wgt id="329">4.10321e-12</wgt>
  <wgt id="330">4.21912e-12</wgt>
  <wgt id="331">3.96901e-12</wgt>
  <wgt id="332">4.07401e-12</wgt>
  <wgt id="333">4.09186e-12</wgt>
  <wgt id="334">3.9912e-12</wgt>
  <wgt id="335">4.2153e-12</wgt>
  <wgt id="336">3.93875e-12</wgt>
  <wgt id="337">4.27732e-12</wgt>
  <wgt id="338">4.13974e-12</wgt>
  <wgt id="339">4.04592e-12</wgt>
  <wgt id="340">4.11998e-12</wgt>
  <wgt id="341">4.01691e-12</wgt>
  <wgt id="342">4.08113e-12</wgt>
  <wgt id="343">4.08644e-12</wgt>
  <wgt id="344">4.06012e-12</wgt>
  <wgt id="345">4.12668e-12</wgt>
  <wgt id="346">4.00469e-12</wgt>
  <wgt id="347">4.19032e-12</wgt>
  <wgt id="348">4.08806e-12</wgt>
  <wgt id="349">4.10788e-12</wgt>
  <wgt id="350">4.07288e-12</wgt>
  <wgt id="351">4.13654e-12</wgt>
  <wgt id="352">4.00896e-12</wgt>
  <wgt id="353">4.27202e-12</wgt>
  <wgt id="354">4.0318e-12</wgt>
  <wgt id="355">4.12638e-12</wgt>
  <wgt id="356">4.09103e-12</wgt>
  <wgt id="357">4.10433e-12</wgt>
  <wgt id="358">4.09085e-12</wgt>
  <wgt id="359">4.1018e-12</wgt>
  <wgt id="360">4.1311e-12</wgt>
  <wgt id="361">4.10678e-12</wgt>
  <wgt id="362">4.18529e-12</wgt>
  <wgt id="363">4.1741e-12</wgt>
  <wgt id="364">4.1576e-12</wgt>
  <wgt id="365">4.14202e-12</wgt>
  <wgt id="366">4.12526e-12</wgt>
  <wgt id="367">4.09168e-12</wgt>
  <wgt id="368">4.07276e-12</wgt>
  <wgt id="369">4.05231e-12</wgt>
  <wgt id="370">4.10678e-12</wgt>
  <wgt id="371">4.12564e-12</wgt>
  <wgt id="372">4.11529e-12</wgt>
  <wgt id="373">4.09987e-12</wgt>
  <wgt id="374">4.10015e-12</wgt>
  <wgt id="375">4.45321e-12</wgt>
  <wgt id="376">4.4538e-12</wgt>
  <wgt id="377">4.45215e-12</wgt>
  <wgt id="378">4.46962e-12</wgt>
  <wgt id="379">4.43661e-12</wgt>
  <wgt id="380">4.46473e-12</wgt>
  <wgt id="381">4.44849e-12</wgt>
  <wgt id="382">4.47861e-12</wgt>
  <wgt id="383">4.42788e-12</wgt>
  <wgt id="384">4.45609e-12</wgt>
  <wgt id="385">4.45023e-12</wgt>
  <wgt id="386">4.47298e-12</wgt>
  <wgt id="387">4.44454e-12</wgt>
  <wgt id="388">4.4484e-12</wgt>
  <wgt id="389">4.4586e-12</wgt>
  <wgt id="390">4.46626e-12</wgt>
  <wgt id="391">4.4393e-12</wgt>
  <wgt id="392">4.41316e-12</wgt>
  <wgt id="393">4.47583e-12</wgt>
  <wgt id="394">4.45922e-12</wgt>
  <wgt id="395">4.44474e-12</wgt>
  <wgt id="396">4.4586e-12</wgt>
  <wgt id="397">4.44932e-12</wgt>
  <wgt id="398">4.43173e-12</wgt>
  <wgt id="399">4.47392e-12</wgt>
  <wgt id="400">4.44456e-12</wgt>
  <wgt id="401">4.47243e-12</wgt>
  <wgt id="402">4.41271e-12</wgt>
  <wgt id="403">4.47271e-12</wgt>
  <wgt id="404">4.56777e-12</wgt>
  <wgt id="405">4.17834e-12</wgt>
  <wgt id="406">4.37127e-12</wgt>
  <wgt id="407">4.63205e-12</wgt>
  <wgt id="408">4.49535e-12</wgt>
  <wgt id="409">4.37318e-12</wgt>
  <wgt id="410">4.3198e-12</wgt>
  <wgt id="411">4.51579e-12</wgt>
  <wgt id="412">4.44429e-12</wgt>
  <wgt id="413">4.46704e-12</wgt>
  <wgt id="414">4.39973e-12</wgt>
  <wgt id="415">4.49475e-12</wgt>
  <wgt id="416">4.58866e-12</wgt>
  <wgt id="417">4.26654e-12</wgt>
  <wgt id="418">4.45992e-12</wgt>
  <wgt id="419">4.41719e-12</wgt>
  <wgt id="420">4.54237e-12</wgt>
  <wgt id="421">4.39819e-12</wgt>
  <wgt id="422">4.43776e-12</wgt>
  <wgt id="423">4.4609e-12</wgt>
  <wgt id="424">4.56516e-12</wgt>
  <wgt id="425">4.38066e-12</wgt>
  <wgt id="426">4.45321e-12</wgt>
  <wgt id="427">4.40104e-12</wgt>
  <wgt id="428">4.59873e-12</wgt>
  <wgt id="429">4.50218e-12</wgt>
  <wgt id="430">4.63961e-12</wgt>
  <wgt id="431">4.61186e-12</wgt>
  <wgt id="432">4.58621e-12</wgt>
  <wgt id="433">4.56101e-12</wgt>
  <wgt id="434">4.5301e-12</wgt>
  <wgt id="435">4.46729e-12</wgt>
  <wgt id="436">4.43526e-12</wgt>
  <wgt id="437">4.40442e-12</wgt>
  <wgt id="438">4.50218e-12</wgt>
  <wgt id="439">4.51703e-12</wgt>
  <wgt id="440">4.50818e-12</wgt>
  <wgt id="441">4.49781e-12</wgt>
  <wgt id="442">4.49426e-12</wgt>
  <wgt id="443">4.29819e-12</wgt>
  <wgt id="444">4.32871e-12</wgt>
  <wgt id="445">4.27964e-12</wgt>
  <wgt id="446">4.26845e-12</wgt>
  <wgt id="447">4.2819e-12</wgt>
  <wgt id="448">4.17415e-12</wgt>
  <wgt id="449">4.37226e-12</wgt>
  <wgt id="450">4.28697e-12</wgt>
  <wgt id="451">4.28958e-12</wgt>
  <wgt id="452">4.4074e-12</wgt>
  <wgt id="453">4.34906e-12</wgt>
  <wgt id="454">4.11483e-12</wgt>
  <wgt id="455">4.3045e-12</wgt>
  <wgt id="456">4.2841e-12</wgt>
  <wgt id="457">4.31927e-12</wgt>
  <wgt id="458">4.35301e-12</wgt>
  <wgt id="459">4.33026e-12</wgt>
  <wgt id="460">4.32516e-12</wgt>
  <wgt id="461">4.20427e-12</wgt>
  <wgt id="462">4.25577e-12</wgt>
  <wgt id="463">4.24396e-12</wgt>
  <wgt id="464">4.2681e-12</wgt>
  <wgt id="465">4.35216e-12</wgt>
  <wgt id="466">4.23922e-12</wgt>
  <wgt id="467">4.24915e-12</wgt>
  <wgt id="468">4.28458e-12</wgt>
  <wgt id="469">4.28275e-12</wgt>
  <wgt id="470">4.25513e-12</wgt>
  <wgt id="471">4.25272e-12</wgt>
  <wgt id="472">4.32227e-12</wgt>
  <wgt id="473">4.13328e-12</wgt>
  <wgt id="474">3.0282e-12</wgt>
  <wgt id="475">3.20172e-12</wgt>
  <wgt id="476">2.95021e-12</wgt>
  <wgt id="477">2.87372e-12</wgt>
  <wgt id="478">3.04161e-12</wgt>
  <wgt id="479">2.94244e-12</wgt>
  <wgt id="480">3.164e-12</wgt>
  <wgt id="481">2.98783e-12</wgt>
  <wgt id="482">2.93468e-12</wgt>
  <wgt id="483">2.94521e-12</wgt>
  <wgt id="484">3.20407e-12</wgt>
  <wgt id="485">3.00569e-12</wgt>
  <wgt id="486">3.15397e-12</wgt>
  <wgt id="487">3.10377e-12</wgt>
  <wgt id="488">3.08354e-12</wgt>
  <wgt id="489">2.92921e-12</wgt>
  <wgt id="490">2.91931e-12</wgt>
  <wgt id="491">2.9945e-12</wgt>
  <wgt id="492">2.94008e-12</wgt>
  <wgt id="493">2.89978e-12</wgt>
  <wgt id="494">2.93304e-12</wgt>
  <wgt id="495">3.10726e-12</wgt>
  <wgt id="496">2.93114e-12</wgt>
  <wgt id="497">2.89256e-12</wgt>
  <wgt id="498">3.08809e-12</wgt>
  <wgt id="499">2.96057e-12</wgt>
  <wgt id="500">2.98562e-12</wgt>
  <wgt id="501">3.18212e-12</wgt>
  <wgt id="502">2.96813e-12</wgt>
  <wgt id="503">3.03486e-12</wgt>
  <wgt id="504">3.08622e-12</wgt>
  <wgt id="505">2.949e-12</wgt>
  <wgt id="506">3.12093e-12</wgt>
  <wgt id="507">3.01152e-12</wgt>
  <wgt id="508">3.07401e-12</wgt>
  <wgt id="509">2.88645e-12</wgt>
  <wgt id="510">3.12637e-12</wgt>
  <wgt id="511">2.96925e-12</wgt>
  <wgt id="512">3.09615e-12</wgt>
  <wgt id="513">3.19899e-12</wgt>
  <wgt id="514">3.01854e-12</wgt>
  <wgt id="515">2.98794e-12</wgt>
  <wgt id="516">3.13468e-12</wgt>
  <wgt id="517">3.08744e-12</wgt>
  <wgt id="518">3.08992e-12</wgt>
  <wgt id="519">2.91904e-12</wgt>
  <wgt id="520">3.08213e-12</wgt>
  <wgt id="521">3.12116e-12</wgt>
  <wgt id="522">3.15324e-12</wgt>
  <wgt id="523">3.10064e-12</wgt>
  <wgt id="524">3.05323e-12</wgt>
  <wgt id="525">3.14963e-12</wgt>
  <wgt id="526">3.06457e-12</wgt>
  <wgt id="527">3.05908e-12</wgt>
  <wgt id="528">3.06713e-12</wgt>
  <wgt id="529">2.95518e-12</wgt>
  <wgt id="530">3.08242e-12</wgt>
  <wgt id="531">3.00221e-12</wgt>
  <wgt id="532">3.22166e-12</wgt>
  <wgt id="533">2.85571e-12</wgt>
  <wgt id="534">3.05062e-12</wgt>
  <wgt id="535">3.09825e-12</wgt>
  <wgt id="536">2.99052e-12</wgt>
  <wgt id="537">3.03496e-12</wgt>
  <wgt id="538">3.04308e-12</wgt>
  <wgt id="539">2.98621e-12</wgt>
  <wgt id="540">2.94181e-12</wgt>
  <wgt id="541">2.90348e-12</wgt>
  <wgt id="542">2.99709e-12</wgt>
  <wgt id="543">3.02247e-12</wgt>
  <wgt id="544">3.17806e-12</wgt>
  <wgt id="545">2.98716e-12</wgt>
  <wgt id="546">2.97283e-12</wgt>
  <wgt id="547">2.93421e-12</wgt>
  <wgt id="548">2.90361e-12</wgt>
  <wgt id="549">2.96596e-12</wgt>
  <wgt id="550">2.96098e-12</wgt>
  <wgt id="551">3.05078e-12</wgt>
  <wgt id="552">2.99119e-12</wgt>
  <wgt id="553">3.01352e-12</wgt>
  <wgt id="554">3.24725e-12</wgt>
  <wgt id="555">3.0967e-12</wgt>
  <wgt id="556">2.91931e-12</wgt>
  <wgt id="557">3.08891e-12</wgt>
  <wgt id="558">2.93384e-12</wgt>
  <wgt id="559">2.97973e-12</wgt>
  <wgt id="560">3.30874e-12</wgt>
  <wgt id="561">2.98688e-12</wgt>
  <wgt id="562">3.09519e-12</wgt>
  <wgt id="563">2.93685e-12</wgt>
  <wgt id="564">3.04504e-12</wgt>
  <wgt id="565">2.89786e-12</wgt>
  <wgt id="566">3.09785e-12</wgt>
  <wgt id="567">2.99297e-12</wgt>
  <wgt id="568">2.99892e-12</wgt>
  <wgt id="569">3.12394e-12</wgt>
  <wgt id="570">2.89934e-12</wgt>
  <wgt id="571">3.36876e-12</wgt>
  <wgt id="572">2.95331e-12</wgt>
  <wgt id="573">2.89752e-12</wgt>
  <wgt id="574">2.91964e-12</wgt>
  <wgt id="575">3.35983e-12</wgt>
  <wgt id="576">3.37309e-12</wgt>
  <wgt id="577">3.41892e-12</wgt>
  <wgt id="578">3.4836e-12</wgt>
  <wgt id="579">3.45264e-12</wgt>
  <wgt id="580">3.45089e-12</wgt>
  <wgt id="581">3.60836e-12</wgt>
  <wgt id="582">3.36689e-12</wgt>
  <wgt id="583">3.4027e-12</wgt>
  <wgt id="584">3.3654e-12</wgt>
  <wgt id="585">3.36949e-12</wgt>
  <wgt id="586">3.28128e-12</wgt>
  <wgt id="587">3.42195e-12</wgt>
  <wgt id="588">3.35429e-12</wgt>
  <wgt id="589">3.46762e-12</wgt>
  <wgt id="590">3.4191e-12</wgt>
  <wgt id="591">3.47841e-12</wgt>
  <wgt id="592">3.25887e-12</wgt>
  <wgt id="593">3.34518e-12</wgt>
  <wgt id="594">3.41518e-12</wgt>
  <wgt id="595">3.36494e-12</wgt>
  <wgt id="596">3.38036e-12</wgt>
  <wgt id="597">3.28893e-12</wgt>
  <wgt id="598">3.19354e-12</wgt>
  <wgt id="599">3.54594e-12</wgt>
  <wgt id="600">3.33184e-12</wgt>
  <wgt id="601">3.26637e-12</wgt>
  <wgt id="602">3.27075e-12</wgt>
  <wgt id="603">3.26825e-12</wgt>
  <wgt id="604">3.41853e-12</wgt>
  <wgt id="605">3.49382e-12</wgt>
  <wgt id="606">3.30245e-12</wgt>
  <wgt id="607">3.32989e-12</wgt>
  <wgt id="608">3.43323e-12</wgt>
  <wgt id="609">3.19941e-12</wgt>
  <wgt id="610">3.23919e-12</wgt>
  <wgt id="611">3.36142e-12</wgt>
  <wgt id="612">3.56968e-12</wgt>
  <wgt id="613">3.33388e-12</wgt>
  <wgt id="614">3.40667e-12</wgt>
  <wgt id="615">3.29355e-12</wgt>
  <wgt id="616">3.50361e-12</wgt>
  <wgt id="617">3.49478e-12</wgt>
  <wgt id="618">3.51903e-12</wgt>
  <wgt id="619">3.29485e-12</wgt>
  <wgt id="620">3.54399e-12</wgt>
  <wgt id="621">3.39963e-12</wgt>
  <wgt id="622">3.42195e-12</wgt>
  <wgt id="623">3.46866e-12</wgt>
  <wgt id="624">3.36387e-12</wgt>
  <wgt id="625">3.31533e-12</wgt>
  <wgt id="626">3.25496e-12</wgt>
  <wgt id="627">3.20387e-12</wgt>
  <wgt id="628">3.56438e-12</wgt>
  <wgt id="629">3.27888e-12</wgt>
  <wgt id="630">3.19636e-12</wgt>
  <wgt id="631">3.39764e-12</wgt>
  <wgt id="632">3.20739e-12</wgt>
  <wgt id="633">3.33081e-12</wgt>
  <wgt id="634">3.31764e-12</wgt>
  <wgt id="635">3.23178e-12</wgt>
  <wgt id="636">3.38092e-12</wgt>
  <wgt id="637">3.32433e-12</wgt>
  <wgt id="638">3.21476e-12</wgt>
  <wgt id="639">3.30006e-12</wgt>
  <wgt id="640">3.35225e-12</wgt>
  <wgt id="641">3.40481e-12</wgt>
  <wgt id="642">3.13197e-12</wgt>
  <wgt id="643">3.32829e-12</wgt>
  <wgt id="644">3.18948e-12</wgt>
  <wgt id="645">3.40414e-12</wgt>
  <wgt id="646">3.37334e-12</wgt>
  <wgt id="647">3.33341e-12</wgt>
  <wgt id="648">3.39081e-12</wgt>
  <wgt id="649">3.41032e-12</wgt>
  <wgt id="650">3.28922e-12</wgt>
  <wgt id="651">3.36069e-12</wgt>
  <wgt id="652">3.31134e-12</wgt>
  <wgt id="653">3.25494e-12</wgt>
  <wgt id="654">3.33105e-12</wgt>
  <wgt id="655">3.32664e-12</wgt>
  <wgt id="656">3.41007e-12</wgt>
  <wgt id="657">3.54956e-12</wgt>
  <wgt id="658">3.32141e-12</wgt>
  <wgt id="659">3.21334e-12</wgt>
  <wgt id="660">3.42387e-12</wgt>
  <wgt id="661">3.29535e-12</wgt>
  <wgt id="662">3.37434e-12</wgt>
  <wgt id="663">3.37389e-12</wgt>
  <wgt id="664">3.31966e-12</wgt>
  <wgt id="665">3.35206e-12</wgt>
  <wgt id="666">3.30868e-12</wgt>
  <wgt id="667">3.46846e-12</wgt>
  <wgt id="668">3.37019e-12</wgt>
  <wgt id="669">3.43699e-12</wgt>
  <wgt id="670">3.46269e-12</wgt>
  <wgt id="671">3.35855e-12</wgt>
  <wgt id="672">3.21938e-12</wgt>
  <wgt id="673">3.39824e-12</wgt>
  <wgt id="674">3.2993e-12</wgt>
  <wgt id="675">3.34085e-12</wgt>
  <wgt id="676">4.32265e-12</wgt>
  <wgt id="677">4.35704e-12</wgt>
  <wgt id="678">4.54934e-12</wgt>
  <wgt id="679">3.97723e-12</wgt>
  <wgt id="680">4.2737e-12</wgt>
  <wgt id="681">4.38185e-12</wgt>
  <wgt id="682">4.52335e-12</wgt>
  <wgt id="683">4.23189e-12</wgt>
  <wgt id="684">4.53272e-12</wgt>
  <wgt id="685">4.09682e-12</wgt>
  <wgt id="686">4.13925e-12</wgt>
  <wgt id="687">4.56682e-12</wgt>
  <wgt id="688">4.31519e-12</wgt>
  <wgt id="689">4.73211e-12</wgt>
  <wgt id="690">4.51851e-12</wgt>
  <wgt id="691">4.62718e-12</wgt>
  <wgt id="692">4.23796e-12</wgt>
  <wgt id="693">5.21272e-12</wgt>
  <wgt id="694">4.60421e-12</wgt>
  <wgt id="695">4.192e-12</wgt>
  <wgt id="696">4.06077e-12</wgt>
  <wgt id="697">4.2188e-12</wgt>
  <wgt id="698">3.86019e-12</wgt>
  <wgt id="699">3.85121e-12</wgt>
  <wgt id="700">3.687e-12</wgt>
  <wgt id="701">4.34534e-12</wgt>
  <wgt id="702">4.22387e-12</wgt>
  <wgt id="703">5.05655e-12</wgt>
  <wgt id="704">4.81593e-12</wgt>
  <wgt id="705">4.56193e-12</wgt>
  <wgt id="706">4.0154e-12</wgt>
  <wgt id="707">4.13379e-12</wgt>
  <wgt id="708">4.25663e-12</wgt>
  <wgt id="709">4.23839e-12</wgt>
  <wgt id="710">3.87706e-12</wgt>
  <wgt id="711">4.27662e-12</wgt>
  <wgt id="712">4.22082e-12</wgt>
  <wgt id="713">4.75495e-12</wgt>
  <wgt id="714">4.19132e-12</wgt>
  <wgt id="715">4.2755e-12</wgt>
  <wgt id="716">4.14152e-12</wgt>
  <wgt id="717">4.07265e-12</wgt>
  <wgt id="718">4.37999e-12</wgt>
  <wgt id="719">3.87968e-12</wgt>
  <wgt id="720">4.03673e-12</wgt>
  <wgt id="721">3.84118e-12</wgt>
  <wgt id="722">3.73159e-12</wgt>
  <wgt id="723">4.66959e-12</wgt>
  <wgt id="724">4.57263e-12</wgt>
  <wgt id="725">4.55832e-12</wgt>
  <wgt id="726">4.35653e-12</wgt>
  <wgt id="727">4.21955e-12</wgt>
  <wgt id="728">4.17173e-12</wgt>
  <wgt id="729">3.94798e-12</wgt>
  <wgt id="730">4.76546e-12</wgt>
  <wgt id="731">4.25431e-12</wgt>
  <wgt id="732">4.80908e-12</wgt>
  <wgt id="733">4.30848e-12</wgt>
  <wgt id="734">4.43629e-12</wgt>
  <wgt id="735">4.30983e-12</wgt>
  <wgt id="736">4.202e-12</wgt>
  <wgt id="737">4.39202e-12</wgt>
  <wgt id="738">4.04002e-12</wgt>
  <wgt id="739">4.47702e-12</wgt>
  <wgt id="740">4.8508e-12</wgt>
  <wgt id="741">3.8567e-12</wgt>
  <wgt id="742">4.24719e-12</wgt>
  <wgt id="743">4.04445e-12</wgt>
  <wgt id="744">4.22959e-12</wgt>
  <wgt id="745">4.57464e-12</wgt>
  <wgt id="746">4.67707e-12</wgt>
  <wgt id="747">3.81738e-12</wgt>
  <wgt id="748">4.28466e-12</wgt>
  <wgt id="749">4.53797e-12</wgt>
  <wgt id="750">4.5116e-12</wgt>
  <wgt id="751">4.44056e-12</wgt>
  <wgt id="752">3.91284e-12</wgt>
  <wgt id="753">4.09137e-12</wgt>
  <wgt id="754">4.62085e-12</wgt>
  <wgt id="755">4.3224e-12</wgt>
  <wgt id="756">4.35482e-12</wgt>
  <wgt id="757">3.91334e-12</wgt>
  <wgt id="758">4.33776e-12</wgt>
  <wgt id="759">4.53242e-12</wgt>
  <wgt id="760">4.33885e-12</wgt>
  <wgt id="761">4.56594e-12</wgt>
  <wgt id="762">4.62621e-12</wgt>
  <wgt id="763">4.27596e-12</wgt>
  <wgt id="764">4.52693e-12</wgt>
  <wgt id="765">4.45749e-12</wgt>
  <wgt id="766">4.32743e-12</wgt>
  <wgt id="767">4.45431e-12</wgt>
  <wgt id="768">4.02914e-12</wgt>
  <wgt id="769">4.61425e-12</wgt>
  <wgt id="770">4.18096e-12</wgt>
  <wgt id="771">5.20891e-12</wgt>
  <wgt id="772">4.08964e-12</wgt>
  <wgt id="773">4.2708e-12</wgt>
  <wgt id="774">3.74188e-12</wgt>
  <wgt id="775">4.61663e-12</wgt>
  <wgt id="776">4.73773e-12</wgt>
  <wgt id="777">4.0014e-12</wgt>
  <wgt id="778">3.08682e-12</wgt>
  <wgt id="779">2.44372e-12</wgt>
  <wgt id="780">1.85717e-12</wgt>
  <wgt id="781">3.27133e-12</wgt>
  <wgt id="782">3.29307e-12</wgt>
  <wgt id="783">2.44354e-12</wgt>
  <wgt id="784">2.60027e-12</wgt>
  <wgt id="785">3.88642e-12</wgt>
  <wgt id="786">2.29595e-12</wgt>
  <wgt id="787">3.64376e-12</wgt>
  <wgt id="788">1.71291e-12</wgt>
  <wgt id="789">2.40927e-12</wgt>
  <wgt id="790">2.23541e-12</wgt>
  <wgt id="791">2.94198e-12</wgt>
  <wgt id="792">4.14325e-12</wgt>
  <wgt id="793">3.05309e-12</wgt>
  <wgt id="794">2.18424e-12</wgt>
  <wgt id="795">3.8142e-12</wgt>
  <wgt id="796">4.18605e-12</wgt>
  <wgt id="797">3.73103e-12</wgt>
  <wgt id="798">2.75994e-12</wgt>
  <wgt id="799">3.61751e-12</wgt>
  <wgt id="800">2.43969e-12</wgt>
  <wgt id="801">2.81897e-12</wgt>
  <wgt id="802">2.18607e-12</wgt>
  <wgt id="803">4.08593e-12</wgt>
  <wgt id="804">3.77641e-12</wgt>
  <wgt id="805">3.83876e-12</wgt>
  <wgt id="806">3.41691e-12</wgt>
  <wgt id="807">2.89528e-12</wgt>
  <wgt id="808">2.97865e-12</wgt>
  <wgt id="809">2.82144e-12</wgt>
  <wgt id="810">3.50156e-12</wgt>
  <wgt id="811">3.41354e-12</wgt>
  <wgt id="812">2.17343e-12</wgt>
  <wgt id="813">2.26765e-12</wgt>
  <wgt id="814">2.6489e-12</wgt>
  <wgt id="815">2.44182e-12</wgt>
  <wgt id="816">2.10802e-12</wgt>
  <wgt id="817">3.22295e-12</wgt>
  <wgt id="818">3.18019e-12</wgt>
  <wgt id="819">2.42609e-12</wgt>
  <wgt id="820">3.07445e-12</wgt>
  <wgt id="821">3.6797e-12</wgt>
  <wgt id="822">2.39243e-12</wgt>
  <wgt id="823">3.73309e-12</wgt>
  <wgt id="824">4.28101e-12</wgt>
  <wgt id="825">2.11508e-12</wgt>
  <wgt id="826">3.39125e-12</wgt>
  <wgt id="827">1.68121e-12</wgt>
  <wgt id="828">3.98716e-12</wgt>
  <wgt id="829">3.26679e-12</wgt>
  <wgt id="830">1.99357e-12</wgt>
  <wgt id="831">3.40823e-12</wgt>
  <wgt id="832">5.35387e-12</wgt>
  <wgt id="833">2.77347e-12</wgt>
  <wgt id="834">4.98537e-12</wgt>
  <wgt id="835">2.43213e-12</wgt>
  <wgt id="836">2.99478e-12</wgt>
  <wgt id="837">3.62664e-12</wgt>
  <wgt id="838">2.90045e-12</wgt>
  <wgt id="839">3.37233e-12</wgt>
  <wgt id="840">2.79714e-12</wgt>
  <wgt id="841">4.03285e-12</wgt>
  <wgt id="842">2.72421e-12</wgt>
  <wgt id="843">3.1049e-12</wgt>
  <wgt id="844">3.29437e-12</wgt>
  <wgt id="845">4.66616e-12</wgt>
  <wgt id="846">2.92571e-12</wgt>
  <wgt id="847">3.23435e-12</wgt>
  <wgt id="848">2.51068e-12</wgt>
  <wgt id="849">3.19833e-12</wgt>
  <wgt id="850">4.27839e-12</wgt>
  <wgt id="851">3.45315e-12</wgt>
  <wgt id="852">2.49636e-12</wgt>
  <wgt id="853">3.49264e-12</wgt>
  <wgt id="854">3.91129e-12</wgt>
  <wgt id="855">3.75907e-12</wgt>
  <wgt id="856">2.048e-12</wgt>
  <wgt id="857">3.03538e-12</wgt>
  <wgt id="858">3.0472e-12</wgt>
  <wgt id="859">2.84522e-12</wgt>
  <wgt id="860">3.48485e-12</wgt>
  <wgt id="861">2.58866e-12</wgt>
  <wgt id="862">3.17302e-12</wgt>
  <wgt id="863">3.36293e-12</wgt>
  <wgt id="864">3.36245e-12</wgt>
  <wgt id="865">4.73469e-12</wgt>
  <wgt id="866">5.18494e-12</wgt>
  <wgt id="867">3.22672e-12</wgt>
  <wgt id="868">3.11525e-12</wgt>
  <wgt id="869">2.25667e-12</wgt>
  <wgt id="870">2.38031e-12</wgt>
  <wgt id="871">2.29925e-12</wgt>
  <wgt id="872">3.90256e-12</wgt>
  <wgt id="873">2.45098e-12</wgt>
  <wgt id="874">3.32791e-12</wgt>
  <wgt id="875">2.63018e-12</wgt>
  <wgt id="876">3.91051e-12</wgt>
  <wgt id="877">3.68314e-12</wgt>
  <wgt id="878">2.51407e-12</wgt>
  <wgt id="879">4.32265e-12</wgt>
  <wgt id="880">4.35704e-12</wgt>
  <wgt id="881">4.54934e-12</wgt>
  <wgt id="882">3.97723e-12</wgt>
  <wgt id="883">4.2737e-12</wgt>
  <wgt id="884">4.38185e-12</wgt>
  <wgt id="885">4.52335e-12</wgt>
  <wgt id="886">4.23189e-12</wgt>
  <wgt id="887">4.53272e-12</wgt>
  <wgt id="888">4.09682e-12</wgt>
  <wgt id="889">4.13925e-12</wgt>
  <wgt id="890">4.56682e-12</wgt>
  <wgt id="891">4.31519e-12</wgt>
  <wgt id="892">4.73211e-12</wgt>
  <wgt id="893">4.51851e-12</wgt>
  <wgt id="894">4.62718e-12</wgt>
  <wgt id="895">4.23796e-12</wgt>
  <wgt id="896">5.21272e-12</wgt>
  <wgt id="897">4.60421e-12</wgt>
  <wgt id="898">4.192e-12</wgt>
  <wgt id="899">4.06077e-12</wgt>
  <wgt id="900">4.2188e-12</wgt>
  <wgt id="901">3.86019e-12</wgt>
  <wgt id="902">3.85121e-12</wgt>
  <wgt id="903">3.687e-12</wgt>
  <wgt id="904">4.34534e-12</wgt>
  <wgt id="905">4.22387e-12</wgt>
  <wgt id="906">5.05655e-12</wgt>
  <wgt id="907">4.81593e-12</wgt>
  <wgt id="908">4.56193e-12</wgt>
  <wgt id="909">4.0154e-12</wgt>
  <wgt id="910">4.13379e-12</wgt>
  <wgt id="911">4.25663e-12</wgt>
  <wgt id="912">4.23839e-12</wgt>
  <wgt id="913">3.87706e-12</wgt>
  <wgt id="914">4.27662e-12</wgt>
  <wgt id="915">4.22082e-12</wgt>
  <wgt id="916">4.75495e-12</wgt>
  <wgt id="917">4.19132e-12</wgt>
  <wgt id="918">4.2755e-12</wgt>
  <wgt id="919">4.14152e-12</wgt>
  <wgt id="920">4.07265e-12</wgt>
  <wgt id="921">4.37999e-12</wgt>
  <wgt id="922">3.87968e-12</wgt>
  <wgt id="923">4.03673e-12</wgt>
  <wgt id="924">3.84118e-12</wgt>
  <wgt id="925">3.73159e-12</wgt>
  <wgt id="926">4.66959e-12</wgt>
  <wgt id="927">4.57263e-12</wgt>
  <wgt id="928">4.55832e-12</wgt>
  <wgt id="929">4.35653e-12</wgt>
  <wgt id="930">4.21955e-12</wgt>
  <wgt id="931">4.17173e-12</wgt>
  <wgt id="932">3.94798e-12</wgt>
  <wgt id="933">4.76546e-12</wgt>
  <wgt id="934">4.25431e-12</wgt>
  <wgt id="935">4.80908e-12</wgt>
  <wgt id="936">4.30848e-12</wgt>
  <wgt id="937">4.43629e-12</wgt>
  <wgt id="938">4.30983e-12</wgt>
  <wgt id="939">4.202e-12</wgt>
  <wgt id="940">4.39202e-12</wgt>
  <wgt id="941">4.04002e-12</wgt>
  <wgt id="942">4.47702e-12</wgt>
  <wgt id="943">4.8508e-12</wgt>
  <wgt id="944">3.8567e-12</wgt>
  <wgt id="945">4.24719e-12</wgt>
  <wgt id="946">4.04445e-12</wgt>
  <wgt id="947">4.22959e-12</wgt>
  <wgt id="948">4.57464e-12</wgt>
  <wgt id="949">4.67707e-12</wgt>
  <wgt id="950">3.81738e-12</wgt>
  <wgt id="951">4.28466e-12</wgt>
  <wgt id="952">4.53797e-12</wgt>
  <wgt id="953">4.5116e-12</wgt>
  <wgt id="954">4.44056e-12</wgt>
  <wgt id="955">3.91284e-12</wgt>
  <wgt id="956">4.09137e-12</wgt>
  <wgt id="957">4.62085e-12</wgt>
  <wgt id="958">4.3224e-12</wgt>
  <wgt id="959">4.35482e-12</wgt>
  <wgt id="960">3.91334e-12</wgt>
  <wgt id="961">4.33776e-12</wgt>
  <wgt id="962">4.53242e-12</wgt>
  <wgt id="963">4.33885e-12</wgt>
  <wgt id="964">4.56594e-12</wgt>
  <wgt id="965">4.62621e-12</wgt>
  <wgt id="966">4.27596e-12</wgt>
  <wgt id="967">4.52693e-12</wgt>
  <wgt id="968">4.45749e-12</wgt>
  <wgt id="969">4.32743e-12</wgt>
  <wgt id="970">4.45431e-12</wgt>
  <wgt id="971">4.02914e-12</wgt>
  <wgt id="972">4.61425e-12</wgt>
  <wgt id="973">4.18096e-12</wgt>
  <wgt id="974">5.20891e-12</wgt>
  <wgt id="975">4.08964e-12</wgt>
  <wgt id="976">4.2708e-12</wgt>
  <wgt id="977">3.74188e-12</wgt>
  <wgt id="978">4.61663e-12</wgt>
  <wgt id="979">4.73773e-12</wgt>
  <wgt id="980">4.30859e-12</wgt>
  <wgt id="981">4.36281e-12</wgt>
  <wgt id="982">4.19035e-12</wgt>
</rwgt>
</event>
<event>
 5   1  0.3028200E-11  0.2369854E+04  0.7818608E-02  0.7687758E-01
       21   -1    0    0  502  501  0.00000000000E+00  0.00000000000E+00  0.10225740659E+04  0.10225740659E+04  0.00000000000E+00 0. -1.
       21   -1    0    0  501  502 -0.00000000000E+00 -0.00000000000E+00 -0.13730561804E+04  0.13730561804E+04  0.00000000000E+00 0.  1.
       39    2    1    2    0    0  0.00000000000E+00  0.00000000000E+00 -0.35048211455E+03  0.23956302463E+04  0.23698537010E+04 0.  0.
       25    1    3    3    0    0  0.56713025046E+03 -0.10119104691E+04  0.33957025322E+02  0.11672093206E+04  0.12500000000E+03 0.  0.
       25    1    3    3    0    0 -0.56713025046E+03  0.10119104691E+04 -0.38443913987E+03  0.12284209257E+04  0.12500000000E+03 0.  0.
<mgrwt>
<rscale>  0 0.23698537E+04</rscale>
<asrwt>0</asrwt>
<pdfrwt beam="1">  1       21 0.15731909E+00 0.23698537E+04</pdfrwt>
<pdfrwt beam="2">  1       21 0.21123941E+00 0.23698537E+04</pdfrwt>
<totfact> 0.11016514E+01</totfact>
</mgrwt>
<rwgt>
  <wgt id="1">3.0282e-12</wgt>
  <wgt id="2">2.63317e-12</wgt>
  <wgt id="3">3.51929e-12</wgt>
  <wgt id="4">3.0282e-12</wgt>
  <wgt id="5">2.63317e-12</wgt>
  <wgt id="6">3.51929e-12</wgt>
  <wgt id="7">3.0282e-12</wgt>
  <wgt id="8">2.63317e-12</wgt>
  <wgt id="9">3.51929e-12</wgt>
  <wgt id="10">3.13882e-12</wgt>
  <wgt id="11">3.13569e-12</wgt>
  <wgt id="12">3.13267e-12</wgt>
  <wgt id="13">3.12797e-12</wgt>
  <wgt id="14">3.15041e-12</wgt>
  <wgt id="15">3.14362e-12</wgt>
  <wgt id="16">3.13266e-12</wgt>
  <wgt id="17">3.14427e-12</wgt>
  <wgt id="18">3.13292e-12</wgt>
  <wgt id="19">3.14606e-12</wgt>
  <wgt id="20">3.12929e-12</wgt>
  <wgt id="21">3.12033e-12</wgt>
  <wgt id="22">3.12783e-12</wgt>
  <wgt id="23">3.11066e-12</wgt>
  <wgt id="24">3.12478e-12</wgt>
  <wgt id="25">3.13148e-12</wgt>
  <wgt id="26">3.15204e-12</wgt>
  <wgt id="27">3.1388e-12</wgt>
  <wgt id="28">3.12449e-12</wgt>
  <wgt id="29">3.14167e-12</wgt>
  <wgt id="30">3.13147e-12</wgt>
  <wgt id="31">3.14723e-12</wgt>
  <wgt id="32">3.13435e-12</wgt>
  <wgt id="33">3.14682e-12</wgt>
  <wgt id="34">3.12899e-12</wgt>
  <wgt id="35">3.13732e-12</wgt>
  <wgt id="36">3.14914e-12</wgt>
  <wgt id="37">3.13074e-12</wgt>
  <wgt id="38">3.12942e-12</wgt>
  <wgt id="39">3.17076e-12</wgt>
  <wgt id="40">3.14536e-12</wgt>
  <wgt id="41">3.13815e-12</wgt>
  <wgt id="42">3.14543e-12</wgt>
  <wgt id="43">3.13929e-12</wgt>
  <wgt id="44">3.12926e-12</wgt>
  <wgt id="45">3.14609e-12</wgt>
  <wgt id="46">3.14415e-12</wgt>
  <wgt id="47">3.12693e-12</wgt>
  <wgt id="48">3.13858e-12</wgt>
  <wgt id="49">3.14434e-12</wgt>
  <wgt id="50">3.1563e-12</wgt>
  <wgt id="51">3.15271e-12</wgt>
  <wgt id="52">3.13582e-12</wgt>
  <wgt id="53">3.11538e-12</wgt>
  <wgt id="54">3.13175e-12</wgt>
  <wgt id="55">3.13857e-12</wgt>
  <wgt id="56">3.15018e-12</wgt>
  <wgt id="57">3.14918e-12</wgt>
  <wgt id="58">3.11717e-12</wgt>
  <wgt id="59">3.12751e-12</wgt>
  <wgt id="60">3.14002e-12</wgt>
  <wgt id="61">3.13011e-12</wgt>
  <wgt id="62">3.13659e-12</wgt>
  <wgt id="63">3.14112e-12</wgt>
  <wgt id="64">3.14217e-12</wgt>
  <wgt id="65">3.14255e-12</wgt>
  <wgt id="66">3.13439e-12</wgt>
  <wgt id="67">3.1317e-12</wgt>
  <wgt id="68">3.13557e-12</wgt>
  <wgt id="69">3.13864e-12</wgt>
  <wgt id="70">3.13682e-12</wgt>
  <wgt id="71">3.13829e-12</wgt>
  <wgt id="72">3.13466e-12</wgt>
  <wgt id="73">3.141e-12</wgt>
  <wgt id="74">3.14091e-12</wgt>
  <wgt id="75">3.13619e-12</wgt>
  <wgt id="76">3.14735e-12</wgt>
  <wgt id="77">3.13823e-12</wgt>
  <wgt id="78">3.13939e-12</wgt>
  <wgt id="79">3.14505e-12</wgt>
  <wgt id="80">3.12568e-12</wgt>
  <wgt id="81">3.13517e-12</wgt>
  <wgt id="82">3.13888e-12</wgt>
  <wgt id="83">3.12649e-12</wgt>
  <wgt id="84">3.13255e-12</wgt>
  <wgt id="85">3.13257e-12</wgt>
  <wgt id="86">3.14691e-12</wgt>
  <wgt id="87">3.12246e-12</wgt>
  <wgt id="88">3.14258e-12</wgt>
  <wgt id="89">3.14184e-12</wgt>
  <wgt id="90">3.14381e-12</wgt>
  <wgt id="91">3.14133e-12</wgt>
  <wgt id="92">3.14484e-12</wgt>
  <wgt id="93">3.13883e-12</wgt>
  <wgt id="94">3.13581e-12</wgt>
  <wgt id="95">3.1415e-12</wgt>
  <wgt id="96">3.1411e-12</wgt>
  <wgt id="97">3.1342e-12</wgt>
  <wgt id="98">3.14026e-12</wgt>
  <wgt id="99">3.1366e-12</wgt>
  <wgt id="100">3.14191e-12</wgt>
  <wgt id="101">3.13803e-12</wgt>
  <wgt id="102">3.13562e-12</wgt>
  <wgt id="103">3.14326e-12</wgt>
  <wgt id="104">3.13674e-12</wgt>
  <wgt id="105">3.14219e-12</wgt>
  <wgt id="106">3.13453e-12</wgt>
  <wgt id="107">3.1474e-12</wgt>
  <wgt id="108">3.13563e-12</wgt>
  <wgt id="109">3.13957e-12</wgt>
  <wgt id="110">3.13866e-12</wgt>
  <wgt id="111">3.16897e-12</wgt>
  <wgt id="112">3.13868e-12</wgt>
  <wgt id="113">4.24423e-12</wgt>
  <wgt id="114">4.36975e-12</wgt>
  <wgt id="115">4.30903e-12</wgt>
  <wgt id="116">6.07211e-12</wgt>
  <wgt id="117">3.50296e-12</wgt>
  <wgt id="118">3.51552e-12</wgt>
  <wgt id="119">3.49588e-12</wgt>
  <wgt id="120">3.50328e-12</wgt>
  <wgt id="121">3.50286e-12</wgt>
  <wgt id="122">3.49682e-12</wgt>
  <wgt id="123">3.51131e-12</wgt>
  <wgt id="124">3.49793e-12</wgt>
  <wgt id="125">3.50618e-12</wgt>
  <wgt id="126">3.50947e-12</wgt>
  <wgt id="127">3.49869e-12</wgt>
  <wgt id="128">3.51394e-12</wgt>
  <wgt id="129">3.49214e-12</wgt>
  <wgt id="130">3.52346e-12</wgt>
  <wgt id="131">3.48207e-12</wgt>
  <wgt id="132">3.41124e-12</wgt>
  <wgt id="133">3.61168e-12</wgt>
  <wgt id="134">3.46497e-12</wgt>
  <wgt id="135">3.53271e-12</wgt>
  <wgt id="136">3.54845e-12</wgt>
  <wgt id="137">3.44795e-12</wgt>
  <wgt id="138">3.6404e-12</wgt>
  <wgt id="139">3.37035e-12</wgt>
  <wgt id="140">3.47996e-12</wgt>
  <wgt id="141">3.52088e-12</wgt>
  <wgt id="142">3.50342e-12</wgt>
  <wgt id="143">3.50812e-12</wgt>
  <wgt id="144">3.40181e-12</wgt>
  <wgt id="145">3.59717e-12</wgt>
  <wgt id="146">3.53531e-12</wgt>
  <wgt id="147">3.47729e-12</wgt>
  <wgt id="148">3.51386e-12</wgt>
  <wgt id="149">3.50214e-12</wgt>
  <wgt id="150">3.5335e-12</wgt>
  <wgt id="151">3.48873e-12</wgt>
  <wgt id="152">3.50467e-12</wgt>
  <wgt id="153">3.50236e-12</wgt>
  <wgt id="154">3.53039e-12</wgt>
  <wgt id="155">3.47003e-12</wgt>
  <wgt id="156">3.57501e-12</wgt>
  <wgt id="157">3.42793e-12</wgt>
  <wgt id="158">4.21343e-12</wgt>
  <wgt id="159">4.23113e-12</wgt>
  <wgt id="160">4.19931e-12</wgt>
  <wgt id="161">4.20269e-12</wgt>
  <wgt id="162">4.22551e-12</wgt>
  <wgt id="163">4.2088e-12</wgt>
  <wgt id="164">4.22044e-12</wgt>
  <wgt id="165">4.21506e-12</wgt>
  <wgt id="166">4.2122e-12</wgt>
  <wgt id="167">4.2104e-12</wgt>
  <wgt id="168">4.21785e-12</wgt>
  <wgt id="169">4.19552e-12</wgt>
  <wgt id="170">4.22473e-12</wgt>
  <wgt id="171">4.2088e-12</wgt>
  <wgt id="172">4.22015e-12</wgt>
  <wgt id="173">4.21298e-12</wgt>
  <wgt id="174">4.21357e-12</wgt>
  <wgt id="175">4.09411e-12</wgt>
  <wgt id="176">4.36933e-12</wgt>
  <wgt id="177">4.23631e-12</wgt>
  <wgt id="178">4.19248e-12</wgt>
  <wgt id="179">4.39244e-12</wgt>
  <wgt id="180">3.93132e-12</wgt>
  <wgt id="181">4.08932e-12</wgt>
  <wgt id="182">4.29546e-12</wgt>
  <wgt id="183">4.13766e-12</wgt>
  <wgt id="184">4.25108e-12</wgt>
  <wgt id="185">4.179e-12</wgt>
  <wgt id="186">4.25546e-12</wgt>
  <wgt id="187">4.17524e-12</wgt>
  <wgt id="188">4.28245e-12</wgt>
  <wgt id="189">4.18599e-12</wgt>
  <wgt id="190">4.22474e-12</wgt>
  <wgt id="191">4.22513e-12</wgt>
  <wgt id="192">4.20657e-12</wgt>
  <wgt id="193">4.27438e-12</wgt>
  <wgt id="194">4.18342e-12</wgt>
  <wgt id="195">4.10569e-12</wgt>
  <wgt id="196">4.40375e-12</wgt>
  <wgt id="197">4.23475e-12</wgt>
  <wgt id="198">4.20844e-12</wgt>
  <wgt id="199">4.21343e-12</wgt>
  <wgt id="200">4.2498e-12</wgt>
  <wgt id="201">4.23663e-12</wgt>
  <wgt id="202">4.22365e-12</wgt>
  <wgt id="203">4.20429e-12</wgt>
  <wgt id="204">4.19508e-12</wgt>
  <wgt id="205">4.18762e-12</wgt>
  <wgt id="206">4.08384e-12</wgt>
  <wgt id="207">4.10777e-12</wgt>
  <wgt id="208">4.06022e-12</wgt>
  <wgt id="209">4.09682e-12</wgt>
  <wgt id="210">4.07449e-12</wgt>
  <wgt id="211">4.08238e-12</wgt>
  <wgt id="212">4.08505e-12</wgt>
  <wgt id="213">4.08358e-12</wgt>
  <wgt id="214">4.08445e-12</wgt>
  <wgt id="215">4.08693e-12</wgt>
  <wgt id="216">4.08164e-12</wgt>
  <wgt id="217">4.0956e-12</wgt>
  <wgt id="218">4.07472e-12</wgt>
  <wgt id="219">4.07996e-12</wgt>
  <wgt id="220">4.08636e-12</wgt>
  <wgt id="221">4.08216e-12</wgt>
  <wgt id="222">4.08799e-12</wgt>
  <wgt id="223">3.86674e-12</wgt>
  <wgt id="224">4.28162e-12</wgt>
  <wgt id="225">4.03448e-12</wgt>
  <wgt id="226">4.14596e-12</wgt>
  <wgt id="227">4.04512e-12</wgt>
  <wgt id="228">4.10091e-12</wgt>
  <wgt id="229">4.0269e-12</wgt>
  <wgt id="230">4.11228e-12</wgt>
  <wgt id="231">4.20133e-12</wgt>
  <wgt id="232">3.98742e-12</wgt>
  <wgt id="233">4.06248e-12</wgt>
  <wgt id="234">4.1177e-12</wgt>
  <wgt id="235">3.99768e-12</wgt>
  <wgt id="236">4.16345e-12</wgt>
  <wgt id="237">4.02602e-12</wgt>
  <wgt id="238">4.10362e-12</wgt>
  <wgt id="239">4.05886e-12</wgt>
  <wgt id="240">4.12916e-12</wgt>
  <wgt id="241">4.04206e-12</wgt>
  <wgt id="242">4.13435e-12</wgt>
  <wgt id="243">4.1361e-12</wgt>
  <wgt id="244">4.10419e-12</wgt>
  <wgt id="245">4.08111e-12</wgt>
  <wgt id="246">4.11361e-12</wgt>
  <wgt id="247">4.08384e-12</wgt>
  <wgt id="248">4.11935e-12</wgt>
  <wgt id="249">4.10576e-12</wgt>
  <wgt id="250">4.09319e-12</wgt>
  <wgt id="251">4.07427e-12</wgt>
  <wgt id="252">4.0654e-12</wgt>
  <wgt id="253">4.05905e-12</wgt>
  <wgt id="254">4.00038e-12</wgt>
  <wgt id="255">4.00416e-12</wgt>
  <wgt id="256">3.99616e-12</wgt>
  <wgt id="257">4.00334e-12</wgt>
  <wgt id="258">3.9982e-12</wgt>
  <wgt id="259">4.02708e-12</wgt>
  <wgt id="260">3.97457e-12</wgt>
  <wgt id="261">4.00625e-12</wgt>
  <wgt id="262">3.99324e-12</wgt>
  <wgt id="263">3.99844e-12</wgt>
  <wgt id="264">4.00243e-12</wgt>
  <wgt id="265">3.99564e-12</wgt>
  <wgt id="266">4.00979e-12</wgt>
  <wgt id="267">4.00162e-12</wgt>
  <wgt id="268">3.99847e-12</wgt>
  <wgt id="269">4.01344e-12</wgt>
  <wgt id="270">3.99148e-12</wgt>
  <wgt id="271">3.99352e-12</wgt>
  <wgt id="272">4.00799e-12</wgt>
  <wgt id="273">3.98784e-12</wgt>
  <wgt id="274">4.00987e-12</wgt>
  <wgt id="275">3.98372e-12</wgt>
  <wgt id="276">4.01754e-12</wgt>
  <wgt id="277">3.97747e-12</wgt>
  <wgt id="278">4.02141e-12</wgt>
  <wgt id="279">3.92303e-12</wgt>
  <wgt id="280">4.09723e-12</wgt>
  <wgt id="281">3.98258e-12</wgt>
  <wgt id="282">4.00129e-12</wgt>
  <wgt id="283">3.88571e-12</wgt>
  <wgt id="284">4.1414e-12</wgt>
  <wgt id="285">3.81037e-12</wgt>
  <wgt id="286">4.1574e-12</wgt>
  <wgt id="287">4.01293e-12</wgt>
  <wgt id="288">3.9844e-12</wgt>
  <wgt id="289">4.02832e-12</wgt>
  <wgt id="290">3.93529e-12</wgt>
  <wgt id="291">3.98946e-12</wgt>
  <wgt id="292">4.00291e-12</wgt>
  <wgt id="293">3.96967e-12</wgt>
  <wgt id="294">4.03075e-12</wgt>
  <wgt id="295">3.92498e-12</wgt>
  <wgt id="296">4.0922e-12</wgt>
  <wgt id="297">3.99991e-12</wgt>
  <wgt id="298">4.01543e-12</wgt>
  <wgt id="299">3.98746e-12</wgt>
  <wgt id="300">4.03437e-12</wgt>
  <wgt id="301">3.94424e-12</wgt>
  <wgt id="302">4.14132e-12</wgt>
  <wgt id="303">3.96971e-12</wgt>
  <wgt id="304">4.01787e-12</wgt>
  <wgt id="305">4.01258e-12</wgt>
  <wgt id="306">4.01682e-12</wgt>
  <wgt id="307">4.00815e-12</wgt>
  <wgt id="308">4.01596e-12</wgt>
  <wgt id="309">4.01045e-12</wgt>
  <wgt id="310">4.04046e-12</wgt>
  <wgt id="311">3.9868e-12</wgt>
  <wgt id="312">4.01749e-12</wgt>
  <wgt id="313">4.00767e-12</wgt>
  <wgt id="314">4.01081e-12</wgt>
  <wgt id="315">4.0144e-12</wgt>
  <wgt id="316">4.0081e-12</wgt>
  <wgt id="317">4.02249e-12</wgt>
  <wgt id="318">4.01567e-12</wgt>
  <wgt id="319">4.00752e-12</wgt>
  <wgt id="320">4.02637e-12</wgt>
  <wgt id="321">4.00508e-12</wgt>
  <wgt id="322">4.00381e-12</wgt>
  <wgt id="323">4.02303e-12</wgt>
  <wgt id="324">4.00221e-12</wgt>
  <wgt id="325">4.02177e-12</wgt>
  <wgt id="326">3.99925e-12</wgt>
  <wgt id="327">4.02978e-12</wgt>
  <wgt id="328">3.99203e-12</wgt>
  <wgt id="329">4.02431e-12</wgt>
  <wgt id="330">4.13146e-12</wgt>
  <wgt id="331">3.89936e-12</wgt>
  <wgt id="332">3.99777e-12</wgt>
  <wgt id="333">4.01289e-12</wgt>
  <wgt id="334">3.92258e-12</wgt>
  <wgt id="335">4.12447e-12</wgt>
  <wgt id="336">3.87448e-12</wgt>
  <wgt id="337">4.18056e-12</wgt>
  <wgt id="338">4.05688e-12</wgt>
  <wgt id="339">3.97161e-12</wgt>
  <wgt id="340">4.03906e-12</wgt>
  <wgt id="341">3.9445e-12</wgt>
  <wgt id="342">4.00493e-12</wgt>
  <wgt id="343">4.00871e-12</wgt>
  <wgt id="344">3.98472e-12</wgt>
  <wgt id="345">4.04489e-12</wgt>
  <wgt id="346">3.93426e-12</wgt>
  <wgt id="347">4.1028e-12</wgt>
  <wgt id="348">4.01381e-12</wgt>
  <wgt id="349">4.02518e-12</wgt>
  <wgt id="350">3.99636e-12</wgt>
  <wgt id="351">4.05369e-12</wgt>
  <wgt id="352">3.95046e-12</wgt>
  <wgt id="353">4.16021e-12</wgt>
  <wgt id="354">3.96582e-12</wgt>
  <wgt id="355">4.04119e-12</wgt>
  <wgt id="356">4.00038e-12</wgt>
  <wgt id="357">4.02907e-12</wgt>
  <wgt id="358">4.01258e-12</wgt>
  <wgt id="359">4.01437e-12</wgt>
  <wgt id="360">4.02735e-12</wgt>
  <wgt id="361">4.01304e-12</wgt>
  <wgt id="362">4.08272e-12</wgt>
  <wgt id="363">4.07289e-12</wgt>
  <wgt id="364">4.05895e-12</wgt>
  <wgt id="365">4.04526e-12</wgt>
  <wgt id="366">4.02995e-12</wgt>
  <wgt id="367">3.99851e-12</wgt>
  <wgt id="368">3.9812e-12</wgt>
  <wgt id="369">3.96253e-12</wgt>
  <wgt id="370">4.01304e-12</wgt>
  <wgt id="371">4.03109e-12</wgt>
  <wgt id="372">4.02117e-12</wgt>
  <wgt id="373">4.0064e-12</wgt>
  <wgt id="374">4.00509e-12</wgt>
  <wgt id="375">4.28395e-12</wgt>
  <wgt id="376">4.28448e-12</wgt>
  <wgt id="377">4.28314e-12</wgt>
  <wgt id="378">4.29952e-12</wgt>
  <wgt id="379">4.26836e-12</wgt>
  <wgt id="380">4.2953e-12</wgt>
  <wgt id="381">4.27939e-12</wgt>
  <wgt id="382">4.30636e-12</wgt>
  <wgt id="383">4.26169e-12</wgt>
  <wgt id="384">4.28676e-12</wgt>
  <wgt id="385">4.28125e-12</wgt>
  <wgt id="386">4.30128e-12</wgt>
  <wgt id="387">4.27636e-12</wgt>
  <wgt id="388">4.27977e-12</wgt>
  <wgt id="389">4.28886e-12</wgt>
  <wgt id="390">4.29563e-12</wgt>
  <wgt id="391">4.27162e-12</wgt>
  <wgt id="392">4.25085e-12</wgt>
  <wgt id="393">4.30276e-12</wgt>
  <wgt id="394">4.29004e-12</wgt>
  <wgt id="395">4.27566e-12</wgt>
  <wgt id="396">4.28688e-12</wgt>
  <wgt id="397">4.28192e-12</wgt>
  <wgt id="398">4.26505e-12</wgt>
  <wgt id="399">4.30221e-12</wgt>
  <wgt id="400">4.27657e-12</wgt>
  <wgt id="401">4.30041e-12</wgt>
  <wgt id="402">4.24888e-12</wgt>
  <wgt id="403">4.29942e-12</wgt>
  <wgt id="404">4.38292e-12</wgt>
  <wgt id="405">4.04535e-12</wgt>
  <wgt id="406">4.2129e-12</wgt>
  <wgt id="407">4.4379e-12</wgt>
  <wgt id="408">4.32041e-12</wgt>
  <wgt id="409">4.2142e-12</wgt>
  <wgt id="410">4.16752e-12</wgt>
  <wgt id="411">4.3378e-12</wgt>
  <wgt id="412">4.27638e-12</wgt>
  <wgt id="413">4.29512e-12</wgt>
  <wgt id="414">4.2374e-12</wgt>
  <wgt id="415">4.3201e-12</wgt>
  <wgt id="416">4.39724e-12</wgt>
  <wgt id="417">4.12743e-12</wgt>
  <wgt id="418">4.28969e-12</wgt>
  <wgt id="419">4.25323e-12</wgt>
  <wgt id="420">4.3485e-12</wgt>
  <wgt id="421">4.24704e-12</wgt>
  <wgt id="422">4.27698e-12</wgt>
  <wgt id="423">4.2881e-12</wgt>
  <wgt id="424">4.37105e-12</wgt>
  <wgt id="425">4.22917e-12</wgt>
  <wgt id="426">4.28395e-12</wgt>
  <wgt id="427">4.24584e-12</wgt>
  <wgt id="428">4.39599e-12</wgt>
  <wgt id="429">4.32264e-12</wgt>
  <wgt id="430">4.44334e-12</wgt>
  <wgt id="431">4.41913e-12</wgt>
  <wgt id="432">4.39639e-12</wgt>
  <wgt id="433">4.37433e-12</wgt>
  <wgt id="434">4.34752e-12</wgt>
  <wgt id="435">4.29159e-12</wgt>
  <wgt id="436">4.26291e-12</wgt>
  <wgt id="437">4.23545e-12</wgt>
  <wgt id="438">4.32264e-12</wgt>
  <wgt id="439">4.33694e-12</wgt>
  <wgt id="440">4.32848e-12</wgt>
  <wgt id="441">4.31825e-12</wgt>
  <wgt id="442">4.31456e-12</wgt>
  <wgt id="443">4.18676e-12</wgt>
  <wgt id="444">4.21003e-12</wgt>
  <wgt id="445">4.17007e-12</wgt>
  <wgt id="446">4.16005e-12</wgt>
  <wgt id="447">4.17192e-12</wgt>
  <wgt id="448">4.07644e-12</wgt>
  <wgt id="449">4.25127e-12</wgt>
  <wgt id="450">4.17203e-12</wgt>
  <wgt id="451">4.17991e-12</wgt>
  <wgt id="452">4.28074e-12</wgt>
  <wgt id="453">4.22652e-12</wgt>
  <wgt id="454">4.02058e-12</wgt>
  <wgt id="455">4.19212e-12</wgt>
  <wgt id="456">4.14667e-12</wgt>
  <wgt id="457">4.20403e-12</wgt>
  <wgt id="458">4.23445e-12</wgt>
  <wgt id="459">4.2146e-12</wgt>
  <wgt id="460">4.21044e-12</wgt>
  <wgt id="461">4.10991e-12</wgt>
  <wgt id="462">4.15247e-12</wgt>
  <wgt id="463">4.14149e-12</wgt>
  <wgt id="464">4.16303e-12</wgt>
  <wgt id="465">4.2306e-12</wgt>
  <wgt id="466">4.13867e-12</wgt>
  <wgt id="467">4.14633e-12</wgt>
  <wgt id="468">4.17538e-12</wgt>
  <wgt id="469">4.17491e-12</wgt>
  <wgt id="470">4.14967e-12</wgt>
  <wgt id="471">4.14988e-12</wgt>
  <wgt id="472">4.20614e-12</wgt>
  <wgt id="473">4.05167e-12</wgt>
  <wgt id="474">3.0282e-12</wgt>
  <wgt id="475">3.2101e-12</wgt>
  <wgt id="476">2.96156e-12</wgt>
  <wgt id="477">2.92737e-12</wgt>
  <wgt id="478">3.0439e-12</wgt>
  <wgt id="479">2.97017e-12</wgt>
  <wgt id="480">3.13869e-12</wgt>
  <wgt id="481">2.96869e-12</wgt>
  <wgt id="482">2.92004e-12</wgt>
  <wgt id="483">2.94884e-12</wgt>
  <wgt id="484">3.22478e-12</wgt>
  <wgt id="485">3.02319e-12</wgt>
  <wgt id="486">3.11067e-12</wgt>
  <wgt id="487">3.0853e-12</wgt>
  <wgt id="488">3.0728e-12</wgt>
  <wgt id="489">2.92445e-12</wgt>
  <wgt id="490">2.92898e-12</wgt>
  <wgt id="491">2.99563e-12</wgt>
  <wgt id="492">2.93771e-12</wgt>
  <wgt id="493">2.91497e-12</wgt>
  <wgt id="494">2.93665e-12</wgt>
  <wgt id="495">3.09197e-12</wgt>
  <wgt id="496">2.92852e-12</wgt>
  <wgt id="497">2.90929e-12</wgt>
  <wgt id="498">3.07456e-12</wgt>
  <wgt id="499">2.95609e-12</wgt>
  <wgt id="500">2.97951e-12</wgt>
  <wgt id="501">3.16707e-12</wgt>
  <wgt id="502">2.95608e-12</wgt>
  <wgt id="503">3.02554e-12</wgt>
  <wgt id="504">3.05495e-12</wgt>
  <wgt id="505">3.0159e-12</wgt>
  <wgt id="506">3.08747e-12</wgt>
  <wgt id="507">3.00241e-12</wgt>
  <wgt id="508">3.07622e-12</wgt>
  <wgt id="509">2.95176e-12</wgt>
  <wgt id="510">3.11023e-12</wgt>
  <wgt id="511">2.96606e-12</wgt>
  <wgt id="512">3.07761e-12</wgt>
  <wgt id="513">3.16269e-12</wgt>
  <wgt id="514">3.01082e-12</wgt>
  <wgt id="515">2.99018e-12</wgt>
  <wgt id="516">3.11961e-12</wgt>
  <wgt id="517">3.0921e-12</wgt>
  <wgt id="518">3.09963e-12</wgt>
  <wgt id="519">2.94184e-12</wgt>
  <wgt id="520">3.05983e-12</wgt>
  <wgt id="521">3.13032e-12</wgt>
  <wgt id="522">3.14646e-12</wgt>
  <wgt id="523">3.09216e-12</wgt>
  <wgt id="524">3.07103e-12</wgt>
  <wgt id="525">3.12254e-12</wgt>
  <wgt id="526">3.04211e-12</wgt>
  <wgt id="527">3.07286e-12</wgt>
  <wgt id="528">3.04381e-12</wgt>
  <wgt id="529">2.97623e-12</wgt>
  <wgt id="530">3.06153e-12</wgt>
  <wgt id="531">2.99477e-12</wgt>
  <wgt id="532">3.20062e-12</wgt>
  <wgt id="533">2.85212e-12</wgt>
  <wgt id="534">3.03961e-12</wgt>
  <wgt id="535">3.08563e-12</wgt>
  <wgt id="536">3.01319e-12</wgt>
  <wgt id="537">3.03697e-12</wgt>
  <wgt id="538">3.06383e-12</wgt>
  <wgt id="539">2.97129e-12</wgt>
  <wgt id="540">2.97382e-12</wgt>
  <wgt id="541">2.94523e-12</wgt>
  <wgt id="542">2.97746e-12</wgt>
  <wgt id="543">3.02251e-12</wgt>
  <wgt id="544">3.1756e-12</wgt>
  <wgt id="545">2.98773e-12</wgt>
  <wgt id="546">2.98662e-12</wgt>
  <wgt id="547">2.93744e-12</wgt>
  <wgt id="548">2.90485e-12</wgt>
  <wgt id="549">2.9756e-12</wgt>
  <wgt id="550">3.00431e-12</wgt>
  <wgt id="551">3.05911e-12</wgt>
  <wgt id="552">2.99522e-12</wgt>
  <wgt id="553">3.01755e-12</wgt>
  <wgt id="554">3.25082e-12</wgt>
  <wgt id="555">3.10577e-12</wgt>
  <wgt id="556">2.92898e-12</wgt>
  <wgt id="557">3.08065e-12</wgt>
  <wgt id="558">2.93244e-12</wgt>
  <wgt id="559">2.98561e-12</wgt>
  <wgt id="560">3.28528e-12</wgt>
  <wgt id="561">2.97078e-12</wgt>
  <wgt id="562">3.07958e-12</wgt>
  <wgt id="563">2.94762e-12</wgt>
  <wgt id="564">3.0355e-12</wgt>
  <wgt id="565">2.91832e-12</wgt>
  <wgt id="566">3.0755e-12</wgt>
  <wgt id="567">2.98704e-12</wgt>
  <wgt id="568">3.01679e-12</wgt>
  <wgt id="569">3.08232e-12</wgt>
  <wgt id="570">2.93167e-12</wgt>
  <wgt id="571">3.35605e-12</wgt>
  <wgt id="572">2.95908e-12</wgt>
  <wgt id="573">2.89621e-12</wgt>
  <wgt id="574">2.92178e-12</wgt>
  <wgt id="575">3.33516e-12</wgt>
  <wgt id="576">3.31168e-12</wgt>
  <wgt id="577">3.42676e-12</wgt>
  <wgt id="578">3.42238e-12</wgt>
  <wgt id="579">3.39276e-12</wgt>
  <wgt id="580">3.40275e-12</wgt>
  <wgt id="581">3.55261e-12</wgt>
  <wgt id="582">3.30361e-12</wgt>
  <wgt id="583">3.37111e-12</wgt>
  <wgt id="584">3.33865e-12</wgt>
  <wgt id="585">3.35145e-12</wgt>
  <wgt id="586">3.25777e-12</wgt>
  <wgt id="587">3.38224e-12</wgt>
  <wgt id="588">3.32057e-12</wgt>
  <wgt id="589">3.40266e-12</wgt>
  <wgt id="590">3.38889e-12</wgt>
  <wgt id="591">3.46071e-12</wgt>
  <wgt id="592">3.2562e-12</wgt>
  <wgt id="593">3.31924e-12</wgt>
  <wgt id="594">3.43487e-12</wgt>
  <wgt id="595">3.32429e-12</wgt>
  <wgt id="596">3.37006e-12</wgt>
  <wgt id="597">3.23615e-12</wgt>
  <wgt id="598">3.24399e-12</wgt>
  <wgt id="599">3.50357e-12</wgt>
  <wgt id="600">3.30546e-12</wgt>
  <wgt id="601">3.24109e-12</wgt>
  <wgt id="602">3.26206e-12</wgt>
  <wgt id="603">3.27114e-12</wgt>
  <wgt id="604">3.38412e-12</wgt>
  <wgt id="605">3.46849e-12</wgt>
  <wgt id="606">3.2648e-12</wgt>
  <wgt id="607">3.29639e-12</wgt>
  <wgt id="608">3.36008e-12</wgt>
  <wgt id="609">3.15638e-12</wgt>
  <wgt id="610">3.2107e-12</wgt>
  <wgt id="611">3.366e-12</wgt>
  <wgt id="612">3.56999e-12</wgt>
  <wgt id="613">3.3256e-12</wgt>
  <wgt id="614">3.37776e-12</wgt>
  <wgt id="615">3.26951e-12</wgt>
  <wgt id="616">3.51983e-12</wgt>
  <wgt id="617">3.45952e-12</wgt>
  <wgt id="618">3.40679e-12</wgt>
  <wgt id="619">3.29709e-12</wgt>
  <wgt id="620">3.47611e-12</wgt>
  <wgt id="621">3.37877e-12</wgt>
  <wgt id="622">3.38224e-12</wgt>
  <wgt id="623">3.42881e-12</wgt>
  <wgt id="624">3.3251e-12</wgt>
  <wgt id="625">3.29394e-12</wgt>
  <wgt id="626">3.24979e-12</wgt>
  <wgt id="627">3.20175e-12</wgt>
  <wgt id="628">3.52401e-12</wgt>
  <wgt id="629">3.26108e-12</wgt>
  <wgt id="630">3.21772e-12</wgt>
  <wgt id="631">3.35141e-12</wgt>
  <wgt id="632">3.21582e-12</wgt>
  <wgt id="633">3.29895e-12</wgt>
  <wgt id="634">3.32637e-12</wgt>
  <wgt id="635">3.26252e-12</wgt>
  <wgt id="636">3.35595e-12</wgt>
  <wgt id="637">3.32656e-12</wgt>
  <wgt id="638">3.20847e-12</wgt>
  <wgt id="639">3.28969e-12</wgt>
  <wgt id="640">3.3363e-12</wgt>
  <wgt id="641">3.35823e-12</wgt>
  <wgt id="642">3.21408e-12</wgt>
  <wgt id="643">3.31526e-12</wgt>
  <wgt id="644">3.19811e-12</wgt>
  <wgt id="645">3.36451e-12</wgt>
  <wgt id="646">3.37793e-12</wgt>
  <wgt id="647">3.29249e-12</wgt>
  <wgt id="648">3.35629e-12</wgt>
  <wgt id="649">3.38483e-12</wgt>
  <wgt id="650">3.27021e-12</wgt>
  <wgt id="651">3.35676e-12</wgt>
  <wgt id="652">3.31136e-12</wgt>
  <wgt id="653">3.24165e-12</wgt>
  <wgt id="654">3.31449e-12</wgt>
  <wgt id="655">3.28008e-12</wgt>
  <wgt id="656">3.35334e-12</wgt>
  <wgt id="657">3.4577e-12</wgt>
  <wgt id="658">3.35021e-12</wgt>
  <wgt id="659">3.2053e-12</wgt>
  <wgt id="660">3.39706e-12</wgt>
  <wgt id="661">3.28043e-12</wgt>
  <wgt id="662">3.33198e-12</wgt>
  <wgt id="663">3.33547e-12</wgt>
  <wgt id="664">3.28757e-12</wgt>
  <wgt id="665">3.32476e-12</wgt>
  <wgt id="666">3.30869e-12</wgt>
  <wgt id="667">3.44056e-12</wgt>
  <wgt id="668">3.32964e-12</wgt>
  <wgt id="669">3.41462e-12</wgt>
  <wgt id="670">3.40118e-12</wgt>
  <wgt id="671">3.30402e-12</wgt>
  <wgt id="672">3.1958e-12</wgt>
  <wgt id="673">3.34491e-12</wgt>
  <wgt id="674">3.2705e-12</wgt>
  <wgt id="675">3.28633e-12</wgt>
  <wgt id="676">4.20478e-12</wgt>
  <wgt id="677">4.25258e-12</wgt>
  <wgt id="678">4.40747e-12</wgt>
  <wgt id="679">3.94651e-12</wgt>
  <wgt id="680">4.10236e-12</wgt>
  <wgt id="681">4.29763e-12</wgt>
  <wgt id="682">4.32342e-12</wgt>
  <wgt id="683">4.14741e-12</wgt>
  <wgt id="684">4.39473e-12</wgt>
  <wgt id="685">3.98778e-12</wgt>
  <wgt id="686">4.13449e-12</wgt>
  <wgt id="687">4.41084e-12</wgt>
  <wgt id="688">4.18537e-12</wgt>
  <wgt id="689">4.54243e-12</wgt>
  <wgt id="690">4.41994e-12</wgt>
  <wgt id="691">4.4555e-12</wgt>
  <wgt id="692">4.1611e-12</wgt>
  <wgt id="693">4.93281e-12</wgt>
  <wgt id="694">4.45595e-12</wgt>
  <wgt id="695">4.07284e-12</wgt>
  <wgt id="696">3.98519e-12</wgt>
  <wgt id="697">4.0847e-12</wgt>
  <wgt id="698">3.86427e-12</wgt>
  <wgt id="699">3.83391e-12</wgt>
  <wgt id="700">3.67881e-12</wgt>
  <wgt id="701">4.21912e-12</wgt>
  <wgt id="702">4.06451e-12</wgt>
  <wgt id="703">4.82259e-12</wgt>
  <wgt id="704">4.58844e-12</wgt>
  <wgt id="705">4.39442e-12</wgt>
  <wgt id="706">3.92107e-12</wgt>
  <wgt id="707">4.03668e-12</wgt>
  <wgt id="708">4.14929e-12</wgt>
  <wgt id="709">4.13094e-12</wgt>
  <wgt id="710">3.78057e-12</wgt>
  <wgt id="711">4.18331e-12</wgt>
  <wgt id="712">4.13145e-12</wgt>
  <wgt id="713">4.54311e-12</wgt>
  <wgt id="714">4.13846e-12</wgt>
  <wgt id="715">4.16016e-12</wgt>
  <wgt id="716">4.04503e-12</wgt>
  <wgt id="717">4.00697e-12</wgt>
  <wgt id="718">4.18913e-12</wgt>
  <wgt id="719">3.82063e-12</wgt>
  <wgt id="720">3.96492e-12</wgt>
  <wgt id="721">3.8798e-12</wgt>
  <wgt id="722">3.73323e-12</wgt>
  <wgt id="723">4.48271e-12</wgt>
  <wgt id="724">4.40221e-12</wgt>
  <wgt id="725">4.43754e-12</wgt>
  <wgt id="726">4.24534e-12</wgt>
  <wgt id="727">4.10857e-12</wgt>
  <wgt id="728">4.11818e-12</wgt>
  <wgt id="729">3.84293e-12</wgt>
  <wgt id="730">4.53581e-12</wgt>
  <wgt id="731">4.15352e-12</wgt>
  <wgt id="732">4.61958e-12</wgt>
  <wgt id="733">4.1954e-12</wgt>
  <wgt id="734">4.30725e-12</wgt>
  <wgt id="735">4.18787e-12</wgt>
  <wgt id="736">4.12375e-12</wgt>
  <wgt id="737">4.27291e-12</wgt>
  <wgt id="738">3.99763e-12</wgt>
  <wgt id="739">4.26476e-12</wgt>
  <wgt id="740">4.67292e-12</wgt>
  <wgt id="741">3.75269e-12</wgt>
  <wgt id="742">4.14012e-12</wgt>
  <wgt id="743">4.01723e-12</wgt>
  <wgt id="744">4.11946e-12</wgt>
  <wgt id="745">4.39688e-12</wgt>
  <wgt id="746">4.46864e-12</wgt>
  <wgt id="747">3.81103e-12</wgt>
  <wgt id="748">4.15006e-12</wgt>
  <wgt id="749">4.42708e-12</wgt>
  <wgt id="750">4.27306e-12</wgt>
  <wgt id="751">4.33899e-12</wgt>
  <wgt id="752">3.85538e-12</wgt>
  <wgt id="753">3.99683e-12</wgt>
  <wgt id="754">4.39238e-12</wgt>
  <wgt id="755">4.21963e-12</wgt>
  <wgt id="756">4.22964e-12</wgt>
  <wgt id="757">3.86964e-12</wgt>
  <wgt id="758">4.24098e-12</wgt>
  <wgt id="759">4.28855e-12</wgt>
  <wgt id="760">4.25495e-12</wgt>
  <wgt id="761">4.43181e-12</wgt>
  <wgt id="762">4.45725e-12</wgt>
  <wgt id="763">4.19098e-12</wgt>
  <wgt id="764">4.37264e-12</wgt>
  <wgt id="765">4.27749e-12</wgt>
  <wgt id="766">4.19835e-12</wgt>
  <wgt id="767">4.31236e-12</wgt>
  <wgt id="768">3.96738e-12</wgt>
  <wgt id="769">4.45993e-12</wgt>
  <wgt id="770">4.08404e-12</wgt>
  <wgt id="771">4.97218e-12</wgt>
  <wgt id="772">3.97011e-12</wgt>
  <wgt id="773">4.17397e-12</wgt>
  <wgt id="774">3.73502e-12</wgt>
  <wgt id="775">4.43153e-12</wgt>
  <wgt id="776">4.59562e-12</wgt>
  <wgt id="777">3.99773e-12</wgt>
  <wgt id="778">3.09373e-12</wgt>
  <wgt id="779">2.55863e-12</wgt>
  <wgt id="780">2.07078e-12</wgt>
  <wgt id="781">3.18213e-12</wgt>
  <wgt id="782">3.28569e-12</wgt>
  <wgt id="783">2.58699e-12</wgt>
  <wgt id="784">2.69305e-12</wgt>
  <wgt id="785">3.7816e-12</wgt>
  <wgt id="786">2.37328e-12</wgt>
  <wgt id="787">3.53495e-12</wgt>
  <wgt id="788">1.91823e-12</wgt>
  <wgt id="789">2.47347e-12</wgt>
  <wgt id="790">2.34278e-12</wgt>
  <wgt id="791">2.90965e-12</wgt>
  <wgt id="792">4.03527e-12</wgt>
  <wgt id="793">3.02244e-12</wgt>
  <wgt id="794">2.34566e-12</wgt>
  <wgt id="795">3.64522e-12</wgt>
  <wgt id="796">4.0802e-12</wgt>
  <wgt id="797">3.60396e-12</wgt>
  <wgt id="798">2.83803e-12</wgt>
  <wgt id="799">3.53334e-12</wgt>
  <wgt id="800">2.50213e-12</wgt>
  <wgt id="801">2.88241e-12</wgt>
  <wgt id="802">2.35814e-12</wgt>
  <wgt id="803">4.05317e-12</wgt>
  <wgt id="804">3.61702e-12</wgt>
  <wgt id="805">3.68093e-12</wgt>
  <wgt id="806">3.45715e-12</wgt>
  <wgt id="807">2.94343e-12</wgt>
  <wgt id="808">3.00728e-12</wgt>
  <wgt id="809">2.84765e-12</wgt>
  <wgt id="810">3.51702e-12</wgt>
  <wgt id="811">3.3799e-12</wgt>
  <wgt id="812">2.33091e-12</wgt>
  <wgt id="813">2.39195e-12</wgt>
  <wgt id="814">2.63353e-12</wgt>
  <wgt id="815">2.56339e-12</wgt>
  <wgt id="816">2.25497e-12</wgt>
  <wgt id="817">3.24504e-12</wgt>
  <wgt id="818">3.08682e-12</wgt>
  <wgt id="819">2.5568e-12</wgt>
  <wgt id="820">3.09472e-12</wgt>
  <wgt id="821">3.57381e-12</wgt>
  <wgt id="822">2.55431e-12</wgt>
  <wgt id="823">3.59908e-12</wgt>
  <wgt id="824">4.17424e-12</wgt>
  <wgt id="825">2.2646e-12</wgt>
  <wgt id="826">3.28659e-12</wgt>
  <wgt id="827">1.86316e-12</wgt>
  <wgt id="828">3.96802e-12</wgt>
  <wgt id="829">3.22292e-12</wgt>
  <wgt id="830">2.14559e-12</wgt>
  <wgt id="831">3.34338e-12</wgt>
  <wgt id="832">5.10344e-12</wgt>
  <wgt id="833">2.86891e-12</wgt>
  <wgt id="834">4.77372e-12</wgt>
  <wgt id="835">2.50055e-12</wgt>
  <wgt id="836">3.06499e-12</wgt>
  <wgt id="837">3.5267e-12</wgt>
  <wgt id="838">2.94239e-12</wgt>
  <wgt id="839">3.32036e-12</wgt>
  <wgt id="840">2.88093e-12</wgt>
  <wgt id="841">3.83759e-12</wgt>
  <wgt id="842">2.79996e-12</wgt>
  <wgt id="843">3.05227e-12</wgt>
  <wgt id="844">3.23963e-12</wgt>
  <wgt id="845">4.37808e-12</wgt>
  <wgt id="846">2.9058e-12</wgt>
  <wgt id="847">3.13599e-12</wgt>
  <wgt id="848">2.65045e-12</wgt>
  <wgt id="849">3.17892e-12</wgt>
  <wgt id="850">4.06574e-12</wgt>
  <wgt id="851">3.40273e-12</wgt>
  <wgt id="852">2.62493e-12</wgt>
  <wgt id="853">3.40921e-12</wgt>
  <wgt id="854">3.78857e-12</wgt>
  <wgt id="855">3.61042e-12</wgt>
  <wgt id="856">2.20104e-12</wgt>
  <wgt id="857">3.09013e-12</wgt>
  <wgt id="858">3.0582e-12</wgt>
  <wgt id="859">2.87535e-12</wgt>
  <wgt id="860">3.35272e-12</wgt>
  <wgt id="861">2.7072e-12</wgt>
  <wgt id="862">3.15666e-12</wgt>
  <wgt id="863">3.28836e-12</wgt>
  <wgt id="864">3.29593e-12</wgt>
  <wgt id="865">4.47522e-12</wgt>
  <wgt id="866">4.89709e-12</wgt>
  <wgt id="867">3.16529e-12</wgt>
  <wgt id="868">3.07504e-12</wgt>
  <wgt id="869">2.38205e-12</wgt>
  <wgt id="870">2.50794e-12</wgt>
  <wgt id="871">2.43208e-12</wgt>
  <wgt id="872">3.7233e-12</wgt>
  <wgt id="873">2.53803e-12</wgt>
  <wgt id="874">3.26814e-12</wgt>
  <wgt id="875">2.68066e-12</wgt>
  <wgt id="876">3.72906e-12</wgt>
  <wgt id="877">3.56506e-12</wgt>
  <wgt id="878">2.63828e-12</wgt>
  <wgt id="879">4.20478e-12</wgt>
  <wgt id="880">4.25258e-12</wgt>
  <wgt id="881">4.40747e-12</wgt>
  <wgt id="882">3.94651e-12</wgt>
  <wgt id="883">4.10236e-12</wgt>
  <wgt id="884">4.29763e-12</wgt>
  <wgt id="885">4.32342e-12</wgt>
  <wgt id="886">4.14741e-12</wgt>
  <wgt id="887">4.39473e-12</wgt>
  <wgt id="888">3.98778e-12</wgt>
  <wgt id="889">4.13449e-12</wgt>
  <wgt id="890">4.41084e-12</wgt>
  <wgt id="891">4.18537e-12</wgt>
  <wgt id="892">4.54243e-12</wgt>
  <wgt id="893">4.41994e-12</wgt>
  <wgt id="894">4.4555e-12</wgt>
  <wgt id="895">4.1611e-12</wgt>
  <wgt id="896">4.93281e-12</wgt>
  <wgt id="897">4.45595e-12</wgt>
  <wgt id="898">4.07284e-12</wgt>
  <wgt id="899">3.98519e-12</wgt>
  <wgt id="900">4.0847e-12</wgt>
  <wgt id="901">3.86427e-12</wgt>
  <wgt id="902">3.83391e-12</wgt>
  <wgt id="903">3.67881e-12</wgt>
  <wgt id="904">4.21912e-12</wgt>
  <wgt id="905">4.06451e-12</wgt>
  <wgt id="906">4.82259e-12</wgt>
  <wgt id="907">4.58844e-12</wgt>
  <wgt id="908">4.39442e-12</wgt>
  <wgt id="909">3.92107e-12</wgt>
  <wgt id="910">4.03668e-12</wgt>
  <wgt id="911">4.14929e-12</wgt>
  <wgt id="912">4.13094e-12</wgt>
  <wgt id="913">3.78057e-12</wgt>
  <wgt id="914">4.18331e-12</wgt>
  <wgt id="915">4.13145e-12</wgt>
  <wgt id="916">4.54311e-12</wgt>
  <wgt id="917">4.13846e-12</wgt>
  <wgt id="918">4.16016e-12</wgt>
  <wgt id="919">4.04503e-12</wgt>
  <wgt id="920">4.00697e-12</wgt>
  <wgt id="921">4.18913e-12</wgt>
  <wgt id="922">3.82063e-12</wgt>
  <wgt id="923">3.96492e-12</wgt>
  <wgt id="924">3.8798e-12</wgt>
  <wgt id="925">3.73323e-12</wgt>
  <wgt id="926">4.48271e-12</wgt>
  <wgt id="927">4.40221e-12</wgt>
  <wgt id="928">4.43754e-12</wgt>
  <wgt id="929">4.24534e-12</wgt>
  <wgt id="930">4.10857e-12</wgt>
  <wgt id="931">4.11818e-12</wgt>
  <wgt id="932">3.84293e-12</wgt>
  <wgt id="933">4.53581e-12</wgt>
  <wgt id="934">4.15352e-12</wgt>
  <wgt id="935">4.61958e-12</wgt>
  <wgt id="936">4.1954e-12</wgt>
  <wgt id="937">4.30725e-12</wgt>
  <wgt id="938">4.18787e-12</wgt>
  <wgt id="939">4.12375e-12</wgt>
  <wgt id="940">4.27291e-12</wgt>
  <wgt id="941">3.99763e-12</wgt>
  <wgt id="942">4.26476e-12</wgt>
  <wgt id="943">4.67292e-12</wgt>
  <wgt id="944">3.75269e-12</wgt>
  <wgt id="945">4.14012e-12</wgt>
  <wgt id="946">4.01723e-12</wgt>
  <wgt id="947">4.11946e-12</wgt>
  <wgt id="948">4.39688e-12</wgt>
  <wgt id="949">4.46864e-12</wgt>
  <wgt id="950">3.81103e-12</wgt>
  <wgt id="951">4.15006e-12</wgt>
  <wgt id="952">4.42708e-12</wgt>
  <wgt id="953">4.27306e-12</wgt>
  <wgt id="954">4.33899e-12</wgt>
  <wgt id="955">3.85538e-12</wgt>
  <wgt id="956">3.99683e-12</wgt>
  <wgt id="957">4.39238e-12</wgt>
  <wgt id="958">4.21963e-12</wgt>
  <wgt id="959">4.22964e-12</wgt>
  <wgt id="960">3.86964e-12</wgt>
  <wgt id="961">4.24098e-12</wgt>
  <wgt id="962">4.28855e-12</wgt>
  <wgt id="963">4.25495e-12</wgt>
  <wgt id="964">4.43181e-12</wgt>
  <wgt id="965">4.45725e-12</wgt>
  <wgt id="966">4.19098e-12</wgt>
  <wgt id="967">4.37264e-12</wgt>
  <wgt id="968">4.27749e-12</wgt>
  <wgt id="969">4.19835e-12</wgt>
  <wgt id="970">4.31236e-12</wgt>
  <wgt id="971">3.96738e-12</wgt>
  <wgt id="972">4.45993e-12</wgt>
  <wgt id="973">4.08404e-12</wgt>
  <wgt id="974">4.97218e-12</wgt>
  <wgt id="975">3.97011e-12</wgt>
  <wgt id="976">4.17397e-12</wgt>
  <wgt id="977">3.73502e-12</wgt>
  <wgt id="978">4.43153e-12</wgt>
  <wgt id="979">4.59562e-12</wgt>
  <wgt id="980">4.20358e-12</wgt>
  <wgt id="981">4.22934e-12</wgt>
  <wgt id="982">4.08366e-12</wgt>
</rwgt>
</event>
<event>
 5   1  0.3028200E-11  0.2571729E+04  0.7818608E-02  0.7621738E-01
       21   -1    0    0  502  501  0.00000000000E+00  0.00000000000E+00  0.24470745420E+04  0.24470745420E+04  0.00000000000E+00 0. -1.
       21   -1    0    0  501  502 -0.00000000000E+00 -0.00000000000E+00 -0.67568350414E+03  0.67568350414E+03  0.00000000000E+00 0.  1.
       39    2    1    2    0    0  0.00000000000E+00  0.00000000000E+00  0.17713910378E+04  0.31227580461E+04  0.25717293026E+04 0.  0.
       25    1    3    3    0    0 -0.12175402876E+04 -0.24721627745E+03  0.51281039469E+03  0.13498591559E+04  0.12500000000E+03 0.  0.
       25    1    3    3    0    0  0.12175402876E+04  0.24721627745E+03  0.12585806431E+04  0.17728988903E+04  0.12500000000E+03 0.  0.
<mgrwt>
<rscale>  0 0.25717293E+04</rscale>
<asrwt>0</asrwt>
<pdfrwt beam="1">  1       21 0.37647300E+00 0.25717293E+04</pdfrwt>
<pdfrwt beam="2">  1       21 0.10395131E+00 0.25717293E+04</pdfrwt>
<totfact> 0.27929913E+00</totfact>
</mgrwt>
<rwgt>
  <wgt id="1">3.0282e-12</wgt>
  <wgt id="2">2.58645e-12</wgt>
  <wgt id="3">3.58967e-12</wgt>
  <wgt id="4">3.0282e-12</wgt>
  <wgt id="5">2.58645e-12</wgt>
  <wgt id="6">3.58967e-12</wgt>
  <wgt id="7">3.0282e-12</wgt>
  <wgt id="8">2.58645e-12</wgt>
  <wgt id="9">3.58967e-12</wgt>
  <wgt id="10">3.243e-12</wgt>
  <wgt id="11">3.24424e-12</wgt>
  <wgt id="12">3.23227e-12</wgt>
  <wgt id="13">3.23879e-12</wgt>
  <wgt id="14">3.24805e-12</wgt>
  <wgt id="15">3.24735e-12</wgt>
  <wgt id="16">3.22825e-12</wgt>
  <wgt id="17">3.26879e-12</wgt>
  <wgt id="18">3.24297e-12</wgt>
  <wgt id="19">3.26082e-12</wgt>
  <wgt id="20">3.24612e-12</wgt>
  <wgt id="21">3.21226e-12</wgt>
  <wgt id="22">3.21495e-12</wgt>
  <wgt id="23">3.18398e-12</wgt>
  <wgt id="24">3.21316e-12</wgt>
  <wgt id="25">3.23194e-12</wgt>
  <wgt id="26">3.25021e-12</wgt>
  <wgt id="27">3.23485e-12</wgt>
  <wgt id="28">3.22035e-12</wgt>
  <wgt id="29">3.24327e-12</wgt>
  <wgt id="30">3.20855e-12</wgt>
  <wgt id="31">3.25744e-12</wgt>
  <wgt id="32">3.20537e-12</wgt>
  <wgt id="33">3.24525e-12</wgt>
  <wgt id="34">3.21519e-12</wgt>
  <wgt id="35">3.2059e-12</wgt>
  <wgt id="36">3.25932e-12</wgt>
  <wgt id="37">3.23182e-12</wgt>
  <wgt id="38">3.22646e-12</wgt>
  <wgt id="39">3.31596e-12</wgt>
  <wgt id="40">3.2526e-12</wgt>
  <wgt id="41">3.23935e-12</wgt>
  <wgt id="42">3.25369e-12</wgt>
  <wgt id="43">3.25037e-12</wgt>
  <wgt id="44">3.26491e-12</wgt>
  <wgt id="45">3.24736e-12</wgt>
  <wgt id="46">3.21837e-12</wgt>
  <wgt id="47">3.29615e-12</wgt>
  <wgt id="48">3.27971e-12</wgt>
  <wgt id="49">3.22993e-12</wgt>
  <wgt id="50">3.2016e-12</wgt>
  <wgt id="51">3.21136e-12</wgt>
  <wgt id="52">3.24494e-12</wgt>
  <wgt id="53">3.31545e-12</wgt>
  <wgt id="54">3.27022e-12</wgt>
  <wgt id="55">3.23416e-12</wgt>
  <wgt id="56">3.1925e-12</wgt>
  <wgt id="57">3.19913e-12</wgt>
  <wgt id="58">3.24251e-12</wgt>
  <wgt id="59">3.25812e-12</wgt>
  <wgt id="60">3.19112e-12</wgt>
  <wgt id="61">3.23828e-12</wgt>
  <wgt id="62">3.25453e-12</wgt>
  <wgt id="63">3.23847e-12</wgt>
  <wgt id="64">3.23729e-12</wgt>
  <wgt id="65">3.21582e-12</wgt>
  <wgt id="66">3.26168e-12</wgt>
  <wgt id="67">3.26577e-12</wgt>
  <wgt id="68">3.24104e-12</wgt>
  <wgt id="69">3.23523e-12</wgt>
  <wgt id="70">3.21628e-12</wgt>
  <wgt id="71">3.25716e-12</wgt>
  <wgt id="72">3.24271e-12</wgt>
  <wgt id="73">3.24097e-12</wgt>
  <wgt id="74">3.26636e-12</wgt>
  <wgt id="75">3.21711e-12</wgt>
  <wgt id="76">3.2697e-12</wgt>
  <wgt id="77">3.23349e-12</wgt>
  <wgt id="78">3.23992e-12</wgt>
  <wgt id="79">3.25087e-12</wgt>
  <wgt id="80">3.21296e-12</wgt>
  <wgt id="81">3.23779e-12</wgt>
  <wgt id="82">3.24618e-12</wgt>
  <wgt id="83">3.2131e-12</wgt>
  <wgt id="84">3.2214e-12</wgt>
  <wgt id="85">3.21864e-12</wgt>
  <wgt id="86">3.27267e-12</wgt>
  <wgt id="87">3.19418e-12</wgt>
  <wgt id="88">3.25819e-12</wgt>
  <wgt id="89">3.25496e-12</wgt>
  <wgt id="90">3.26177e-12</wgt>
  <wgt id="91">3.2473e-12</wgt>
  <wgt id="92">3.25882e-12</wgt>
  <wgt id="93">3.24718e-12</wgt>
  <wgt id="94">3.22646e-12</wgt>
  <wgt id="95">3.25861e-12</wgt>
  <wgt id="96">3.25923e-12</wgt>
  <wgt id="97">3.21953e-12</wgt>
  <wgt id="98">3.24406e-12</wgt>
  <wgt id="99">3.23994e-12</wgt>
  <wgt id="100">3.24963e-12</wgt>
  <wgt id="101">3.23193e-12</wgt>
  <wgt id="102">3.23304e-12</wgt>
  <wgt id="103">3.26006e-12</wgt>
  <wgt id="104">3.23813e-12</wgt>
  <wgt id="105">3.26111e-12</wgt>
  <wgt id="106">3.22749e-12</wgt>
  <wgt id="107">3.27317e-12</wgt>
  <wgt id="108">3.2341e-12</wgt>
  <wgt id="109">3.23976e-12</wgt>
  <wgt id="110">3.24467e-12</wgt>
  <wgt id="111">3.22062e-12</wgt>
  <wgt id="112">3.3013e-12</wgt>
  <wgt id="113">4.95901e-12</wgt>
  <wgt id="114">4.26062e-12</wgt>
  <wgt id="115">4.18027e-12</wgt>
  <wgt id="116">5.94207e-12</wgt>
  <wgt id="117">3.60451e-12</wgt>
  <wgt id="118">3.61986e-12</wgt>
  <wgt id="119">3.59578e-12</wgt>
  <wgt id="120">3.60432e-12</wgt>
  <wgt id="121">3.60451e-12</wgt>
  <wgt id="122">3.59933e-12</wgt>
  <wgt id="123">3.61166e-12</wgt>
  <wgt id="124">3.60006e-12</wgt>
  <wgt id="125">3.60729e-12</wgt>
  <wgt id="126">3.60983e-12</wgt>
  <wgt id="127">3.60096e-12</wgt>
  <wgt id="128">3.61522e-12</wgt>
  <wgt id="129">3.59385e-12</wgt>
  <wgt id="130">3.62116e-12</wgt>
  <wgt id="131">3.5872e-12</wgt>
  <wgt id="132">3.49708e-12</wgt>
  <wgt id="133">3.73348e-12</wgt>
  <wgt id="134">3.56424e-12</wgt>
  <wgt id="135">3.63625e-12</wgt>
  <wgt id="136">3.66849e-12</wgt>
  <wgt id="137">3.52803e-12</wgt>
  <wgt id="138">3.79229e-12</wgt>
  <wgt id="139">3.42894e-12</wgt>
  <wgt id="140">3.59189e-12</wgt>
  <wgt id="141">3.61368e-12</wgt>
  <wgt id="142">3.60291e-12</wgt>
  <wgt id="143">3.61943e-12</wgt>
  <wgt id="144">3.4152e-12</wgt>
  <wgt id="145">3.79463e-12</wgt>
  <wgt id="146">3.66777e-12</wgt>
  <wgt id="147">3.55229e-12</wgt>
  <wgt id="148">3.61907e-12</wgt>
  <wgt id="149">3.60351e-12</wgt>
  <wgt id="150">3.63531e-12</wgt>
  <wgt id="151">3.59008e-12</wgt>
  <wgt id="152">3.60521e-12</wgt>
  <wgt id="153">3.60421e-12</wgt>
  <wgt id="154">3.59864e-12</wgt>
  <wgt id="155">3.60068e-12</wgt>
  <wgt id="156">3.77017e-12</wgt>
  <wgt id="157">3.46323e-12</wgt>
  <wgt id="158">4.29685e-12</wgt>
  <wgt id="159">4.3156e-12</wgt>
  <wgt id="160">4.28194e-12</wgt>
  <wgt id="161">4.28467e-12</wgt>
  <wgt id="162">4.31052e-12</wgt>
  <wgt id="163">4.2915e-12</wgt>
  <wgt id="164">4.30503e-12</wgt>
  <wgt id="165">4.29844e-12</wgt>
  <wgt id="166">4.2957e-12</wgt>
  <wgt id="167">4.29411e-12</wgt>
  <wgt id="168">4.30074e-12</wgt>
  <wgt id="169">4.28042e-12</wgt>
  <wgt id="170">4.30724e-12</wgt>
  <wgt id="171">4.29394e-12</wgt>
  <wgt id="172">4.30116e-12</wgt>
  <wgt id="173">4.28446e-12</wgt>
  <wgt id="174">4.30121e-12</wgt>
  <wgt id="175">4.16127e-12</wgt>
  <wgt id="176">4.47563e-12</wgt>
  <wgt id="177">4.31612e-12</wgt>
  <wgt id="178">4.27978e-12</wgt>
  <wgt id="179">4.55278e-12</wgt>
  <wgt id="180">3.91007e-12</wgt>
  <wgt id="181">4.13416e-12</wgt>
  <wgt id="182">4.40632e-12</wgt>
  <wgt id="183">4.19848e-12</wgt>
  <wgt id="184">4.34598e-12</wgt>
  <wgt id="185">4.24033e-12</wgt>
  <wgt id="186">4.36588e-12</wgt>
  <wgt id="187">4.24111e-12</wgt>
  <wgt id="188">4.39483e-12</wgt>
  <wgt id="189">4.25796e-12</wgt>
  <wgt id="190">4.3127e-12</wgt>
  <wgt id="191">4.31494e-12</wgt>
  <wgt id="192">4.28612e-12</wgt>
  <wgt id="193">4.38041e-12</wgt>
  <wgt id="194">4.25476e-12</wgt>
  <wgt id="195">4.09505e-12</wgt>
  <wgt id="196">4.61896e-12</wgt>
  <wgt id="197">4.32206e-12</wgt>
  <wgt id="198">4.29087e-12</wgt>
  <wgt id="199">4.29685e-12</wgt>
  <wgt id="200">4.34325e-12</wgt>
  <wgt id="201">4.32822e-12</wgt>
  <wgt id="202">4.31321e-12</wgt>
  <wgt id="203">4.29252e-12</wgt>
  <wgt id="204">4.28169e-12</wgt>
  <wgt id="205">4.273e-12</wgt>
  <wgt id="206">4.21032e-12</wgt>
  <wgt id="207">4.23641e-12</wgt>
  <wgt id="208">4.18454e-12</wgt>
  <wgt id="209">4.22491e-12</wgt>
  <wgt id="210">4.19971e-12</wgt>
  <wgt id="211">4.20847e-12</wgt>
  <wgt id="212">4.21174e-12</wgt>
  <wgt id="213">4.20998e-12</wgt>
  <wgt id="214">4.21075e-12</wgt>
  <wgt id="215">4.21401e-12</wgt>
  <wgt id="216">4.20774e-12</wgt>
  <wgt id="217">4.21958e-12</wgt>
  <wgt id="218">4.20311e-12</wgt>
  <wgt id="219">4.20641e-12</wgt>
  <wgt id="220">4.2127e-12</wgt>
  <wgt id="221">4.21342e-12</wgt>
  <wgt id="222">4.2015e-12</wgt>
  <wgt id="223">3.94431e-12</wgt>
  <wgt id="224">4.45569e-12</wgt>
  <wgt id="225">4.15386e-12</wgt>
  <wgt id="226">4.28253e-12</wgt>
  <wgt id="227">4.16686e-12</wgt>
  <wgt id="228">4.22934e-12</wgt>
  <wgt id="229">4.14449e-12</wgt>
  <wgt id="230">4.24306e-12</wgt>
  <wgt id="231">4.3755e-12</wgt>
  <wgt id="232">4.07612e-12</wgt>
  <wgt id="233">4.17848e-12</wgt>
  <wgt id="234">4.26458e-12</wgt>
  <wgt id="235">3.97082e-12</wgt>
  <wgt id="236">4.40263e-12</wgt>
  <wgt id="237">4.07536e-12</wgt>
  <wgt id="238">4.25508e-12</wgt>
  <wgt id="239">4.15698e-12</wgt>
  <wgt id="240">4.30573e-12</wgt>
  <wgt id="241">4.15019e-12</wgt>
  <wgt id="242">4.28114e-12</wgt>
  <wgt id="243">4.30799e-12</wgt>
  <wgt id="244">4.19824e-12</wgt>
  <wgt id="245">4.20953e-12</wgt>
  <wgt id="246">4.23066e-12</wgt>
  <wgt id="247">4.21032e-12</wgt>
  <wgt id="248">4.26233e-12</wgt>
  <wgt id="249">4.2452e-12</wgt>
  <wgt id="250">4.2258e-12</wgt>
  <wgt id="251">4.20145e-12</wgt>
  <wgt id="252">4.18807e-12</wgt>
  <wgt id="253">4.17942e-12</wgt>
  <wgt id="254">4.02576e-12</wgt>
  <wgt id="255">4.02953e-12</wgt>
  <wgt id="256">4.02189e-12</wgt>
  <wgt id="257">4.02897e-12</wgt>
  <wgt id="258">4.02362e-12</wgt>
  <wgt id="259">4.05315e-12</wgt>
  <wgt id="260">3.99943e-12</wgt>
  <wgt id="261">4.03426e-12</wgt>
  <wgt id="262">4.01581e-12</wgt>
  <wgt id="263">4.02207e-12</wgt>
  <wgt id="264">4.03041e-12</wgt>
  <wgt id="265">4.0203e-12</wgt>
  <wgt id="266">4.0371e-12</wgt>
  <wgt id="267">4.02722e-12</wgt>
  <wgt id="268">4.02373e-12</wgt>
  <wgt id="269">4.0394e-12</wgt>
  <wgt id="270">4.0167e-12</wgt>
  <wgt id="271">4.0125e-12</wgt>
  <wgt id="272">4.04076e-12</wgt>
  <wgt id="273">4.01499e-12</wgt>
  <wgt id="274">4.03413e-12</wgt>
  <wgt id="275">3.99529e-12</wgt>
  <wgt id="276">4.0575e-12</wgt>
  <wgt id="277">4.00253e-12</wgt>
  <wgt id="278">4.04694e-12</wgt>
  <wgt id="279">3.94457e-12</wgt>
  <wgt id="280">4.12859e-12</wgt>
  <wgt id="281">4.00237e-12</wgt>
  <wgt id="282">4.03738e-12</wgt>
  <wgt id="283">3.87431e-12</wgt>
  <wgt id="284">4.21717e-12</wgt>
  <wgt id="285">3.77906e-12</wgt>
  <wgt id="286">4.23823e-12</wgt>
  <wgt id="287">4.04163e-12</wgt>
  <wgt id="288">4.00585e-12</wgt>
  <wgt id="289">4.06313e-12</wgt>
  <wgt id="290">3.9457e-12</wgt>
  <wgt id="291">4.00758e-12</wgt>
  <wgt id="292">4.0231e-12</wgt>
  <wgt id="293">3.98546e-12</wgt>
  <wgt id="294">4.0661e-12</wgt>
  <wgt id="295">3.92885e-12</wgt>
  <wgt id="296">4.14503e-12</wgt>
  <wgt id="297">4.00692e-12</wgt>
  <wgt id="298">4.05223e-12</wgt>
  <wgt id="299">4.01062e-12</wgt>
  <wgt id="300">4.06671e-12</wgt>
  <wgt id="301">3.91535e-12</wgt>
  <wgt id="302">4.2717e-12</wgt>
  <wgt id="303">3.9667e-12</wgt>
  <wgt id="304">4.05859e-12</wgt>
  <wgt id="305">3.95447e-12</wgt>
  <wgt id="306">3.9581e-12</wgt>
  <wgt id="307">3.95044e-12</wgt>
  <wgt id="308">3.95768e-12</wgt>
  <wgt id="309">3.95212e-12</wgt>
  <wgt id="310">3.98184e-12</wgt>
  <wgt id="311">3.92897e-12</wgt>
  <wgt id="312">3.96257e-12</wgt>
  <wgt id="313">3.94559e-12</wgt>
  <wgt id="314">3.95021e-12</wgt>
  <wgt id="315">3.95832e-12</wgt>
  <wgt id="316">3.94871e-12</wgt>
  <wgt id="317">3.96696e-12</wgt>
  <wgt id="318">3.95767e-12</wgt>
  <wgt id="319">3.94867e-12</wgt>
  <wgt id="320">3.96911e-12</wgt>
  <wgt id="321">3.94617e-12</wgt>
  <wgt id="322">3.94061e-12</wgt>
  <wgt id="323">3.9705e-12</wgt>
  <wgt id="324">3.94687e-12</wgt>
  <wgt id="325">3.96093e-12</wgt>
  <wgt id="326">3.92928e-12</wgt>
  <wgt id="327">3.98676e-12</wgt>
  <wgt id="328">3.93545e-12</wgt>
  <wgt id="329">3.96464e-12</wgt>
  <wgt id="330">4.0746e-12</wgt>
  <wgt id="331">3.84064e-12</wgt>
  <wgt id="332">3.93479e-12</wgt>
  <wgt id="333">3.96229e-12</wgt>
  <wgt id="334">3.84164e-12</wgt>
  <wgt id="335">4.09712e-12</wgt>
  <wgt id="336">3.78284e-12</wgt>
  <wgt id="337">4.17053e-12</wgt>
  <wgt id="338">4.00886e-12</wgt>
  <wgt id="339">3.90472e-12</wgt>
  <wgt id="340">3.98685e-12</wgt>
  <wgt id="341">3.87627e-12</wgt>
  <wgt id="342">3.94189e-12</wgt>
  <wgt id="343">3.94178e-12</wgt>
  <wgt id="344">3.92006e-12</wgt>
  <wgt id="345">3.99437e-12</wgt>
  <wgt id="346">3.8567e-12</wgt>
  <wgt id="347">4.06607e-12</wgt>
  <wgt id="348">3.93541e-12</wgt>
  <wgt id="349">3.9792e-12</wgt>
  <wgt id="350">3.936e-12</wgt>
  <wgt id="351">4.00159e-12</wgt>
  <wgt id="352">3.84514e-12</wgt>
  <wgt id="353">4.1862e-12</wgt>
  <wgt id="354">3.87308e-12</wgt>
  <wgt id="355">4.0021e-12</wgt>
  <wgt id="356">4.02576e-12</wgt>
  <wgt id="357">3.94811e-12</wgt>
  <wgt id="358">3.95447e-12</wgt>
  <wgt id="359">4.01378e-12</wgt>
  <wgt id="360">4.13061e-12</wgt>
  <wgt id="361">4.05367e-12</wgt>
  <wgt id="362">4.14904e-12</wgt>
  <wgt id="363">4.13673e-12</wgt>
  <wgt id="364">4.11067e-12</wgt>
  <wgt id="365">4.09233e-12</wgt>
  <wgt id="366">4.0745e-12</wgt>
  <wgt id="367">4.04243e-12</wgt>
  <wgt id="368">4.02055e-12</wgt>
  <wgt id="369">3.99692e-12</wgt>
  <wgt id="370">4.05367e-12</wgt>
  <wgt id="371">4.07019e-12</wgt>
  <wgt id="372">4.06085e-12</wgt>
  <wgt id="373">4.04789e-12</wgt>
  <wgt id="374">4.05756e-12</wgt>
  <wgt id="375">4.91073e-12</wgt>
  <wgt id="376">4.91112e-12</wgt>
  <wgt id="377">4.91014e-12</wgt>
  <wgt id="378">4.93031e-12</wgt>
  <wgt id="379">4.89119e-12</wgt>
  <wgt id="380">4.92522e-12</wgt>
  <wgt id="381">4.90485e-12</wgt>
  <wgt id="382">4.93387e-12</wgt>
  <wgt id="383">4.88782e-12</wgt>
  <wgt id="384">4.91404e-12</wgt>
  <wgt id="385">4.9076e-12</wgt>
  <wgt id="386">4.92578e-12</wgt>
  <wgt id="387">4.90426e-12</wgt>
  <wgt id="388">4.90637e-12</wgt>
  <wgt id="389">4.91592e-12</wgt>
  <wgt id="390">4.92115e-12</wgt>
  <wgt id="391">4.89952e-12</wgt>
  <wgt id="392">4.85883e-12</wgt>
  <wgt id="393">4.9401e-12</wgt>
  <wgt id="394">4.91255e-12</wgt>
  <wgt id="395">4.90802e-12</wgt>
  <wgt id="396">4.92307e-12</wgt>
  <wgt id="397">4.90196e-12</wgt>
  <wgt id="398">4.90424e-12</wgt>
  <wgt id="399">4.91714e-12</wgt>
  <wgt id="400">4.90129e-12</wgt>
  <wgt id="401">4.93239e-12</wgt>
  <wgt id="402">4.85479e-12</wgt>
  <wgt id="403">4.95286e-12</wgt>
  <wgt id="404">5.08626e-12</wgt>
  <wgt id="405">4.49895e-12</wgt>
  <wgt id="406">4.78508e-12</wgt>
  <wgt id="407">5.1937e-12</wgt>
  <wgt id="408">4.97703e-12</wgt>
  <wgt id="409">4.79052e-12</wgt>
  <wgt id="410">4.70877e-12</wgt>
  <wgt id="411">5.01001e-12</wgt>
  <wgt id="412">4.89709e-12</wgt>
  <wgt id="413">4.9307e-12</wgt>
  <wgt id="414">4.83086e-12</wgt>
  <wgt id="415">4.97281e-12</wgt>
  <wgt id="416">5.12317e-12</wgt>
  <wgt id="417">4.62282e-12</wgt>
  <wgt id="418">4.92335e-12</wgt>
  <wgt id="419">4.84252e-12</wgt>
  <wgt id="420">5.08393e-12</wgt>
  <wgt id="421">4.79216e-12</wgt>
  <wgt id="422">4.85815e-12</wgt>
  <wgt id="423">4.93447e-12</wgt>
  <wgt id="424">5.11188e-12</wgt>
  <wgt id="425">4.77227e-12</wgt>
  <wgt id="426">4.91073e-12</wgt>
  <wgt id="427">4.7626e-12</wgt>
  <wgt id="428">5.23159e-12</wgt>
  <wgt id="429">5.00167e-12</wgt>
  <wgt id="430">5.20288e-12</wgt>
  <wgt id="431">5.16065e-12</wgt>
  <wgt id="432">5.12413e-12</wgt>
  <wgt id="433">5.08805e-12</wgt>
  <wgt id="434">5.04052e-12</wgt>
  <wgt id="435">4.95336e-12</wgt>
  <wgt id="436">4.91011e-12</wgt>
  <wgt id="437">4.86715e-12</wgt>
  <wgt id="438">5.00167e-12</wgt>
  <wgt id="439">5.01647e-12</wgt>
  <wgt id="440">5.00691e-12</wgt>
  <wgt id="441">4.9985e-12</wgt>
  <wgt id="442">4.99641e-12</wgt>
  <wgt id="443">4.21474e-12</wgt>
  <wgt id="444">4.27406e-12</wgt>
  <wgt id="445">4.28922e-12</wgt>
  <wgt id="446">4.18613e-12</wgt>
  <wgt id="447">4.21168e-12</wgt>
  <wgt id="448">4.11319e-12</wgt>
  <wgt id="449">4.33264e-12</wgt>
  <wgt id="450">4.29742e-12</wgt>
  <wgt id="451">4.2012e-12</wgt>
  <wgt id="452">4.31195e-12</wgt>
  <wgt id="453">4.29682e-12</wgt>
  <wgt id="454">3.94959e-12</wgt>
  <wgt id="455">4.26891e-12</wgt>
  <wgt id="456">4.33106e-12</wgt>
  <wgt id="457">4.23029e-12</wgt>
  <wgt id="458">4.30282e-12</wgt>
  <wgt id="459">4.2548e-12</wgt>
  <wgt id="460">4.3396e-12</wgt>
  <wgt id="461">4.09131e-12</wgt>
  <wgt id="462">4.17723e-12</wgt>
  <wgt id="463">4.1337e-12</wgt>
  <wgt id="464">4.19279e-12</wgt>
  <wgt id="465">4.26273e-12</wgt>
  <wgt id="466">4.06177e-12</wgt>
  <wgt id="467">4.18497e-12</wgt>
  <wgt id="468">4.21939e-12</wgt>
  <wgt id="469">4.1966e-12</wgt>
  <wgt id="470">4.12728e-12</wgt>
  <wgt id="471">4.14344e-12</wgt>
  <wgt id="472">4.2554e-12</wgt>
  <wgt id="473">4.04903e-12</wgt>
  <wgt id="474">3.0282e-12</wgt>
  <wgt id="475">3.05182e-12</wgt>
  <wgt id="476">3.07068e-12</wgt>
  <wgt id="477">3.20681e-12</wgt>
  <wgt id="478">3.13753e-12</wgt>
  <wgt id="479">2.76563e-12</wgt>
  <wgt id="480">3.24683e-12</wgt>
  <wgt id="481">3.06279e-12</wgt>
  <wgt id="482">3.11083e-12</wgt>
  <wgt id="483">3.23836e-12</wgt>
  <wgt id="484">3.21872e-12</wgt>
  <wgt id="485">2.67625e-12</wgt>
  <wgt id="486">3.17958e-12</wgt>
  <wgt id="487">2.86296e-12</wgt>
  <wgt id="488">2.98616e-12</wgt>
  <wgt id="489">2.53777e-12</wgt>
  <wgt id="490">3.04428e-12</wgt>
  <wgt id="491">2.95847e-12</wgt>
  <wgt id="492">2.96935e-12</wgt>
  <wgt id="493">2.66223e-12</wgt>
  <wgt id="494">2.64722e-12</wgt>
  <wgt id="495">3.1073e-12</wgt>
  <wgt id="496">2.76147e-12</wgt>
  <wgt id="497">2.77458e-12</wgt>
  <wgt id="498">3.10268e-12</wgt>
  <wgt id="499">3.10996e-12</wgt>
  <wgt id="500">3.12321e-12</wgt>
  <wgt id="501">3.22104e-12</wgt>
  <wgt id="502">3.32648e-12</wgt>
  <wgt id="503">2.92225e-12</wgt>
  <wgt id="504">3.14771e-12</wgt>
  <wgt id="505">3.26299e-12</wgt>
  <wgt id="506">2.60406e-12</wgt>
  <wgt id="507">2.83607e-12</wgt>
  <wgt id="508">3.22672e-12</wgt>
  <wgt id="509">3.00847e-12</wgt>
  <wgt id="510">2.98708e-12</wgt>
  <wgt id="511">2.82943e-12</wgt>
  <wgt id="512">3.35331e-12</wgt>
  <wgt id="513">3.25134e-12</wgt>
  <wgt id="514">3.35712e-12</wgt>
  <wgt id="515">3.27508e-12</wgt>
  <wgt id="516">3.48942e-12</wgt>
  <wgt id="517">3.11536e-12</wgt>
  <wgt id="518">3.23703e-12</wgt>
  <wgt id="519">2.91156e-12</wgt>
  <wgt id="520">2.97488e-12</wgt>
  <wgt id="521">2.84159e-12</wgt>
  <wgt id="522">3.11194e-12</wgt>
  <wgt id="523">2.86367e-12</wgt>
  <wgt id="524">3.2061e-12</wgt>
  <wgt id="525">2.8664e-12</wgt>
  <wgt id="526">3.31783e-12</wgt>
  <wgt id="527">2.98756e-12</wgt>
  <wgt id="528">2.93662e-12</wgt>
  <wgt id="529">2.71071e-12</wgt>
  <wgt id="530">3.26719e-12</wgt>
  <wgt id="531">2.84035e-12</wgt>
  <wgt id="532">3.33801e-12</wgt>
  <wgt id="533">3.12692e-12</wgt>
  <wgt id="534">2.78006e-12</wgt>
  <wgt id="535">3.16743e-12</wgt>
  <wgt id="536">3.23369e-12</wgt>
  <wgt id="537">2.74507e-12</wgt>
  <wgt id="538">2.98472e-12</wgt>
  <wgt id="539">2.94221e-12</wgt>
  <wgt id="540">3.11573e-12</wgt>
  <wgt id="541">3.01428e-12</wgt>
  <wgt id="542">2.85656e-12</wgt>
  <wgt id="543">2.80642e-12</wgt>
  <wgt id="544">3.02037e-12</wgt>
  <wgt id="545">2.76568e-12</wgt>
  <wgt id="546">2.70358e-12</wgt>
  <wgt id="547">2.84349e-12</wgt>
  <wgt id="548">3.00745e-12</wgt>
  <wgt id="549">2.96267e-12</wgt>
  <wgt id="550">2.76535e-12</wgt>
  <wgt id="551">2.96869e-12</wgt>
  <wgt id="552">2.8494e-12</wgt>
  <wgt id="553">2.6849e-12</wgt>
  <wgt id="554">3.13823e-12</wgt>
  <wgt id="555">3.08486e-12</wgt>
  <wgt id="556">3.04428e-12</wgt>
  <wgt id="557">3.01797e-12</wgt>
  <wgt id="558">3.01957e-12</wgt>
  <wgt id="559">3.15719e-12</wgt>
  <wgt id="560">3.36048e-12</wgt>
  <wgt id="561">3.25822e-12</wgt>
  <wgt id="562">3.15769e-12</wgt>
  <wgt id="563">3.3207e-12</wgt>
  <wgt id="564">3.29348e-12</wgt>
  <wgt id="565">3.35555e-12</wgt>
  <wgt id="566">2.73836e-12</wgt>
  <wgt id="567">3.08423e-12</wgt>
  <wgt id="568">2.79069e-12</wgt>
  <wgt id="569">3.07296e-12</wgt>
  <wgt id="570">3.22443e-12</wgt>
  <wgt id="571">3.42541e-12</wgt>
  <wgt id="572">2.82303e-12</wgt>
  <wgt id="573">2.94063e-12</wgt>
  <wgt id="574">2.99672e-12</wgt>
  <wgt id="575">3.34294e-12</wgt>
  <wgt id="576">3.81304e-12</wgt>
  <wgt id="577">3.38554e-12</wgt>
  <wgt id="578">3.22078e-12</wgt>
  <wgt id="579">3.47601e-12</wgt>
  <wgt id="580">3.51651e-12</wgt>
  <wgt id="581">3.71135e-12</wgt>
  <wgt id="582">3.67327e-12</wgt>
  <wgt id="583">3.5085e-12</wgt>
  <wgt id="584">3.32275e-12</wgt>
  <wgt id="585">2.98259e-12</wgt>
  <wgt id="586">3.07902e-12</wgt>
  <wgt id="587">3.41771e-12</wgt>
  <wgt id="588">3.99234e-12</wgt>
  <wgt id="589">3.87294e-12</wgt>
  <wgt id="590">3.38217e-12</wgt>
  <wgt id="591">3.45383e-12</wgt>
  <wgt id="592">3.22073e-12</wgt>
  <wgt id="593">3.1937e-12</wgt>
  <wgt id="594">3.11538e-12</wgt>
  <wgt id="595">3.71972e-12</wgt>
  <wgt id="596">3.96274e-12</wgt>
  <wgt id="597">3.42652e-12</wgt>
  <wgt id="598">3.56812e-12</wgt>
  <wgt id="599">3.67304e-12</wgt>
  <wgt id="600">3.89237e-12</wgt>
  <wgt id="601">3.16586e-12</wgt>
  <wgt id="602">3.13065e-12</wgt>
  <wgt id="603">2.9957e-12</wgt>
  <wgt id="604">3.52846e-12</wgt>
  <wgt id="605">3.27939e-12</wgt>
  <wgt id="606">3.30503e-12</wgt>
  <wgt id="607">3.65203e-12</wgt>
  <wgt id="608">3.46576e-12</wgt>
  <wgt id="609">3.25895e-12</wgt>
  <wgt id="610">3.10916e-12</wgt>
  <wgt id="611">3.08688e-12</wgt>
  <wgt id="612">3.37647e-12</wgt>
  <wgt id="613">3.08689e-12</wgt>
  <wgt id="614">3.33711e-12</wgt>
  <wgt id="615">3.53943e-12</wgt>
  <wgt id="616">2.95418e-12</wgt>
  <wgt id="617">3.51121e-12</wgt>
  <wgt id="618">3.70627e-12</wgt>
  <wgt id="619">3.27823e-12</wgt>
  <wgt id="620">3.4009e-12</wgt>
  <wgt id="621">3.28486e-12</wgt>
  <wgt id="622">3.41771e-12</wgt>
  <wgt id="623">3.27807e-12</wgt>
  <wgt id="624">3.30568e-12</wgt>
  <wgt id="625">3.11712e-12</wgt>
  <wgt id="626">2.62366e-12</wgt>
  <wgt id="627">2.87364e-12</wgt>
  <wgt id="628">3.30135e-12</wgt>
  <wgt id="629">3.84165e-12</wgt>
  <wgt id="630">3.32298e-12</wgt>
  <wgt id="631">3.55128e-12</wgt>
  <wgt id="632">2.99027e-12</wgt>
  <wgt id="633">3.30733e-12</wgt>
  <wgt id="634">3.12307e-12</wgt>
  <wgt id="635">3.08292e-12</wgt>
  <wgt id="636">3.29591e-12</wgt>
  <wgt id="637">3.42124e-12</wgt>
  <wgt id="638">3.11899e-12</wgt>
  <wgt id="639">3.07729e-12</wgt>
  <wgt id="640">3.14422e-12</wgt>
  <wgt id="641">3.58591e-12</wgt>
  <wgt id="642">2.82872e-12</wgt>
  <wgt id="643">3.19785e-12</wgt>
  <wgt id="644">3.03111e-12</wgt>
  <wgt id="645">3.35906e-12</wgt>
  <wgt id="646">2.83576e-12</wgt>
  <wgt id="647">3.52432e-12</wgt>
  <wgt id="648">3.63878e-12</wgt>
  <wgt id="649">3.40422e-12</wgt>
  <wgt id="650">3.26709e-12</wgt>
  <wgt id="651">3.57088e-12</wgt>
  <wgt id="652">3.13347e-12</wgt>
  <wgt id="653">3.17756e-12</wgt>
  <wgt id="654">3.41111e-12</wgt>
  <wgt id="655">3.02903e-12</wgt>
  <wgt id="656">3.39117e-12</wgt>
  <wgt id="657">3.73142e-12</wgt>
  <wgt id="658">3.30196e-12</wgt>
  <wgt id="659">3.21173e-12</wgt>
  <wgt id="660">3.05961e-12</wgt>
  <wgt id="661">3.19236e-12</wgt>
  <wgt id="662">3.2925e-12</wgt>
  <wgt id="663">3.46398e-12</wgt>
  <wgt id="664">3.50709e-12</wgt>
  <wgt id="665">3.22688e-12</wgt>
  <wgt id="666">3.2256e-12</wgt>
  <wgt id="667">3.56672e-12</wgt>
  <wgt id="668">3.24496e-12</wgt>
  <wgt id="669">3.23835e-12</wgt>
  <wgt id="670">3.5802e-12</wgt>
  <wgt id="671">3.42791e-12</wgt>
  <wgt id="672">3.43541e-12</wgt>
  <wgt id="673">3.72882e-12</wgt>
  <wgt id="674">3.18794e-12</wgt>
  <wgt id="675">3.08824e-12</wgt>
  <wgt id="676">4.44425e-12</wgt>
  <wgt id="677">4.4438e-12</wgt>
  <wgt id="678">5.10613e-12</wgt>
  <wgt id="679">4.97437e-12</wgt>
  <wgt id="680">4.5182e-12</wgt>
  <wgt id="681">4.23034e-12</wgt>
  <wgt id="682">4.73741e-12</wgt>
  <wgt id="683">3.82724e-12</wgt>
  <wgt id="684">4.85938e-12</wgt>
  <wgt id="685">4.5316e-12</wgt>
  <wgt id="686">4.79765e-12</wgt>
  <wgt id="687">4.52814e-12</wgt>
  <wgt id="688">4.2934e-12</wgt>
  <wgt id="689">4.80741e-12</wgt>
  <wgt id="690">4.65435e-12</wgt>
  <wgt id="691">4.54689e-12</wgt>
  <wgt id="692">4.24606e-12</wgt>
  <wgt id="693">6.67229e-12</wgt>
  <wgt id="694">5.11228e-12</wgt>
  <wgt id="695">3.91358e-12</wgt>
  <wgt id="696">4.04518e-12</wgt>
  <wgt id="697">3.67117e-12</wgt>
  <wgt id="698">3.32053e-12</wgt>
  <wgt id="699">3.59779e-12</wgt>
  <wgt id="700">3.84601e-12</wgt>
  <wgt id="701">4.45655e-12</wgt>
  <wgt id="702">4.05559e-12</wgt>
  <wgt id="703">6.11962e-12</wgt>
  <wgt id="704">5.15563e-12</wgt>
  <wgt id="705">5.0667e-12</wgt>
  <wgt id="706">3.8951e-12</wgt>
  <wgt id="707">4.02719e-12</wgt>
  <wgt id="708">4.03198e-12</wgt>
  <wgt id="709">4.19541e-12</wgt>
  <wgt id="710">3.09509e-12</wgt>
  <wgt id="711">5.07061e-12</wgt>
  <wgt id="712">4.07603e-12</wgt>
  <wgt id="713">4.80703e-12</wgt>
  <wgt id="714">3.71232e-12</wgt>
  <wgt id="715">4.05012e-12</wgt>
  <wgt id="716">4.20063e-12</wgt>
  <wgt id="717">3.50017e-12</wgt>
  <wgt id="718">4.541e-12</wgt>
  <wgt id="719">4.07814e-12</wgt>
  <wgt id="720">4.76281e-12</wgt>
  <wgt id="721">3.68371e-12</wgt>
  <wgt id="722">2.96466e-12</wgt>
  <wgt id="723">5.35854e-12</wgt>
  <wgt id="724">4.99481e-12</wgt>
  <wgt id="725">4.74358e-12</wgt>
  <wgt id="726">4.40214e-12</wgt>
  <wgt id="727">4.55754e-12</wgt>
  <wgt id="728">4.62886e-12</wgt>
  <wgt id="729">3.58346e-12</wgt>
  <wgt id="730">5.15176e-12</wgt>
  <wgt id="731">4.42804e-12</wgt>
  <wgt id="732">5.43635e-12</wgt>
  <wgt id="733">3.94925e-12</wgt>
  <wgt id="734">4.68699e-12</wgt>
  <wgt id="735">4.24775e-12</wgt>
  <wgt id="736">3.93313e-12</wgt>
  <wgt id="737">3.51272e-12</wgt>
  <wgt id="738">4.14639e-12</wgt>
  <wgt id="739">4.56496e-12</wgt>
  <wgt id="740">5.73037e-12</wgt>
  <wgt id="741">5.06209e-12</wgt>
  <wgt id="742">3.89366e-12</wgt>
  <wgt id="743">3.92451e-12</wgt>
  <wgt id="744">4.27051e-12</wgt>
  <wgt id="745">5.1844e-12</wgt>
  <wgt id="746">5.3517e-12</wgt>
  <wgt id="747">3.47546e-12</wgt>
  <wgt id="748">4.14438e-12</wgt>
  <wgt id="749">4.78092e-12</wgt>
  <wgt id="750">4.904e-12</wgt>
  <wgt id="751">4.54237e-12</wgt>
  <wgt id="752">3.86965e-12</wgt>
  <wgt id="753">3.77672e-12</wgt>
  <wgt id="754">4.64171e-12</wgt>
  <wgt id="755">4.22043e-12</wgt>
  <wgt id="756">4.19127e-12</wgt>
  <wgt id="757">3.59873e-12</wgt>
  <wgt id="758">4.30908e-12</wgt>
  <wgt id="759">4.80645e-12</wgt>
  <wgt id="760">4.06345e-12</wgt>
  <wgt id="761">5.25719e-12</wgt>
  <wgt id="762">5.30011e-12</wgt>
  <wgt id="763">4.89929e-12</wgt>
  <wgt id="764">4.99194e-12</wgt>
  <wgt id="765">4.53099e-12</wgt>
  <wgt id="766">4.64336e-12</wgt>
  <wgt id="767">4.6147e-12</wgt>
  <wgt id="768">3.87627e-12</wgt>
  <wgt id="769">4.64187e-12</wgt>
  <wgt id="770">3.77918e-12</wgt>
  <wgt id="771">5.918e-12</wgt>
  <wgt id="772">4.24628e-12</wgt>
  <wgt id="773">4.60334e-12</wgt>
  <wgt id="774">3.30447e-12</wgt>
  <wgt id="775">4.72943e-12</wgt>
  <wgt id="776">5.73263e-12</wgt>
  <wgt id="777">3.50775e-12</wgt>
  <wgt id="778">2.44103e-12</wgt>
  <wgt id="779">9.05928e-13</wgt>
  <wgt id="780">1.5953e-20</wgt>
  <wgt id="781">2.61002e-12</wgt>
  <wgt id="782">3.14873e-12</wgt>
  <wgt id="783">3.513e-13</wgt>
  <wgt id="784">1.02554e-12</wgt>
  <wgt id="785">4.31598e-12</wgt>
  <wgt id="786">1.57065e-13</wgt>
  <wgt id="787">3.7921e-12</wgt>
  <wgt id="788">1.5385e-20</wgt>
  <wgt id="789">9.19326e-13</wgt>
  <wgt id="790">4.46237e-13</wgt>
  <wgt id="791">3.06783e-12</wgt>
  <wgt id="792">3.51849e-12</wgt>
  <wgt id="793">1.86591e-12</wgt>
  <wgt id="794">2.38692e-13</wgt>
  <wgt id="795">4.15683e-12</wgt>
  <wgt id="796">4.11467e-12</wgt>
  <wgt id="797">3.50878e-12</wgt>
  <wgt id="798">1.40182e-12</wgt>
  <wgt id="799">3.8799e-12</wgt>
  <wgt id="800">1.42291e-12</wgt>
  <wgt id="801">3.01162e-12</wgt>
  <wgt id="802">2.6802e-13</wgt>
  <wgt id="803">4.45094e-12</wgt>
  <wgt id="804">4.17396e-12</wgt>
  <wgt id="805">4.04892e-12</wgt>
  <wgt id="806">3.04936e-12</wgt>
  <wgt id="807">2.52679e-12</wgt>
  <wgt id="808">2.5921e-12</wgt>
  <wgt id="809">1.96924e-12</wgt>
  <wgt id="810">4.42805e-12</wgt>
  <wgt id="811">2.7483e-12</wgt>
  <wgt id="812">3.92964e-13</wgt>
  <wgt id="813">5.89758e-13</wgt>
  <wgt id="814">1.21342e-12</wgt>
  <wgt id="815">4.90854e-13</wgt>
  <wgt id="816">8.6788e-13</wgt>
  <wgt id="817">2.71804e-12</wgt>
  <wgt id="818">4.00142e-12</wgt>
  <wgt id="819">8.36619e-13</wgt>
  <wgt id="820">2.09762e-12</wgt>
  <wgt id="821">3.43755e-12</wgt>
  <wgt id="822">1.68392e-12</wgt>
  <wgt id="823">3.81882e-12</wgt>
  <wgt id="824">4.0823e-12</wgt>
  <wgt id="825">1.59057e-20</wgt>
  <wgt id="826">3.95432e-12</wgt>
  <wgt id="827">1.41619e-14</wgt>
  <wgt id="828">3.47154e-12</wgt>
  <wgt id="829">2.65019e-12</wgt>
  <wgt id="830">1.57186e-20</wgt>
  <wgt id="831">3.45092e-12</wgt>
  <wgt id="832">5.45922e-12</wgt>
  <wgt id="833">1.6096e-12</wgt>
  <wgt id="834">5.4668e-12</wgt>
  <wgt id="835">1.03315e-12</wgt>
  <wgt id="836">1.45095e-12</wgt>
  <wgt id="837">3.3293e-12</wgt>
  <wgt id="838">1.40076e-12</wgt>
  <wgt id="839">3.58391e-12</wgt>
  <wgt id="840">1.94757e-12</wgt>
  <wgt id="841">4.07912e-12</wgt>
  <wgt id="842">2.71689e-12</wgt>
  <wgt id="843">2.63263e-12</wgt>
  <wgt id="844">3.19712e-12</wgt>
  <wgt id="845">5.59093e-12</wgt>
  <wgt id="846">1.87707e-12</wgt>
  <wgt id="847">2.92067e-12</wgt>
  <wgt id="848">4.78533e-13</wgt>
  <wgt id="849">3.16696e-12</wgt>
  <wgt id="850">4.96926e-12</wgt>
  <wgt id="851">3.4191e-12</wgt>
  <wgt id="852">1.61149e-20</wgt>
  <wgt id="853">3.62132e-12</wgt>
  <wgt id="854">4.40575e-12</wgt>
  <wgt id="855">3.48345e-12</wgt>
  <wgt id="856">1.57604e-20</wgt>
  <wgt id="857">1.67052e-12</wgt>
  <wgt id="858">2.62512e-12</wgt>
  <wgt id="859">2.38833e-12</wgt>
  <wgt id="860">3.50531e-12</wgt>
  <wgt id="861">1.59953e-12</wgt>
  <wgt id="862">2.77576e-12</wgt>
  <wgt id="863">3.33815e-12</wgt>
  <wgt id="864">2.51954e-12</wgt>
  <wgt id="865">5.11047e-12</wgt>
  <wgt id="866">5.44118e-12</wgt>
  <wgt id="867">2.52032e-12</wgt>
  <wgt id="868">3.03118e-12</wgt>
  <wgt id="869">4.25649e-13</wgt>
  <wgt id="870">1.19399e-12</wgt>
  <wgt id="871">1.577e-12</wgt>
  <wgt id="872">4.76186e-12</wgt>
  <wgt id="873">1.62855e-12</wgt>
  <wgt id="874">3.13844e-12</wgt>
  <wgt id="875">1.31564e-12</wgt>
  <wgt id="876">4.3795e-12</wgt>
  <wgt id="877">3.19024e-12</wgt>
  <wgt id="878">1.70674e-12</wgt>
  <wgt id="879">4.44425e-12</wgt>
  <wgt id="880">4.4438e-12</wgt>
  <wgt id="881">5.10613e-12</wgt>
  <wgt id="882">4.97437e-12</wgt>
  <wgt id="883">4.5182e-12</wgt>
  <wgt id="884">4.23034e-12</wgt>
  <wgt id="885">4.73741e-12</wgt>
  <wgt id="886">3.82724e-12</wgt>
  <wgt id="887">4.85938e-12</wgt>
  <wgt id="888">4.5316e-12</wgt>
  <wgt id="889">4.79765e-12</wgt>
  <wgt id="890">4.52814e-12</wgt>
  <wgt id="891">4.2934e-12</wgt>
  <wgt id="892">4.80741e-12</wgt>
  <wgt id="893">4.65435e-12</wgt>
  <wgt id="894">4.54689e-12</wgt>
  <wgt id="895">4.24606e-12</wgt>
  <wgt id="896">6.67229e-12</wgt>
  <wgt id="897">5.11228e-12</wgt>
  <wgt id="898">3.91358e-12</wgt>
  <wgt id="899">4.04518e-12</wgt>
  <wgt id="900">3.67117e-12</wgt>
  <wgt id="901">3.32053e-12</wgt>
  <wgt id="902">3.59779e-12</wgt>
  <wgt id="903">3.84601e-12</wgt>
  <wgt id="904">4.45655e-12</wgt>
  <wgt id="905">4.05559e-12</wgt>
  <wgt id="906">6.11962e-12</wgt>
  <wgt id="907">5.15563e-12</wgt>
  <wgt id="908">5.0667e-12</wgt>
  <wgt id="909">3.8951e-12</wgt>
  <wgt id="910">4.02719e-12</wgt>
  <wgt id="911">4.03198e-12</wgt>
  <wgt id="912">4.19541e-12</wgt>
  <wgt id="913">3.09509e-12</wgt>
  <wgt id="914">5.07061e-12</wgt>
  <wgt id="915">4.07603e-12</wgt>
  <wgt id="916">4.80703e-12</wgt>
  <wgt id="917">3.71232e-12</wgt>
  <wgt id="918">4.05012e-12</wgt>
  <wgt id="919">4.20063e-12</wgt>
  <wgt id="920">3.50017e-12</wgt>
  <wgt id="921">4.541e-12</wgt>
  <wgt id="922">4.07814e-12</wgt>
  <wgt id="923">4.76281e-12</wgt>
  <wgt id="924">3.68371e-12</wgt>
  <wgt id="925">2.96466e-12</wgt>
  <wgt id="926">5.35854e-12</wgt>
  <wgt id="927">4.99481e-12</wgt>
  <wgt id="928">4.74358e-12</wgt>
  <wgt id="929">4.40214e-12</wgt>
  <wgt id="930">4.55754e-12</wgt>
  <wgt id="931">4.62886e-12</wgt>
  <wgt id="932">3.58346e-12</wgt>
  <wgt id="933">5.15176e-12</wgt>
  <wgt id="934">4.42804e-12</wgt>
  <wgt id="935">5.43635e-12</wgt>
  <wgt id="936">3.94925e-12</wgt>
  <wgt id="937">4.68699e-12</wgt>
  <wgt id="938">4.24775e-12</wgt>
  <wgt id="939">3.93313e-12</wgt>
  <wgt id="940">3.51272e-12</wgt>
  <wgt id="941">4.14639e-12</wgt>
  <wgt id="942">4.56496e-12</wgt>
  <wgt id="943">5.73037e-12</wgt>
  <wgt id="944">5.06209e-12</wgt>
  <wgt id="945">3.89366e-12</wgt>
  <wgt id="946">3.92451e-12</wgt>
  <wgt id="947">4.27051e-12</wgt>
  <wgt id="948">5.1844e-12</wgt>
  <wgt id="949">5.3517e-12</wgt>
  <wgt id="950">3.47546e-12</wgt>
  <wgt id="951">4.14438e-12</wgt>
  <wgt id="952">4.78092e-12</wgt>
  <wgt id="953">4.904e-12</wgt>
  <wgt id="954">4.54237e-12</wgt>
  <wgt id="955">3.86965e-12</wgt>
  <wgt id="956">3.77672e-12</wgt>
  <wgt id="957">4.64171e-12</wgt>
  <wgt id="958">4.22043e-12</wgt>
  <wgt id="959">4.19127e-12</wgt>
  <wgt id="960">3.59873e-12</wgt>
  <wgt id="961">4.30908e-12</wgt>
  <wgt id="962">4.80645e-12</wgt>
  <wgt id="963">4.06345e-12</wgt>
  <wgt id="964">5.25719e-12</wgt>
  <wgt id="965">5.30011e-12</wgt>
  <wgt id="966">4.89929e-12</wgt>
  <wgt id="967">4.99194e-12</wgt>
  <wgt id="968">4.53099e-12</wgt>
  <wgt id="969">4.64336e-12</wgt>
  <wgt id="970">4.6147e-12</wgt>
  <wgt id="971">3.87627e-12</wgt>
  <wgt id="972">4.64187e-12</wgt>
  <wgt id="973">3.77918e-12</wgt>
  <wgt id="974">5.918e-12</wgt>
  <wgt id="975">4.24628e-12</wgt>
  <wgt id="976">4.60334e-12</wgt>
  <wgt id="977">3.30447e-12</wgt>
  <wgt id="978">4.72943e-12</wgt>
  <wgt id="979">5.73263e-12</wgt>
  <wgt id="980">4.40369e-12</wgt>
  <wgt id="981">4.64657e-12</wgt>
  <wgt id="982">4.35017e-12</wgt>
</rwgt>
</event>
<event>
 5   1  0.3028200E-11  0.2300832E+04  0.7818608E-02  0.7711923E-01
       21   -1    0    0  502  501  0.00000000000E+00  0.00000000000E+00  0.11192720120E+04  0.11192720120E+04  0.00000000000E+00 0. -1.
       21   -1    0    0  501  502 -0.00000000000E+00 -0.00000000000E+00 -0.11824268235E+04  0.11824268235E+04  0.00000000000E+00 0.  1.
       39    2    1    2    0    0  0.00000000000E+00  0.00000000000E+00 -0.63154811502E+02  0.23016988355E+04  0.23008322406E+04 0.  0.
       25    1    3    3    0    0  0.90397698976E+03  0.51972447927E+03  0.43822093630E+03  0.11379589278E+04  0.12500000000E+03 0.  0.
       25    1    3    3    0    0 -0.90397698976E+03 -0.51972447927E+03 -0.50137574780E+03  0.11637399077E+04  0.12500000000E+03 0.  0.
<mgrwt>
<rscale>  0 0.23008322E+04</rscale>
<asrwt>0</asrwt>
<pdfrwt beam="1">  1       21 0.17219569E+00 0.23008322E+04</pdfrwt>
<pdfrwt beam="2">  1       21 0.18191182E+00 0.23008322E+04</pdfrwt>
<totfact> 0.14014637E+01</totfact>
</mgrwt>
<rwgt>
  <wgt id="1">3.0282e-12</wgt>
  <wgt id="2">2.63813e-12</wgt>
  <wgt id="3">3.51212e-12</wgt>
  <wgt id="4">3.0282e-12</wgt>
  <wgt id="5">2.63813e-12</wgt>
  <wgt id="6">3.51212e-12</wgt>
  <wgt id="7">3.0282e-12</wgt>
  <wgt id="8">2.63813e-12</wgt>
  <wgt id="9">3.51212e-12</wgt>
  <wgt id="10">3.12547e-12</wgt>
  <wgt id="11">3.12204e-12</wgt>
  <wgt id="12">3.11916e-12</wgt>
  <wgt id="13">3.11446e-12</wgt>
  <wgt id="14">3.13688e-12</wgt>
  <wgt id="15">3.12991e-12</wgt>
  <wgt id="16">3.11852e-12</wgt>
  <wgt id="17">3.12972e-12</wgt>
  <wgt id="18">3.12021e-12</wgt>
  <wgt id="19">3.13244e-12</wgt>
  <wgt id="20">3.11559e-12</wgt>
  <wgt id="21">3.10903e-12</wgt>
  <wgt id="22">3.11658e-12</wgt>
  <wgt id="23">3.09941e-12</wgt>
  <wgt id="24">3.11246e-12</wgt>
  <wgt id="25">3.11827e-12</wgt>
  <wgt id="26">3.13932e-12</wgt>
  <wgt id="27">3.12575e-12</wgt>
  <wgt id="28">3.11129e-12</wgt>
  <wgt id="29">3.12876e-12</wgt>
  <wgt id="30">3.11963e-12</wgt>
  <wgt id="31">3.13272e-12</wgt>
  <wgt id="32">3.12123e-12</wgt>
  <wgt id="33">3.13316e-12</wgt>
  <wgt id="34">3.11697e-12</wgt>
  <wgt id="35">3.1243e-12</wgt>
  <wgt id="36">3.1342e-12</wgt>
  <wgt id="37">3.11757e-12</wgt>
  <wgt id="38">3.11695e-12</wgt>
  <wgt id="39">3.15548e-12</wgt>
  <wgt id="40">3.13337e-12</wgt>
  <wgt id="41">3.12505e-12</wgt>
  <wgt id="42">3.13424e-12</wgt>
  <wgt id="43">3.12752e-12</wgt>
  <wgt id="44">3.11284e-12</wgt>
  <wgt id="45">3.13186e-12</wgt>
  <wgt id="46">3.13121e-12</wgt>
  <wgt id="47">3.11031e-12</wgt>
  <wgt id="48">3.1254e-12</wgt>
  <wgt id="49">3.13703e-12</wgt>
  <wgt id="50">3.14764e-12</wgt>
  <wgt id="51">3.14154e-12</wgt>
  <wgt id="52">3.11677e-12</wgt>
  <wgt id="53">3.10208e-12</wgt>
  <wgt id="54">3.1178e-12</wgt>
  <wgt id="55">3.12494e-12</wgt>
  <wgt id="56">3.13532e-12</wgt>
  <wgt id="57">3.13671e-12</wgt>
  <wgt id="58">3.10214e-12</wgt>
  <wgt id="59">3.11389e-12</wgt>
  <wgt id="60">3.12589e-12</wgt>
  <wgt id="61">3.12189e-12</wgt>
  <wgt id="62">3.12633e-12</wgt>
  <wgt id="63">3.13046e-12</wgt>
  <wgt id="64">3.12939e-12</wgt>
  <wgt id="65">3.12816e-12</wgt>
  <wgt id="66">3.12137e-12</wgt>
  <wgt id="67">3.12263e-12</wgt>
  <wgt id="68">3.12184e-12</wgt>
  <wgt id="69">3.12445e-12</wgt>
  <wgt id="70">3.12253e-12</wgt>
  <wgt id="71">3.12436e-12</wgt>
  <wgt id="72">3.12273e-12</wgt>
  <wgt id="73">3.12763e-12</wgt>
  <wgt id="74">3.1276e-12</wgt>
  <wgt id="75">3.12489e-12</wgt>
  <wgt id="76">3.13404e-12</wgt>
  <wgt id="77">3.12505e-12</wgt>
  <wgt id="78">3.1265e-12</wgt>
  <wgt id="79">3.13051e-12</wgt>
  <wgt id="80">3.11251e-12</wgt>
  <wgt id="81">3.12126e-12</wgt>
  <wgt id="82">3.1255e-12</wgt>
  <wgt id="83">3.11402e-12</wgt>
  <wgt id="84">3.11844e-12</wgt>
  <wgt id="85">3.12068e-12</wgt>
  <wgt id="86">3.13146e-12</wgt>
  <wgt id="87">3.11111e-12</wgt>
  <wgt id="88">3.12909e-12</wgt>
  <wgt id="89">3.12828e-12</wgt>
  <wgt id="90">3.12877e-12</wgt>
  <wgt id="91">3.12731e-12</wgt>
  <wgt id="92">3.13091e-12</wgt>
  <wgt id="93">3.12461e-12</wgt>
  <wgt id="94">3.12289e-12</wgt>
  <wgt id="95">3.12681e-12</wgt>
  <wgt id="96">3.1276e-12</wgt>
  <wgt id="97">3.12197e-12</wgt>
  <wgt id="98">3.12699e-12</wgt>
  <wgt id="99">3.12504e-12</wgt>
  <wgt id="100">3.12843e-12</wgt>
  <wgt id="101">3.12406e-12</wgt>
  <wgt id="102">3.12226e-12</wgt>
  <wgt id="103">3.12966e-12</wgt>
  <wgt id="104">3.12274e-12</wgt>
  <wgt id="105">3.12781e-12</wgt>
  <wgt id="106">3.12199e-12</wgt>
  <wgt id="107">3.13295e-12</wgt>
  <wgt id="108">3.1227e-12</wgt>
  <wgt id="109">3.12697e-12</wgt>
  <wgt id="110">3.12468e-12</wgt>
  <wgt id="111">3.1598e-12</wgt>
  <wgt id="112">3.11896e-12</wgt>
  <wgt id="113">4.16728e-12</wgt>
  <wgt id="114">4.32941e-12</wgt>
  <wgt id="115">4.27149e-12</wgt>
  <wgt id="116">5.9606e-12</wgt>
  <wgt id="117">3.47196e-12</wgt>
  <wgt id="118">3.48386e-12</wgt>
  <wgt id="119">3.4653e-12</wgt>
  <wgt id="120">3.4723e-12</wgt>
  <wgt id="121">3.47169e-12</wgt>
  <wgt id="122">3.4659e-12</wgt>
  <wgt id="123">3.48049e-12</wgt>
  <wgt id="124">3.46708e-12</wgt>
  <wgt id="125">3.47532e-12</wgt>
  <wgt id="126">3.47832e-12</wgt>
  <wgt id="127">3.46777e-12</wgt>
  <wgt id="128">3.48294e-12</wgt>
  <wgt id="129">3.46106e-12</wgt>
  <wgt id="130">3.49229e-12</wgt>
  <wgt id="131">3.45113e-12</wgt>
  <wgt id="132">3.38266e-12</wgt>
  <wgt id="133">3.57739e-12</wgt>
  <wgt id="134">3.43514e-12</wgt>
  <wgt id="135">3.50073e-12</wgt>
  <wgt id="136">3.5153e-12</wgt>
  <wgt id="137">3.4195e-12</wgt>
  <wgt id="138">3.60332e-12</wgt>
  <wgt id="139">3.34466e-12</wgt>
  <wgt id="140">3.44841e-12</wgt>
  <wgt id="141">3.49045e-12</wgt>
  <wgt id="142">3.47258e-12</wgt>
  <wgt id="143">3.47631e-12</wgt>
  <wgt id="144">3.38032e-12</wgt>
  <wgt id="145">3.55655e-12</wgt>
  <wgt id="146">3.50118e-12</wgt>
  <wgt id="147">3.44904e-12</wgt>
  <wgt id="148">3.4824e-12</wgt>
  <wgt id="149">3.47134e-12</wgt>
  <wgt id="150">3.50195e-12</wgt>
  <wgt id="151">3.45795e-12</wgt>
  <wgt id="152">3.47352e-12</wgt>
  <wgt id="153">3.4714e-12</wgt>
  <wgt id="154">3.50169e-12</wgt>
  <wgt id="155">3.43697e-12</wgt>
  <wgt id="156">3.53518e-12</wgt>
  <wgt id="157">3.40369e-12</wgt>
  <wgt id="158">4.17744e-12</wgt>
  <wgt id="159">4.19476e-12</wgt>
  <wgt id="160">4.16344e-12</wgt>
  <wgt id="161">4.16706e-12</wgt>
  <wgt id="162">4.1891e-12</wgt>
  <wgt id="163">4.1731e-12</wgt>
  <wgt id="164">4.1841e-12</wgt>
  <wgt id="165">4.17909e-12</wgt>
  <wgt id="166">4.1764e-12</wgt>
  <wgt id="167">4.17442e-12</wgt>
  <wgt id="168">4.18175e-12</wgt>
  <wgt id="169">4.15967e-12</wgt>
  <wgt id="170">4.18882e-12</wgt>
  <wgt id="171">4.17281e-12</wgt>
  <wgt id="172">4.18403e-12</wgt>
  <wgt id="173">4.17788e-12</wgt>
  <wgt id="174">4.17717e-12</wgt>
  <wgt id="175">4.06143e-12</wgt>
  <wgt id="176">4.32845e-12</wgt>
  <wgt id="177">4.19958e-12</wgt>
  <wgt id="178">4.15701e-12</wgt>
  <wgt id="179">4.3475e-12</wgt>
  <wgt id="180">3.90868e-12</wgt>
  <wgt id="181">4.05873e-12</wgt>
  <wgt id="182">4.25571e-12</wgt>
  <wgt id="183">4.10489e-12</wgt>
  <wgt id="184">4.2137e-12</wgt>
  <wgt id="185">4.14496e-12</wgt>
  <wgt id="186">4.21663e-12</wgt>
  <wgt id="187">4.14095e-12</wgt>
  <wgt id="188">4.24377e-12</wgt>
  <wgt id="189">4.15154e-12</wgt>
  <wgt id="190">4.18822e-12</wgt>
  <wgt id="191">4.18855e-12</wgt>
  <wgt id="192">4.17101e-12</wgt>
  <wgt id="193">4.23544e-12</wgt>
  <wgt id="194">4.14891e-12</wgt>
  <wgt id="195">4.0813e-12</wgt>
  <wgt id="196">4.35231e-12</wgt>
  <wgt id="197">4.19792e-12</wgt>
  <wgt id="198">4.17272e-12</wgt>
  <wgt id="199">4.17744e-12</wgt>
  <wgt id="200">4.2126e-12</wgt>
  <wgt id="201">4.19955e-12</wgt>
  <wgt id="202">4.18714e-12</wgt>
  <wgt id="203">4.16816e-12</wgt>
  <wgt id="204">4.15917e-12</wgt>
  <wgt id="205">4.15186e-12</wgt>
  <wgt id="206">4.05377e-12</wgt>
  <wgt id="207">4.07739e-12</wgt>
  <wgt id="208">4.03049e-12</wgt>
  <wgt id="209">4.06597e-12</wgt>
  <wgt id="210">4.04484e-12</wgt>
  <wgt id="211">4.05243e-12</wgt>
  <wgt id="212">4.05505e-12</wgt>
  <wgt id="213">4.05341e-12</wgt>
  <wgt id="214">4.05439e-12</wgt>
  <wgt id="215">4.05669e-12</wgt>
  <wgt id="216">4.05176e-12</wgt>
  <wgt id="217">4.06553e-12</wgt>
  <wgt id="218">4.04487e-12</wgt>
  <wgt id="219">4.04948e-12</wgt>
  <wgt id="220">4.05637e-12</wgt>
  <wgt id="221">4.05182e-12</wgt>
  <wgt id="222">4.05847e-12</wgt>
  <wgt id="223">3.84342e-12</wgt>
  <wgt id="224">4.24531e-12</wgt>
  <wgt id="225">4.00629e-12</wgt>
  <wgt id="226">4.11345e-12</wgt>
  <wgt id="227">4.01619e-12</wgt>
  <wgt id="228">4.07027e-12</wgt>
  <wgt id="229">3.99828e-12</wgt>
  <wgt id="230">4.08145e-12</wgt>
  <wgt id="231">4.16646e-12</wgt>
  <wgt id="232">3.96116e-12</wgt>
  <wgt id="233">4.03325e-12</wgt>
  <wgt id="234">4.0854e-12</wgt>
  <wgt id="235">3.98088e-12</wgt>
  <wgt id="236">4.12412e-12</wgt>
  <wgt id="237">4.00258e-12</wgt>
  <wgt id="238">4.0715e-12</wgt>
  <wgt id="239">4.03133e-12</wgt>
  <wgt id="240">4.09462e-12</wgt>
  <wgt id="241">4.0141e-12</wgt>
  <wgt id="242">4.10187e-12</wgt>
  <wgt id="243">4.09988e-12</wgt>
  <wgt id="244">4.07784e-12</wgt>
  <wgt id="245">4.05085e-12</wgt>
  <wgt id="246">4.08462e-12</wgt>
  <wgt id="247">4.05377e-12</wgt>
  <wgt id="248">4.08768e-12</wgt>
  <wgt id="249">4.07454e-12</wgt>
  <wgt id="250">4.06264e-12</wgt>
  <wgt id="251">4.04425e-12</wgt>
  <wgt id="252">4.03574e-12</wgt>
  <wgt id="253">4.02951e-12</wgt>
  <wgt id="254">3.97529e-12</wgt>
  <wgt id="255">3.97917e-12</wgt>
  <wgt id="256">3.97107e-12</wgt>
  <wgt id="257">3.9782e-12</wgt>
  <wgt id="258">3.97304e-12</wgt>
  <wgt id="259">4.00191e-12</wgt>
  <wgt id="260">3.9497e-12</wgt>
  <wgt id="261">3.98058e-12</wgt>
  <wgt id="262">3.969e-12</wgt>
  <wgt id="263">3.97369e-12</wgt>
  <wgt id="264">3.9772e-12</wgt>
  <wgt id="265">3.97073e-12</wgt>
  <wgt id="266">3.98409e-12</wgt>
  <wgt id="267">3.97659e-12</wgt>
  <wgt id="268">3.97364e-12</wgt>
  <wgt id="269">3.98771e-12</wgt>
  <wgt id="270">3.96681e-12</wgt>
  <wgt id="271">3.96897e-12</wgt>
  <wgt id="272">3.98255e-12</wgt>
  <wgt id="273">3.96293e-12</wgt>
  <wgt id="274">3.98472e-12</wgt>
  <wgt id="275">3.95983e-12</wgt>
  <wgt id="276">3.99113e-12</wgt>
  <wgt id="277">3.95306e-12</wgt>
  <wgt id="278">3.99565e-12</wgt>
  <wgt id="279">3.89992e-12</wgt>
  <wgt id="280">4.06954e-12</wgt>
  <wgt id="281">3.9583e-12</wgt>
  <wgt id="282">3.97572e-12</wgt>
  <wgt id="283">3.86544e-12</wgt>
  <wgt id="284">4.11031e-12</wgt>
  <wgt id="285">3.79255e-12</wgt>
  <wgt id="286">4.12569e-12</wgt>
  <wgt id="287">3.98714e-12</wgt>
  <wgt id="288">3.95988e-12</wgt>
  <wgt id="289">4.00187e-12</wgt>
  <wgt id="290">3.91247e-12</wgt>
  <wgt id="291">3.96543e-12</wgt>
  <wgt id="292">3.97761e-12</wgt>
  <wgt id="293">3.94584e-12</wgt>
  <wgt id="294">4.00448e-12</wgt>
  <wgt id="295">3.90271e-12</wgt>
  <wgt id="296">4.06375e-12</wgt>
  <wgt id="297">3.9764e-12</wgt>
  <wgt id="298">3.9889e-12</wgt>
  <wgt id="299">3.96285e-12</wgt>
  <wgt id="300">4.00775e-12</wgt>
  <wgt id="301">3.92591e-12</wgt>
  <wgt id="302">4.10387e-12</wgt>
  <wgt id="303">3.94801e-12</wgt>
  <wgt id="304">3.99123e-12</wgt>
  <wgt id="305">3.99363e-12</wgt>
  <wgt id="306">3.99787e-12</wgt>
  <wgt id="307">3.98939e-12</wgt>
  <wgt id="308">3.99716e-12</wgt>
  <wgt id="309">3.9914e-12</wgt>
  <wgt id="310">4.0213e-12</wgt>
  <wgt id="311">3.9683e-12</wgt>
  <wgt id="312">3.99798e-12</wgt>
  <wgt id="313">3.9896e-12</wgt>
  <wgt id="314">3.99233e-12</wgt>
  <wgt id="315">3.99525e-12</wgt>
  <wgt id="316">3.9894e-12</wgt>
  <wgt id="317">4.00311e-12</wgt>
  <wgt id="318">3.99658e-12</wgt>
  <wgt id="319">3.98906e-12</wgt>
  <wgt id="320">4.00673e-12</wgt>
  <wgt id="321">3.98645e-12</wgt>
  <wgt id="322">3.9851e-12</wgt>
  <wgt id="323">4.00386e-12</wgt>
  <wgt id="324">3.98354e-12</wgt>
  <wgt id="325">4.00276e-12</wgt>
  <wgt id="326">3.98142e-12</wgt>
  <wgt id="327">4.0095e-12</wgt>
  <wgt id="328">3.97365e-12</wgt>
  <wgt id="329">4.00515e-12</wgt>
  <wgt id="330">4.11018e-12</wgt>
  <wgt id="331">3.88263e-12</wgt>
  <wgt id="332">3.97957e-12</wgt>
  <wgt id="333">3.99369e-12</wgt>
  <wgt id="334">3.90692e-12</wgt>
  <wgt id="335">4.10125e-12</wgt>
  <wgt id="336">3.86062e-12</wgt>
  <wgt id="337">4.15499e-12</wgt>
  <wgt id="338">4.0364e-12</wgt>
  <wgt id="339">3.95431e-12</wgt>
  <wgt id="340">4.01927e-12</wgt>
  <wgt id="341">3.92776e-12</wgt>
  <wgt id="342">3.98698e-12</wgt>
  <wgt id="343">3.99032e-12</wgt>
  <wgt id="344">3.96706e-12</wgt>
  <wgt id="345">4.02487e-12</wgt>
  <wgt id="346">3.91827e-12</wgt>
  <wgt id="347">4.08093e-12</wgt>
  <wgt id="348">3.99663e-12</wgt>
  <wgt id="349">4.00466e-12</wgt>
  <wgt id="350">3.97822e-12</wgt>
  <wgt id="351">4.03337e-12</wgt>
  <wgt id="352">3.93852e-12</wgt>
  <wgt id="353">4.12973e-12</wgt>
  <wgt id="354">3.9514e-12</wgt>
  <wgt id="355">4.01989e-12</wgt>
  <wgt id="356">3.97529e-12</wgt>
  <wgt id="357">4.01199e-12</wgt>
  <wgt id="358">3.99363e-12</wgt>
  <wgt id="359">3.99103e-12</wgt>
  <wgt id="360">3.99607e-12</wgt>
  <wgt id="361">3.98658e-12</wgt>
  <wgt id="362">4.05323e-12</wgt>
  <wgt id="363">4.04366e-12</wgt>
  <wgt id="364">4.03081e-12</wgt>
  <wgt id="365">4.01766e-12</wgt>
  <wgt id="366">4.00293e-12</wgt>
  <wgt id="367">3.97197e-12</wgt>
  <wgt id="368">3.95535e-12</wgt>
  <wgt id="369">3.93721e-12</wgt>
  <wgt id="370">3.98658e-12</wgt>
  <wgt id="371">4.00445e-12</wgt>
  <wgt id="372">3.99466e-12</wgt>
  <wgt id="373">3.9801e-12</wgt>
  <wgt id="374">3.97799e-12</wgt>
  <wgt id="375">4.22128e-12</wgt>
  <wgt id="376">4.22191e-12</wgt>
  <wgt id="377">4.22058e-12</wgt>
  <wgt id="378">4.23635e-12</wgt>
  <wgt id="379">4.20619e-12</wgt>
  <wgt id="380">4.23259e-12</wgt>
  <wgt id="381">4.21662e-12</wgt>
  <wgt id="382">4.24278e-12</wgt>
  <wgt id="383">4.19983e-12</wgt>
  <wgt id="384">4.22397e-12</wgt>
  <wgt id="385">4.21858e-12</wgt>
  <wgt id="386">4.238e-12</wgt>
  <wgt id="387">4.21391e-12</wgt>
  <wgt id="388">4.21723e-12</wgt>
  <wgt id="389">4.22597e-12</wgt>
  <wgt id="390">4.23266e-12</wgt>
  <wgt id="391">4.20921e-12</wgt>
  <wgt id="392">4.1904e-12</wgt>
  <wgt id="393">4.23862e-12</wgt>
  <wgt id="394">4.22726e-12</wgt>
  <wgt id="395">4.21266e-12</wgt>
  <wgt id="396">4.22315e-12</wgt>
  <wgt id="397">4.21979e-12</wgt>
  <wgt id="398">4.2025e-12</wgt>
  <wgt id="399">4.23939e-12</wgt>
  <wgt id="400">4.21419e-12</wgt>
  <wgt id="401">4.23705e-12</wgt>
  <wgt id="402">4.18799e-12</wgt>
  <wgt id="403">4.23495e-12</wgt>
  <wgt id="404">4.3141e-12</wgt>
  <wgt id="405">3.99682e-12</wgt>
  <wgt id="406">4.15459e-12</wgt>
  <wgt id="407">4.36526e-12</wgt>
  <wgt id="408">4.25548e-12</wgt>
  <wgt id="409">4.15537e-12</wgt>
  <wgt id="410">4.11148e-12</wgt>
  <wgt id="411">4.27153e-12</wgt>
  <wgt id="412">4.2142e-12</wgt>
  <wgt id="413">4.23118e-12</wgt>
  <wgt id="414">4.17741e-12</wgt>
  <wgt id="415">4.25515e-12</wgt>
  <wgt id="416">4.32604e-12</wgt>
  <wgt id="417">4.07631e-12</wgt>
  <wgt id="418">4.2264e-12</wgt>
  <wgt id="419">4.19309e-12</wgt>
  <wgt id="420">4.27643e-12</wgt>
  <wgt id="421">4.19121e-12</wgt>
  <wgt id="422">4.21757e-12</wgt>
  <wgt id="423">4.2239e-12</wgt>
  <wgt id="424">4.29896e-12</wgt>
  <wgt id="425">4.17328e-12</wgt>
  <wgt id="426">4.22128e-12</wgt>
  <wgt id="427">4.18966e-12</wgt>
  <wgt id="428">4.31905e-12</wgt>
  <wgt id="429">4.25586e-12</wgt>
  <wgt id="430">4.37027e-12</wgt>
  <wgt id="431">4.34763e-12</wgt>
  <wgt id="432">4.32583e-12</wgt>
  <wgt id="433">4.30473e-12</wgt>
  <wgt id="434">4.27954e-12</wgt>
  <wgt id="435">4.22616e-12</wgt>
  <wgt id="436">4.19862e-12</wgt>
  <wgt id="437">4.17277e-12</wgt>
  <wgt id="438">4.25586e-12</wgt>
  <wgt id="439">4.2699e-12</wgt>
  <wgt id="440">4.2618e-12</wgt>
  <wgt id="441">4.25155e-12</wgt>
  <wgt id="442">4.24756e-12</wgt>
  <wgt id="443">4.15278e-12</wgt>
  <wgt id="444">4.17267e-12</wgt>
  <wgt id="445">4.13319e-12</wgt>
  <wgt id="446">4.12744e-12</wgt>
  <wgt id="447">4.13687e-12</wgt>
  <wgt id="448">4.04631e-12</wgt>
  <wgt id="449">4.2134e-12</wgt>
  <wgt id="450">4.1327e-12</wgt>
  <wgt id="451">4.1468e-12</wgt>
  <wgt id="452">4.2421e-12</wgt>
  <wgt id="453">4.18931e-12</wgt>
  <wgt id="454">3.99477e-12</wgt>
  <wgt id="455">4.15616e-12</wgt>
  <wgt id="456">4.09606e-12</wgt>
  <wgt id="457">4.16928e-12</wgt>
  <wgt id="458">4.19653e-12</wgt>
  <wgt id="459">4.17827e-12</wgt>
  <wgt id="460">4.17205e-12</wgt>
  <wgt id="461">4.08278e-12</wgt>
  <wgt id="462">4.12043e-12</wgt>
  <wgt id="463">4.11192e-12</wgt>
  <wgt id="464">4.13059e-12</wgt>
  <wgt id="465">4.19328e-12</wgt>
  <wgt id="466">4.11028e-12</wgt>
  <wgt id="467">4.1148e-12</wgt>
  <wgt id="468">4.1419e-12</wgt>
  <wgt id="469">4.14153e-12</wgt>
  <wgt id="470">4.1192e-12</wgt>
  <wgt id="471">4.1192e-12</wgt>
  <wgt id="472">4.1706e-12</wgt>
  <wgt id="473">4.02608e-12</wgt>
  <wgt id="474">3.0282e-12</wgt>
  <wgt id="475">3.23045e-12</wgt>
  <wgt id="476">2.96025e-12</wgt>
  <wgt id="477">2.94765e-12</wgt>
  <wgt id="478">3.04202e-12</wgt>
  <wgt id="479">2.98037e-12</wgt>
  <wgt id="480">3.1271e-12</wgt>
  <wgt id="481">2.95123e-12</wgt>
  <wgt id="482">2.90291e-12</wgt>
  <wgt id="483">2.94816e-12</wgt>
  <wgt id="484">3.25915e-12</wgt>
  <wgt id="485">3.04202e-12</wgt>
  <wgt id="486">3.08532e-12</wgt>
  <wgt id="487">3.08798e-12</wgt>
  <wgt id="488">3.06502e-12</wgt>
  <wgt id="489">2.93505e-12</wgt>
  <wgt id="490">2.94152e-12</wgt>
  <wgt id="491">2.99126e-12</wgt>
  <wgt id="492">2.92927e-12</wgt>
  <wgt id="493">2.92215e-12</wgt>
  <wgt id="494">2.93871e-12</wgt>
  <wgt id="495">3.09719e-12</wgt>
  <wgt id="496">2.92583e-12</wgt>
  <wgt id="497">2.91612e-12</wgt>
  <wgt id="498">3.06165e-12</wgt>
  <wgt id="499">2.94628e-12</wgt>
  <wgt id="500">2.98077e-12</wgt>
  <wgt id="501">3.16362e-12</wgt>
  <wgt id="502">2.94062e-12</wgt>
  <wgt id="503">3.02003e-12</wgt>
  <wgt id="504">3.03639e-12</wgt>
  <wgt id="505">3.05895e-12</wgt>
  <wgt id="506">3.09771e-12</wgt>
  <wgt id="507">2.99179e-12</wgt>
  <wgt id="508">3.06504e-12</wgt>
  <wgt id="509">3.00859e-12</wgt>
  <wgt id="510">3.10412e-12</wgt>
  <wgt id="511">2.97058e-12</wgt>
  <wgt id="512">3.06157e-12</wgt>
  <wgt id="513">3.15357e-12</wgt>
  <wgt id="514">2.99625e-12</wgt>
  <wgt id="515">2.98456e-12</wgt>
  <wgt id="516">3.09916e-12</wgt>
  <wgt id="517">3.09104e-12</wgt>
  <wgt id="518">3.09951e-12</wgt>
  <wgt id="519">2.94918e-12</wgt>
  <wgt id="520">3.04447e-12</wgt>
  <wgt id="521">3.13875e-12</wgt>
  <wgt id="522">3.13952e-12</wgt>
  <wgt id="523">3.10875e-12</wgt>
  <wgt id="524">3.09145e-12</wgt>
  <wgt id="525">3.11411e-12</wgt>
  <wgt id="526">3.02683e-12</wgt>
  <wgt id="527">3.08135e-12</wgt>
  <wgt id="528">3.03399e-12</wgt>
  <wgt id="529">2.97977e-12</wgt>
  <wgt id="530">3.04394e-12</wgt>
  <wgt id="531">2.99628e-12</wgt>
  <wgt id="532">3.18743e-12</wgt>
  <wgt id="533">2.84005e-12</wgt>
  <wgt id="534">3.04078e-12</wgt>
  <wgt id="535">3.09466e-12</wgt>
  <wgt id="536">3.0272e-12</wgt>
  <wgt id="537">3.0415e-12</wgt>
  <wgt id="538">3.0715e-12</wgt>
  <wgt id="539">2.96527e-12</wgt>
  <wgt id="540">2.9783e-12</wgt>
  <wgt id="541">2.9671e-12</wgt>
  <wgt id="542">2.96536e-12</wgt>
  <wgt id="543">3.02427e-12</wgt>
  <wgt id="544">3.17789e-12</wgt>
  <wgt id="545">2.99226e-12</wgt>
  <wgt id="546">3.00202e-12</wgt>
  <wgt id="547">2.93338e-12</wgt>
  <wgt id="548">2.90445e-12</wgt>
  <wgt id="549">2.97767e-12</wgt>
  <wgt id="550">3.03895e-12</wgt>
  <wgt id="551">3.05783e-12</wgt>
  <wgt id="552">3.0116e-12</wgt>
  <wgt id="553">3.02376e-12</wgt>
  <wgt id="554">3.25376e-12</wgt>
  <wgt id="555">3.10631e-12</wgt>
  <wgt id="556">2.94152e-12</wgt>
  <wgt id="557">3.07055e-12</wgt>
  <wgt id="558">2.92526e-12</wgt>
  <wgt id="559">2.99424e-12</wgt>
  <wgt id="560">3.26608e-12</wgt>
  <wgt id="561">2.95857e-12</wgt>
  <wgt id="562">3.0653e-12</wgt>
  <wgt id="563">2.93366e-12</wgt>
  <wgt id="564">3.01533e-12</wgt>
  <wgt id="565">2.91601e-12</wgt>
  <wgt id="566">3.06878e-12</wgt>
  <wgt id="567">2.98018e-12</wgt>
  <wgt id="568">3.02331e-12</wgt>
  <wgt id="569">3.07222e-12</wgt>
  <wgt id="570">2.95091e-12</wgt>
  <wgt id="571">3.35146e-12</wgt>
  <wgt id="572">2.95634e-12</wgt>
  <wgt id="573">2.88855e-12</wgt>
  <wgt id="574">2.91819e-12</wgt>
  <wgt id="575">3.32464e-12</wgt>
  <wgt id="576">3.2717e-12</wgt>
  <wgt id="577">3.4284e-12</wgt>
  <wgt id="578">3.3955e-12</wgt>
  <wgt id="579">3.36287e-12</wgt>
  <wgt id="580">3.37304e-12</wgt>
  <wgt id="581">3.52155e-12</wgt>
  <wgt id="582">3.26199e-12</wgt>
  <wgt id="583">3.35982e-12</wgt>
  <wgt id="584">3.33099e-12</wgt>
  <wgt id="585">3.36449e-12</wgt>
  <wgt id="586">3.25523e-12</wgt>
  <wgt id="587">3.3661e-12</wgt>
  <wgt id="588">3.29999e-12</wgt>
  <wgt id="589">3.3669e-12</wgt>
  <wgt id="590">3.38658e-12</wgt>
  <wgt id="591">3.45373e-12</wgt>
  <wgt id="592">3.27489e-12</wgt>
  <wgt id="593">3.31203e-12</wgt>
  <wgt id="594">3.44652e-12</wgt>
  <wgt id="595">3.30078e-12</wgt>
  <wgt id="596">3.35182e-12</wgt>
  <wgt id="597">3.20562e-12</wgt>
  <wgt id="598">3.27482e-12</wgt>
  <wgt id="599">3.51283e-12</wgt>
  <wgt id="600">3.28589e-12</wgt>
  <wgt id="601">3.232e-12</wgt>
  <wgt id="602">3.26593e-12</wgt>
  <wgt id="603">3.27675e-12</wgt>
  <wgt id="604">3.36934e-12</wgt>
  <wgt id="605">3.46104e-12</wgt>
  <wgt id="606">3.23582e-12</wgt>
  <wgt id="607">3.27316e-12</wgt>
  <wgt id="608">3.32431e-12</wgt>
  <wgt id="609">3.13023e-12</wgt>
  <wgt id="610">3.19601e-12</wgt>
  <wgt id="611">3.37495e-12</wgt>
  <wgt id="612">3.55726e-12</wgt>
  <wgt id="613">3.32826e-12</wgt>
  <wgt id="614">3.37247e-12</wgt>
  <wgt id="615">3.25276e-12</wgt>
  <wgt id="616">3.53793e-12</wgt>
  <wgt id="617">3.44832e-12</wgt>
  <wgt id="618">3.31819e-12</wgt>
  <wgt id="619">3.29704e-12</wgt>
  <wgt id="620">3.45646e-12</wgt>
  <wgt id="621">3.38076e-12</wgt>
  <wgt id="622">3.3661e-12</wgt>
  <wgt id="623">3.41643e-12</wgt>
  <wgt id="624">3.30671e-12</wgt>
  <wgt id="625">3.29147e-12</wgt>
  <wgt id="626">3.25705e-12</wgt>
  <wgt id="627">3.20544e-12</wgt>
  <wgt id="628">3.52402e-12</wgt>
  <wgt id="629">3.24541e-12</wgt>
  <wgt id="630">3.21631e-12</wgt>
  <wgt id="631">3.3315e-12</wgt>
  <wgt id="632">3.2295e-12</wgt>
  <wgt id="633">3.28215e-12</wgt>
  <wgt id="634">3.33728e-12</wgt>
  <wgt id="635">3.28977e-12</wgt>
  <wgt id="636">3.34068e-12</wgt>
  <wgt id="637">3.32042e-12</wgt>
  <wgt id="638">3.20101e-12</wgt>
  <wgt id="639">3.28664e-12</wgt>
  <wgt id="640">3.33036e-12</wgt>
  <wgt id="641">3.32999e-12</wgt>
  <wgt id="642">3.22153e-12</wgt>
  <wgt id="643">3.31029e-12</wgt>
  <wgt id="644">3.22368e-12</wgt>
  <wgt id="645">3.35164e-12</wgt>
  <wgt id="646">3.39441e-12</wgt>
  <wgt id="647">3.27469e-12</wgt>
  <wgt id="648">3.33463e-12</wgt>
  <wgt id="649">3.37849e-12</wgt>
  <wgt id="650">3.26881e-12</wgt>
  <wgt id="651">3.33871e-12</wgt>
  <wgt id="652">3.31503e-12</wgt>
  <wgt id="653">3.2365e-12</wgt>
  <wgt id="654">3.31538e-12</wgt>
  <wgt id="655">3.26201e-12</wgt>
  <wgt id="656">3.33683e-12</wgt>
  <wgt id="657">3.40728e-12</wgt>
  <wgt id="658">3.36315e-12</wgt>
  <wgt id="659">3.20214e-12</wgt>
  <wgt id="660">3.39332e-12</wgt>
  <wgt id="661">3.27212e-12</wgt>
  <wgt id="662">3.32169e-12</wgt>
  <wgt id="663">3.31659e-12</wgt>
  <wgt id="664">3.26991e-12</wgt>
  <wgt id="665">3.31135e-12</wgt>
  <wgt id="666">3.30924e-12</wgt>
  <wgt id="667">3.4239e-12</wgt>
  <wgt id="668">3.31263e-12</wgt>
  <wgt id="669">3.40726e-12</wgt>
  <wgt id="670">3.37095e-12</wgt>
  <wgt id="671">3.27995e-12</wgt>
  <wgt id="672">3.1857e-12</wgt>
  <wgt id="673">3.31441e-12</wgt>
  <wgt id="674">3.26146e-12</wgt>
  <wgt id="675">3.26576e-12</wgt>
  <wgt id="676">4.15681e-12</wgt>
  <wgt id="677">4.20857e-12</wgt>
  <wgt id="678">4.34267e-12</wgt>
  <wgt id="679">3.91835e-12</wgt>
  <wgt id="680">4.02602e-12</wgt>
  <wgt id="681">4.27302e-12</wgt>
  <wgt id="682">4.24639e-12</wgt>
  <wgt id="683">4.11972e-12</wgt>
  <wgt id="684">4.34259e-12</wgt>
  <wgt id="685">3.92495e-12</wgt>
  <wgt id="686">4.14228e-12</wgt>
  <wgt id="687">4.35593e-12</wgt>
  <wgt id="688">4.15487e-12</wgt>
  <wgt id="689">4.49011e-12</wgt>
  <wgt id="690">4.38806e-12</wgt>
  <wgt id="691">4.41244e-12</wgt>
  <wgt id="692">4.1278e-12</wgt>
  <wgt id="693">4.80677e-12</wgt>
  <wgt id="694">4.38927e-12</wgt>
  <wgt id="695">4.02701e-12</wgt>
  <wgt id="696">3.93714e-12</wgt>
  <wgt id="697">4.05735e-12</wgt>
  <wgt id="698">3.87879e-12</wgt>
  <wgt id="699">3.83869e-12</wgt>
  <wgt id="700">3.66633e-12</wgt>
  <wgt id="701">4.17101e-12</wgt>
  <wgt id="702">3.98433e-12</wgt>
  <wgt id="703">4.72407e-12</wgt>
  <wgt id="704">4.48327e-12</wgt>
  <wgt id="705">4.30157e-12</wgt>
  <wgt id="706">3.86868e-12</wgt>
  <wgt id="707">3.99929e-12</wgt>
  <wgt id="708">4.10959e-12</wgt>
  <wgt id="709">4.08964e-12</wgt>
  <wgt id="710">3.72037e-12</wgt>
  <wgt id="711">4.14289e-12</wgt>
  <wgt id="712">4.10593e-12</wgt>
  <wgt id="713">4.47491e-12</wgt>
  <wgt id="714">4.13251e-12</wgt>
  <wgt id="715">4.12042e-12</wgt>
  <wgt id="716">3.99988e-12</wgt>
  <wgt id="717">3.99864e-12</wgt>
  <wgt id="718">4.10197e-12</wgt>
  <wgt id="719">3.79403e-12</wgt>
  <wgt id="720">3.91536e-12</wgt>
  <wgt id="721">3.9105e-12</wgt>
  <wgt id="722">3.7439e-12</wgt>
  <wgt id="723">4.40332e-12</wgt>
  <wgt id="724">4.32983e-12</wgt>
  <wgt id="725">4.39411e-12</wgt>
  <wgt id="726">4.20525e-12</wgt>
  <wgt id="727">4.05725e-12</wgt>
  <wgt id="728">4.10028e-12</wgt>
  <wgt id="729">3.73796e-12</wgt>
  <wgt id="730">4.45133e-12</wgt>
  <wgt id="731">4.11595e-12</wgt>
  <wgt id="732">4.53515e-12</wgt>
  <wgt id="733">4.17139e-12</wgt>
  <wgt id="734">4.25581e-12</wgt>
  <wgt id="735">4.12599e-12</wgt>
  <wgt id="736">4.10116e-12</wgt>
  <wgt id="737">4.23199e-12</wgt>
  <wgt id="738">3.97008e-12</wgt>
  <wgt id="739">4.16227e-12</wgt>
  <wgt id="740">4.59565e-12</wgt>
  <wgt id="741">3.69026e-12</wgt>
  <wgt id="742">4.08992e-12</wgt>
  <wgt id="743">4.01158e-12</wgt>
  <wgt id="744">4.07502e-12</wgt>
  <wgt id="745">4.32489e-12</wgt>
  <wgt id="746">4.38191e-12</wgt>
  <wgt id="747">3.81996e-12</wgt>
  <wgt id="748">4.09949e-12</wgt>
  <wgt id="749">4.39007e-12</wgt>
  <wgt id="750">4.13577e-12</wgt>
  <wgt id="751">4.30853e-12</wgt>
  <wgt id="752">3.82934e-12</wgt>
  <wgt id="753">3.97344e-12</wgt>
  <wgt id="754">4.32557e-12</wgt>
  <wgt id="755">4.18271e-12</wgt>
  <wgt id="756">4.19098e-12</wgt>
  <wgt id="757">3.85573e-12</wgt>
  <wgt id="758">4.21191e-12</wgt>
  <wgt id="759">4.15372e-12</wgt>
  <wgt id="760">4.23074e-12</wgt>
  <wgt id="761">4.37178e-12</wgt>
  <wgt id="762">4.38659e-12</wgt>
  <wgt id="763">4.15429e-12</wgt>
  <wgt id="764">4.30987e-12</wgt>
  <wgt id="765">4.22841e-12</wgt>
  <wgt id="766">4.14416e-12</wgt>
  <wgt id="767">4.26126e-12</wgt>
  <wgt id="768">3.94571e-12</wgt>
  <wgt id="769">4.39991e-12</wgt>
  <wgt id="770">4.02343e-12</wgt>
  <wgt id="771">4.88111e-12</wgt>
  <wgt id="772">3.91288e-12</wgt>
  <wgt id="773">4.13493e-12</wgt>
  <wgt id="774">3.7528e-12</wgt>
  <wgt id="775">4.37529e-12</wgt>
  <wgt id="776">4.53989e-12</wgt>
  <wgt id="777">4.00432e-12</wgt>
  <wgt id="778">3.10229e-12</wgt>
  <wgt id="779">2.63852e-12</wgt>
  <wgt id="780">2.20407e-12</wgt>
  <wgt id="781">3.08182e-12</wgt>
  <wgt id="782">3.2784e-12</wgt>
  <wgt id="783">2.68227e-12</wgt>
  <wgt id="784">2.75195e-12</wgt>
  <wgt id="785">3.7194e-12</wgt>
  <wgt id="786">2.42249e-12</wgt>
  <wgt id="787">3.48914e-12</wgt>
  <wgt id="788">2.05055e-12</wgt>
  <wgt id="789">2.4754e-12</wgt>
  <wgt id="790">2.40662e-12</wgt>
  <wgt id="791">2.86716e-12</wgt>
  <wgt id="792">3.95251e-12</wgt>
  <wgt id="793">3.00037e-12</wgt>
  <wgt id="794">2.44083e-12</wgt>
  <wgt id="795">3.57312e-12</wgt>
  <wgt id="796">4.049e-12</wgt>
  <wgt id="797">3.5396e-12</wgt>
  <wgt id="798">2.89678e-12</wgt>
  <wgt id="799">3.50438e-12</wgt>
  <wgt id="800">2.51173e-12</wgt>
  <wgt id="801">2.92081e-12</wgt>
  <wgt id="802">2.4635e-12</wgt>
  <wgt id="803">3.98019e-12</wgt>
  <wgt id="804">3.54659e-12</wgt>
  <wgt id="805">3.62158e-12</wgt>
  <wgt id="806">3.50682e-12</wgt>
  <wgt id="807">2.96685e-12</wgt>
  <wgt id="808">3.03249e-12</wgt>
  <wgt id="809">2.85953e-12</wgt>
  <wgt id="810">3.54983e-12</wgt>
  <wgt id="811">3.3834e-12</wgt>
  <wgt id="812">2.41616e-12</wgt>
  <wgt id="813">2.45638e-12</wgt>
  <wgt id="814">2.6655e-12</wgt>
  <wgt id="815">2.647e-12</wgt>
  <wgt id="816">2.3223e-12</wgt>
  <wgt id="817">3.2731e-12</wgt>
  <wgt id="818">3.02051e-12</wgt>
  <wgt id="819">2.64031e-12</wgt>
  <wgt id="820">3.11721e-12</wgt>
  <wgt id="821">3.54348e-12</wgt>
  <wgt id="822">2.63982e-12</wgt>
  <wgt id="823">3.55095e-12</wgt>
  <wgt id="824">4.13721e-12</wgt>
  <wgt id="825">2.35191e-12</wgt>
  <wgt id="826">3.23535e-12</wgt>
  <wgt id="827">1.9568e-12</wgt>
  <wgt id="828">3.97852e-12</wgt>
  <wgt id="829">3.21897e-12</wgt>
  <wgt id="830">2.23357e-12</wgt>
  <wgt id="831">3.31819e-12</wgt>
  <wgt id="832">5.02229e-12</wgt>
  <wgt id="833">2.93126e-12</wgt>
  <wgt id="834">4.67784e-12</wgt>
  <wgt id="835">2.53257e-12</wgt>
  <wgt id="836">3.12475e-12</wgt>
  <wgt id="837">3.49906e-12</wgt>
  <wgt id="838">2.98794e-12</wgt>
  <wgt id="839">3.30002e-12</wgt>
  <wgt id="840">2.93195e-12</wgt>
  <wgt id="841">3.75657e-12</wgt>
  <wgt id="842">2.82524e-12</wgt>
  <wgt id="843">3.02095e-12</wgt>
  <wgt id="844">3.22248e-12</wgt>
  <wgt id="845">4.22528e-12</wgt>
  <wgt id="846">2.83369e-12</wgt>
  <wgt id="847">3.09939e-12</wgt>
  <wgt id="848">2.74025e-12</wgt>
  <wgt id="849">3.17443e-12</wgt>
  <wgt id="850">3.97848e-12</wgt>
  <wgt id="851">3.38361e-12</wgt>
  <wgt id="852">2.72711e-12</wgt>
  <wgt id="853">3.36948e-12</wgt>
  <wgt id="854">3.73559e-12</wgt>
  <wgt id="855">3.56267e-12</wgt>
  <wgt id="856">2.29536e-12</wgt>
  <wgt id="857">3.13577e-12</wgt>
  <wgt id="858">3.10607e-12</wgt>
  <wgt id="859">2.8826e-12</wgt>
  <wgt id="860">3.28332e-12</wgt>
  <wgt id="861">2.76569e-12</wgt>
  <wgt id="862">3.16345e-12</wgt>
  <wgt id="863">3.25751e-12</wgt>
  <wgt id="864">3.28846e-12</wgt>
  <wgt id="865">4.38352e-12</wgt>
  <wgt id="866">4.78794e-12</wgt>
  <wgt id="867">3.15255e-12</wgt>
  <wgt id="868">3.06912e-12</wgt>
  <wgt id="869">2.45739e-12</wgt>
  <wgt id="870">2.57952e-12</wgt>
  <wgt id="871">2.50627e-12</wgt>
  <wgt id="872">3.64354e-12</wgt>
  <wgt id="873">2.56342e-12</wgt>
  <wgt id="874">3.24651e-12</wgt>
  <wgt id="875">2.714e-12</wgt>
  <wgt id="876">3.65953e-12</wgt>
  <wgt id="877">3.53638e-12</wgt>
  <wgt id="878">2.70994e-12</wgt>
  <wgt id="879">4.15681e-12</wgt>
  <wgt id="880">4.20857e-12</wgt>
  <wgt id="881">4.34267e-12</wgt>
  <wgt id="882">3.91835e-12</wgt>
  <wgt id="883">4.02602e-12</wgt>
  <wgt id="884">4.27302e-12</wgt>
  <wgt id="885">4.24639e-12</wgt>
  <wgt id="886">4.11972e-12</wgt>
  <wgt id="887">4.34259e-12</wgt>
  <wgt id="888">3.92495e-12</wgt>
  <wgt id="889">4.14228e-12</wgt>
  <wgt id="890">4.35593e-12</wgt>
  <wgt id="891">4.15487e-12</wgt>
  <wgt id="892">4.49011e-12</wgt>
  <wgt id="893">4.38806e-12</wgt>
  <wgt id="894">4.41244e-12</wgt>
  <wgt id="895">4.1278e-12</wgt>
  <wgt id="896">4.80677e-12</wgt>
  <wgt id="897">4.38927e-12</wgt>
  <wgt id="898">4.02701e-12</wgt>
  <wgt id="899">3.93714e-12</wgt>
  <wgt id="900">4.05735e-12</wgt>
  <wgt id="901">3.87879e-12</wgt>
  <wgt id="902">3.83869e-12</wgt>
  <wgt id="903">3.66633e-12</wgt>
  <wgt id="904">4.17101e-12</wgt>
  <wgt id="905">3.98433e-12</wgt>
  <wgt id="906">4.72407e-12</wgt>
  <wgt id="907">4.48327e-12</wgt>
  <wgt id="908">4.30157e-12</wgt>
  <wgt id="909">3.86868e-12</wgt>
  <wgt id="910">3.99929e-12</wgt>
  <wgt id="911">4.10959e-12</wgt>
  <wgt id="912">4.08964e-12</wgt>
  <wgt id="913">3.72037e-12</wgt>
  <wgt id="914">4.14289e-12</wgt>
  <wgt id="915">4.10593e-12</wgt>
  <wgt id="916">4.47491e-12</wgt>
  <wgt id="917">4.13251e-12</wgt>
  <wgt id="918">4.12042e-12</wgt>
  <wgt id="919">3.99988e-12</wgt>
  <wgt id="920">3.99864e-12</wgt>
  <wgt id="921">4.10197e-12</wgt>
  <wgt id="922">3.79403e-12</wgt>
  <wgt id="923">3.91536e-12</wgt>
  <wgt id="924">3.9105e-12</wgt>
  <wgt id="925">3.7439e-12</wgt>
  <wgt id="926">4.40332e-12</wgt>
  <wgt id="927">4.32983e-12</wgt>
  <wgt id="928">4.39411e-12</wgt>
  <wgt id="929">4.20525e-12</wgt>
  <wgt id="930">4.05725e-12</wgt>
  <wgt id="931">4.10028e-12</wgt>
  <wgt id="932">3.73796e-12</wgt>
  <wgt id="933">4.45133e-12</wgt>
  <wgt id="934">4.11595e-12</wgt>
  <wgt id="935">4.53515e-12</wgt>
  <wgt id="936">4.17139e-12</wgt>
  <wgt id="937">4.25581e-12</wgt>
  <wgt id="938">4.12599e-12</wgt>
  <wgt id="939">4.10116e-12</wgt>
  <wgt id="940">4.23199e-12</wgt>
  <wgt id="941">3.97008e-12</wgt>
  <wgt id="942">4.16227e-12</wgt>
  <wgt id="943">4.59565e-12</wgt>
  <wgt id="944">3.69026e-12</wgt>
  <wgt id="945">4.08992e-12</wgt>
  <wgt id="946">4.01158e-12</wgt>
  <wgt id="947">4.07502e-12</wgt>
  <wgt id="948">4.32489e-12</wgt>
  <wgt id="949">4.38191e-12</wgt>
  <wgt id="950">3.81996e-12</wgt>
  <wgt id="951">4.09949e-12</wgt>
  <wgt id="952">4.39007e-12</wgt>
  <wgt id="953">4.13577e-12</wgt>
  <wgt id="954">4.30853e-12</wgt>
  <wgt id="955">3.82934e-12</wgt>
  <wgt id="956">3.97344e-12</wgt>
  <wgt id="957">4.32557e-12</wgt>
  <wgt id="958">4.18271e-12</wgt>
  <wgt id="959">4.19098e-12</wgt>
  <wgt id="960">3.85573e-12</wgt>
  <wgt id="961">4.21191e-12</wgt>
  <wgt id="962">4.15372e-12</wgt>
  <wgt id="963">4.23074e-12</wgt>
  <wgt id="964">4.37178e-12</wgt>
  <wgt id="965">4.38659e-12</wgt>
  <wgt id="966">4.15429e-12</wgt>
  <wgt id="967">4.30987e-12</wgt>
  <wgt id="968">4.22841e-12</wgt>
  <wgt id="969">4.14416e-12</wgt>
  <wgt id="970">4.26126e-12</wgt>
  <wgt id="971">3.94571e-12</wgt>
  <wgt id="972">4.39991e-12</wgt>
  <wgt id="973">4.02343e-12</wgt>
  <wgt id="974">4.88111e-12</wgt>
  <wgt id="975">3.91288e-12</wgt>
  <wgt id="976">4.13493e-12</wgt>
  <wgt id="977">3.7528e-12</wgt>
  <wgt id="978">4.37529e-12</wgt>
  <wgt id="979">4.53989e-12</wgt>
  <wgt id="980">4.1618e-12</wgt>
  <wgt id="981">4.17566e-12</wgt>
  <wgt id="982">4.04177e-12</wgt>
</rwgt>
</event>
<event>
 5   1  0.3028200E-11  0.2283777E+04  0.7818608E-02  0.7718031E-01
       21   -1    0    0  502  501  0.00000000000E+00  0.00000000000E+00  0.10077800813E+04  0.10077800813E+04  0.00000000000E+00 0.  1.
       21   -1    0    0  501  502 -0.00000000000E+00 -0.00000000000E+00 -0.12938434819E+04  0.12938434819E+04  0.00000000000E+00 0. -1.
       39    2    1    2    0    0  0.00000000000E+00  0.00000000000E+00 -0.28606340065E+03  0.23016235632E+04  0.22837773004E+04 0.  0.
       25    1    3    3    0    0 -0.86644599981E+03  0.73286160138E+03 -0.12118531537E+03  0.11480965456E+04  0.12500000000E+03 0.  0.
       25    1    3    3    0    0  0.86644599981E+03 -0.73286160138E+03 -0.16487808528E+03  0.11535270176E+04  0.12500000000E+03 0.  0.
<mgrwt>
<rscale>  0 0.22837773E+04</rscale>
<asrwt>0</asrwt>
<pdfrwt beam="1">  1       21 0.15504309E+00 0.22837773E+04</pdfrwt>
<pdfrwt beam="2">  1       21 0.19905284E+00 0.22837773E+04</pdfrwt>
<totfact> 0.14407812E+01</totfact>
</mgrwt>
<rwgt>
  <wgt id="1">3.0282e-12</wgt>
  <wgt id="2">2.63862e-12</wgt>
  <wgt id="3">3.51138e-12</wgt>
  <wgt id="4">3.0282e-12</wgt>
  <wgt id="5">2.63862e-12</wgt>
  <wgt id="6">3.51138e-12</wgt>
  <wgt id="7">3.0282e-12</wgt>
  <wgt id="8">2.63862e-12</wgt>
  <wgt id="9">3.51138e-12</wgt>
  <wgt id="10">3.12657e-12</wgt>
  <wgt id="11">3.12337e-12</wgt>
  <wgt id="12">3.12046e-12</wgt>
  <wgt id="13">3.11573e-12</wgt>
  <wgt id="14">3.13791e-12</wgt>
  <wgt id="15">3.13116e-12</wgt>
  <wgt id="16">3.11999e-12</wgt>
  <wgt id="17">3.13163e-12</wgt>
  <wgt id="18">3.12149e-12</wgt>
  <wgt id="19">3.13338e-12</wgt>
  <wgt id="20">3.11699e-12</wgt>
  <wgt id="21">3.10933e-12</wgt>
  <wgt id="22">3.11674e-12</wgt>
  <wgt id="23">3.09974e-12</wgt>
  <wgt id="24">3.11302e-12</wgt>
  <wgt id="25">3.11923e-12</wgt>
  <wgt id="26">3.13981e-12</wgt>
  <wgt id="27">3.12654e-12</wgt>
  <wgt id="28">3.1122e-12</wgt>
  <wgt id="29">3.12966e-12</wgt>
  <wgt id="30">3.1195e-12</wgt>
  <wgt id="31">3.13455e-12</wgt>
  <wgt id="32">3.12148e-12</wgt>
  <wgt id="33">3.134e-12</wgt>
  <wgt id="34">3.11745e-12</wgt>
  <wgt id="35">3.12439e-12</wgt>
  <wgt id="36">3.13535e-12</wgt>
  <wgt id="37">3.11861e-12</wgt>
  <wgt id="38">3.11807e-12</wgt>
  <wgt id="39">3.15771e-12</wgt>
  <wgt id="40">3.13391e-12</wgt>
  <wgt id="41">3.12594e-12</wgt>
  <wgt id="42">3.13489e-12</wgt>
  <wgt id="43">3.12824e-12</wgt>
  <wgt id="44">3.11504e-12</wgt>
  <wgt id="45">3.13267e-12</wgt>
  <wgt id="46">3.13143e-12</wgt>
  <wgt id="47">3.11311e-12</wgt>
  <wgt id="48">3.12648e-12</wgt>
  <wgt id="49">3.13595e-12</wgt>
  <wgt id="50">3.1462e-12</wgt>
  <wgt id="51">3.14078e-12</wgt>
  <wgt id="52">3.11927e-12</wgt>
  <wgt id="53">3.10473e-12</wgt>
  <wgt id="54">3.11957e-12</wgt>
  <wgt id="55">3.12604e-12</wgt>
  <wgt id="56">3.13693e-12</wgt>
  <wgt id="57">3.13738e-12</wgt>
  <wgt id="58">3.10466e-12</wgt>
  <wgt id="59">3.11555e-12</wgt>
  <wgt id="60">3.12757e-12</wgt>
  <wgt id="61">3.1212e-12</wgt>
  <wgt id="62">3.12593e-12</wgt>
  <wgt id="63">3.13017e-12</wgt>
  <wgt id="64">3.13021e-12</wgt>
  <wgt id="65">3.12978e-12</wgt>
  <wgt id="66">3.12247e-12</wgt>
  <wgt id="67">3.12179e-12</wgt>
  <wgt id="68">3.12326e-12</wgt>
  <wgt id="69">3.12592e-12</wgt>
  <wgt id="70">3.12432e-12</wgt>
  <wgt id="71">3.12555e-12</wgt>
  <wgt id="72">3.12313e-12</wgt>
  <wgt id="73">3.12866e-12</wgt>
  <wgt id="74">3.12838e-12</wgt>
  <wgt id="75">3.12515e-12</wgt>
  <wgt id="76">3.13457e-12</wgt>
  <wgt id="77">3.12611e-12</wgt>
  <wgt id="78">3.12743e-12</wgt>
  <wgt id="79">3.13198e-12</wgt>
  <wgt id="80">3.11411e-12</wgt>
  <wgt id="81">3.12274e-12</wgt>
  <wgt id="82">3.12662e-12</wgt>
  <wgt id="83">3.11523e-12</wgt>
  <wgt id="84">3.12031e-12</wgt>
  <wgt id="85">3.12125e-12</wgt>
  <wgt id="86">3.13334e-12</wgt>
  <wgt id="87">3.1119e-12</wgt>
  <wgt id="88">3.13003e-12</wgt>
  <wgt id="89">3.1294e-12</wgt>
  <wgt id="90">3.1306e-12</wgt>
  <wgt id="91">3.12872e-12</wgt>
  <wgt id="92">3.13206e-12</wgt>
  <wgt id="93">3.12621e-12</wgt>
  <wgt id="94">3.12391e-12</wgt>
  <wgt id="95">3.12845e-12</wgt>
  <wgt id="96">3.12854e-12</wgt>
  <wgt id="97">3.12267e-12</wgt>
  <wgt id="98">3.12798e-12</wgt>
  <wgt id="99">3.12516e-12</wgt>
  <wgt id="100">3.12937e-12</wgt>
  <wgt id="101">3.12559e-12</wgt>
  <wgt id="102">3.12354e-12</wgt>
  <wgt id="103">3.13061e-12</wgt>
  <wgt id="104">3.12441e-12</wgt>
  <wgt id="105">3.12935e-12</wgt>
  <wgt id="106">3.12281e-12</wgt>
  <wgt id="107">3.13433e-12</wgt>
  <wgt id="108">3.1237e-12</wgt>
  <wgt id="109">3.12751e-12</wgt>
  <wgt id="110">3.12619e-12</wgt>
  <wgt id="111">3.16016e-12</wgt>
  <wgt id="112">3.12261e-12</wgt>
  <wgt id="113">4.17307e-12</wgt>
  <wgt id="114">4.32388e-12</wgt>
  <wgt id="115">4.26489e-12</wgt>
  <wgt id="116">5.93186e-12</wgt>
  <wgt id="117">3.46853e-12</wgt>
  <wgt id="118">3.48043e-12</wgt>
  <wgt id="119">3.46195e-12</wgt>
  <wgt id="120">3.46896e-12</wgt>
  <wgt id="121">3.46842e-12</wgt>
  <wgt id="122">3.46245e-12</wgt>
  <wgt id="123">3.47701e-12</wgt>
  <wgt id="124">3.46353e-12</wgt>
  <wgt id="125">3.47186e-12</wgt>
  <wgt id="126">3.47478e-12</wgt>
  <wgt id="127">3.46452e-12</wgt>
  <wgt id="128">3.47944e-12</wgt>
  <wgt id="129">3.45786e-12</wgt>
  <wgt id="130">3.48877e-12</wgt>
  <wgt id="131">3.44794e-12</wgt>
  <wgt id="132">3.37959e-12</wgt>
  <wgt id="133">3.57383e-12</wgt>
  <wgt id="134">3.43189e-12</wgt>
  <wgt id="135">3.49723e-12</wgt>
  <wgt id="136">3.51197e-12</wgt>
  <wgt id="137">3.41613e-12</wgt>
  <wgt id="138">3.59994e-12</wgt>
  <wgt id="139">3.34151e-12</wgt>
  <wgt id="140">3.44523e-12</wgt>
  <wgt id="141">3.4868e-12</wgt>
  <wgt id="142">3.46909e-12</wgt>
  <wgt id="143">3.47316e-12</wgt>
  <wgt id="144">3.37662e-12</wgt>
  <wgt id="145">3.55356e-12</wgt>
  <wgt id="146">3.49791e-12</wgt>
  <wgt id="147">3.44549e-12</wgt>
  <wgt id="148">3.47893e-12</wgt>
  <wgt id="149">3.46779e-12</wgt>
  <wgt id="150">3.49835e-12</wgt>
  <wgt id="151">3.45464e-12</wgt>
  <wgt id="152">3.47014e-12</wgt>
  <wgt id="153">3.46809e-12</wgt>
  <wgt id="154">3.49781e-12</wgt>
  <wgt id="155">3.43409e-12</wgt>
  <wgt id="156">3.53225e-12</wgt>
  <wgt id="157">3.3999e-12</wgt>
  <wgt id="158">4.17334e-12</wgt>
  <wgt id="159">4.19071e-12</wgt>
  <wgt id="160">4.15926e-12</wgt>
  <wgt id="161">4.16295e-12</wgt>
  <wgt id="162">4.1847e-12</wgt>
  <wgt id="163">4.16893e-12</wgt>
  <wgt id="164">4.17988e-12</wgt>
  <wgt id="165">4.17488e-12</wgt>
  <wgt id="166">4.17209e-12</wgt>
  <wgt id="167">4.17028e-12</wgt>
  <wgt id="168">4.17759e-12</wgt>
  <wgt id="169">4.15548e-12</wgt>
  <wgt id="170">4.18455e-12</wgt>
  <wgt id="171">4.16881e-12</wgt>
  <wgt id="172">4.17973e-12</wgt>
  <wgt id="173">4.1735e-12</wgt>
  <wgt id="174">4.17313e-12</wgt>
  <wgt id="175">4.05778e-12</wgt>
  <wgt id="176">4.32382e-12</wgt>
  <wgt id="177">4.1952e-12</wgt>
  <wgt id="178">4.15306e-12</wgt>
  <wgt id="179">4.34332e-12</wgt>
  <wgt id="180">3.90427e-12</wgt>
  <wgt id="181">4.05458e-12</wgt>
  <wgt id="182">4.25166e-12</wgt>
  <wgt id="183">4.10066e-12</wgt>
  <wgt id="184">4.2093e-12</wgt>
  <wgt id="185">4.14049e-12</wgt>
  <wgt id="186">4.21278e-12</wgt>
  <wgt id="187">4.13657e-12</wgt>
  <wgt id="188">4.23977e-12</wgt>
  <wgt id="189">4.14734e-12</wgt>
  <wgt id="190">4.18404e-12</wgt>
  <wgt id="191">4.18439e-12</wgt>
  <wgt id="192">4.16678e-12</wgt>
  <wgt id="193">4.23114e-12</wgt>
  <wgt id="194">4.14476e-12</wgt>
  <wgt id="195">4.07731e-12</wgt>
  <wgt id="196">4.34789e-12</wgt>
  <wgt id="197">4.19374e-12</wgt>
  <wgt id="198">4.16844e-12</wgt>
  <wgt id="199">4.17334e-12</wgt>
  <wgt id="200">4.20834e-12</wgt>
  <wgt id="201">4.19545e-12</wgt>
  <wgt id="202">4.18294e-12</wgt>
  <wgt id="203">4.16405e-12</wgt>
  <wgt id="204">4.15517e-12</wgt>
  <wgt id="205">4.14784e-12</wgt>
  <wgt id="206">4.05249e-12</wgt>
  <wgt id="207">4.07606e-12</wgt>
  <wgt id="208">4.02909e-12</wgt>
  <wgt id="209">4.06448e-12</wgt>
  <wgt id="210">4.04361e-12</wgt>
  <wgt id="211">4.0511e-12</wgt>
  <wgt id="212">4.05354e-12</wgt>
  <wgt id="213">4.05213e-12</wgt>
  <wgt id="214">4.05306e-12</wgt>
  <wgt id="215">4.05525e-12</wgt>
  <wgt id="216">4.05034e-12</wgt>
  <wgt id="217">4.0639e-12</wgt>
  <wgt id="218">4.04353e-12</wgt>
  <wgt id="219">4.04806e-12</wgt>
  <wgt id="220">4.05515e-12</wgt>
  <wgt id="221">4.05045e-12</wgt>
  <wgt id="222">4.057e-12</wgt>
  <wgt id="223">3.84226e-12</wgt>
  <wgt id="224">4.24352e-12</wgt>
  <wgt id="225">4.005e-12</wgt>
  <wgt id="226">4.11192e-12</wgt>
  <wgt id="227">4.0148e-12</wgt>
  <wgt id="228">4.06902e-12</wgt>
  <wgt id="229">3.99708e-12</wgt>
  <wgt id="230">4.08001e-12</wgt>
  <wgt id="231">4.16533e-12</wgt>
  <wgt id="232">3.95956e-12</wgt>
  <wgt id="233">4.03194e-12</wgt>
  <wgt id="234">4.08418e-12</wgt>
  <wgt id="235">3.97793e-12</wgt>
  <wgt id="236">4.12395e-12</wgt>
  <wgt id="237">4.00059e-12</wgt>
  <wgt id="238">4.07024e-12</wgt>
  <wgt id="239">4.02959e-12</wgt>
  <wgt id="240">4.09381e-12</wgt>
  <wgt id="241">4.01257e-12</wgt>
  <wgt id="242">4.10049e-12</wgt>
  <wgt id="243">4.09815e-12</wgt>
  <wgt id="244">4.07602e-12</wgt>
  <wgt id="245">4.04934e-12</wgt>
  <wgt id="246">4.08304e-12</wgt>
  <wgt id="247">4.05249e-12</wgt>
  <wgt id="248">4.08654e-12</wgt>
  <wgt id="249">4.07341e-12</wgt>
  <wgt id="250">4.06132e-12</wgt>
  <wgt id="251">4.04287e-12</wgt>
  <wgt id="252">4.03437e-12</wgt>
  <wgt id="253">4.02808e-12</wgt>
  <wgt id="254">3.97144e-12</wgt>
  <wgt id="255">3.97522e-12</wgt>
  <wgt id="256">3.96723e-12</wgt>
  <wgt id="257">3.97447e-12</wgt>
  <wgt id="258">3.96918e-12</wgt>
  <wgt id="259">3.99788e-12</wgt>
  <wgt id="260">3.9459e-12</wgt>
  <wgt id="261">3.97662e-12</wgt>
  <wgt id="262">3.96523e-12</wgt>
  <wgt id="263">3.96979e-12</wgt>
  <wgt id="264">3.97322e-12</wgt>
  <wgt id="265">3.96699e-12</wgt>
  <wgt id="266">3.9802e-12</wgt>
  <wgt id="267">3.9727e-12</wgt>
  <wgt id="268">3.96965e-12</wgt>
  <wgt id="269">3.98386e-12</wgt>
  <wgt id="270">3.963e-12</wgt>
  <wgt id="271">3.96479e-12</wgt>
  <wgt id="272">3.9787e-12</wgt>
  <wgt id="273">3.95924e-12</wgt>
  <wgt id="274">3.98072e-12</wgt>
  <wgt id="275">3.9559e-12</wgt>
  <wgt id="276">3.98746e-12</wgt>
  <wgt id="277">3.94923e-12</wgt>
  <wgt id="278">3.99186e-12</wgt>
  <wgt id="279">3.89653e-12</wgt>
  <wgt id="280">4.06511e-12</wgt>
  <wgt id="281">3.95435e-12</wgt>
  <wgt id="282">3.97195e-12</wgt>
  <wgt id="283">3.8616e-12</wgt>
  <wgt id="284">4.10629e-12</wgt>
  <wgt id="285">3.78881e-12</wgt>
  <wgt id="286">4.12189e-12</wgt>
  <wgt id="287">3.98348e-12</wgt>
  <wgt id="288">3.95607e-12</wgt>
  <wgt id="289">3.99815e-12</wgt>
  <wgt id="290">3.90862e-12</wgt>
  <wgt id="291">3.96152e-12</wgt>
  <wgt id="292">3.97384e-12</wgt>
  <wgt id="293">3.94206e-12</wgt>
  <wgt id="294">4.00047e-12</wgt>
  <wgt id="295">3.89887e-12</wgt>
  <wgt id="296">4.05974e-12</wgt>
  <wgt id="297">3.97236e-12</wgt>
  <wgt id="298">3.98501e-12</wgt>
  <wgt id="299">3.9591e-12</wgt>
  <wgt id="300">4.00389e-12</wgt>
  <wgt id="301">3.92228e-12</wgt>
  <wgt id="302">4.09981e-12</wgt>
  <wgt id="303">3.9439e-12</wgt>
  <wgt id="304">3.98727e-12</wgt>
  <wgt id="305">3.98863e-12</wgt>
  <wgt id="306">3.99285e-12</wgt>
  <wgt id="307">3.9843e-12</wgt>
  <wgt id="308">3.99202e-12</wgt>
  <wgt id="309">3.98647e-12</wgt>
  <wgt id="310">4.01624e-12</wgt>
  <wgt id="311">3.96315e-12</wgt>
  <wgt id="312">3.99281e-12</wgt>
  <wgt id="313">3.9846e-12</wgt>
  <wgt id="314">3.9872e-12</wgt>
  <wgt id="315">3.99028e-12</wgt>
  <wgt id="316">3.98452e-12</wgt>
  <wgt id="317">3.9979e-12</wgt>
  <wgt id="318">3.99159e-12</wgt>
  <wgt id="319">3.98397e-12</wgt>
  <wgt id="320">4.00166e-12</wgt>
  <wgt id="321">3.98162e-12</wgt>
  <wgt id="322">3.98012e-12</wgt>
  <wgt id="323">3.99899e-12</wgt>
  <wgt id="324">3.97856e-12</wgt>
  <wgt id="325">3.99767e-12</wgt>
  <wgt id="326">3.97625e-12</wgt>
  <wgt id="327">4.00469e-12</wgt>
  <wgt id="328">3.96867e-12</wgt>
  <wgt id="329">4.00024e-12</wgt>
  <wgt id="330">4.1044e-12</wgt>
  <wgt id="331">3.87823e-12</wgt>
  <wgt id="332">3.97458e-12</wgt>
  <wgt id="333">3.98868e-12</wgt>
  <wgt id="334">3.90217e-12</wgt>
  <wgt id="335">4.09607e-12</wgt>
  <wgt id="336">3.85561e-12</wgt>
  <wgt id="337">4.14994e-12</wgt>
  <wgt id="338">4.03123e-12</wgt>
  <wgt id="339">3.94923e-12</wgt>
  <wgt id="340">4.01424e-12</wgt>
  <wgt id="341">3.9227e-12</wgt>
  <wgt id="342">3.98178e-12</wgt>
  <wgt id="343">3.98509e-12</wgt>
  <wgt id="344">3.96183e-12</wgt>
  <wgt id="345">4.0198e-12</wgt>
  <wgt id="346">3.91315e-12</wgt>
  <wgt id="347">4.07563e-12</wgt>
  <wgt id="348">3.99144e-12</wgt>
  <wgt id="349">3.99961e-12</wgt>
  <wgt id="350">3.97309e-12</wgt>
  <wgt id="351">4.02816e-12</wgt>
  <wgt id="352">3.93375e-12</wgt>
  <wgt id="353">4.12434e-12</wgt>
  <wgt id="354">3.94634e-12</wgt>
  <wgt id="355">4.01479e-12</wgt>
  <wgt id="356">3.97144e-12</wgt>
  <wgt id="357">4.00648e-12</wgt>
  <wgt id="358">3.98863e-12</wgt>
  <wgt id="359">3.98677e-12</wgt>
  <wgt id="360">3.99324e-12</wgt>
  <wgt id="361">3.98292e-12</wgt>
  <wgt id="362">4.04942e-12</wgt>
  <wgt id="363">4.03998e-12</wgt>
  <wgt id="364">4.02712e-12</wgt>
  <wgt id="365">4.01403e-12</wgt>
  <wgt id="366">3.99926e-12</wgt>
  <wgt id="367">3.96843e-12</wgt>
  <wgt id="368">3.95171e-12</wgt>
  <wgt id="369">3.93376e-12</wgt>
  <wgt id="370">3.98292e-12</wgt>
  <wgt id="371">4.00069e-12</wgt>
  <wgt id="372">3.99087e-12</wgt>
  <wgt id="373">3.97635e-12</wgt>
  <wgt id="374">3.97437e-12</wgt>
  <wgt id="375">4.22407e-12</wgt>
  <wgt id="376">4.22458e-12</wgt>
  <wgt id="377">4.22337e-12</wgt>
  <wgt id="378">4.23923e-12</wgt>
  <wgt id="379">4.20885e-12</wgt>
  <wgt id="380">4.23532e-12</wgt>
  <wgt id="381">4.21952e-12</wgt>
  <wgt id="382">4.2455e-12</wgt>
  <wgt id="383">4.20284e-12</wgt>
  <wgt id="384">4.2268e-12</wgt>
  <wgt id="385">4.22146e-12</wgt>
  <wgt id="386">4.2406e-12</wgt>
  <wgt id="387">4.21682e-12</wgt>
  <wgt id="388">4.22008e-12</wgt>
  <wgt id="389">4.2288e-12</wgt>
  <wgt id="390">4.23535e-12</wgt>
  <wgt id="391">4.21214e-12</wgt>
  <wgt id="392">4.19336e-12</wgt>
  <wgt id="393">4.24148e-12</wgt>
  <wgt id="394">4.23016e-12</wgt>
  <wgt id="395">4.21575e-12</wgt>
  <wgt id="396">4.22603e-12</wgt>
  <wgt id="397">4.22273e-12</wgt>
  <wgt id="398">4.20585e-12</wgt>
  <wgt id="399">4.24162e-12</wgt>
  <wgt id="400">4.21703e-12</wgt>
  <wgt id="401">4.23964e-12</wgt>
  <wgt id="402">4.19096e-12</wgt>
  <wgt id="403">4.23803e-12</wgt>
  <wgt id="404">4.3174e-12</wgt>
  <wgt id="405">3.99878e-12</wgt>
  <wgt id="406">4.15709e-12</wgt>
  <wgt id="407">4.36878e-12</wgt>
  <wgt id="408">4.25844e-12</wgt>
  <wgt id="409">4.15807e-12</wgt>
  <wgt id="410">4.11385e-12</wgt>
  <wgt id="411">4.27466e-12</wgt>
  <wgt id="412">4.21705e-12</wgt>
  <wgt id="413">4.23424e-12</wgt>
  <wgt id="414">4.18e-12</wgt>
  <wgt id="415">4.25819e-12</wgt>
  <wgt id="416">4.3293e-12</wgt>
  <wgt id="417">4.07848e-12</wgt>
  <wgt id="418">4.22947e-12</wgt>
  <wgt id="419">4.1954e-12</wgt>
  <wgt id="420">4.27969e-12</wgt>
  <wgt id="421">4.19372e-12</wgt>
  <wgt id="422">4.22019e-12</wgt>
  <wgt id="423">4.22688e-12</wgt>
  <wgt id="424">4.30217e-12</wgt>
  <wgt id="425">4.17575e-12</wgt>
  <wgt id="426">4.22407e-12</wgt>
  <wgt id="427">4.19141e-12</wgt>
  <wgt id="428">4.32357e-12</wgt>
  <wgt id="429">4.25899e-12</wgt>
  <wgt id="430">4.37366e-12</wgt>
  <wgt id="431">4.35073e-12</wgt>
  <wgt id="432">4.32904e-12</wgt>
  <wgt id="433">4.30801e-12</wgt>
  <wgt id="434">4.28265e-12</wgt>
  <wgt id="435">4.2293e-12</wgt>
  <wgt id="436">4.20182e-12</wgt>
  <wgt id="437">4.17563e-12</wgt>
  <wgt id="438">4.25899e-12</wgt>
  <wgt id="439">4.27308e-12</wgt>
  <wgt id="440">4.26477e-12</wgt>
  <wgt id="441">4.25457e-12</wgt>
  <wgt id="442">4.25082e-12</wgt>
  <wgt id="443">4.14903e-12</wgt>
  <wgt id="444">4.1695e-12</wgt>
  <wgt id="445">4.1319e-12</wgt>
  <wgt id="446">4.1235e-12</wgt>
  <wgt id="447">4.13424e-12</wgt>
  <wgt id="448">4.04329e-12</wgt>
  <wgt id="449">4.20997e-12</wgt>
  <wgt id="450">4.13177e-12</wgt>
  <wgt id="451">4.14291e-12</wgt>
  <wgt id="452">4.23782e-12</wgt>
  <wgt id="453">4.1851e-12</wgt>
  <wgt id="454">3.98973e-12</wgt>
  <wgt id="455">4.15352e-12</wgt>
  <wgt id="456">4.09756e-12</wgt>
  <wgt id="457">4.16512e-12</wgt>
  <wgt id="458">4.19377e-12</wgt>
  <wgt id="459">4.17513e-12</wgt>
  <wgt id="460">4.17051e-12</wgt>
  <wgt id="461">4.07851e-12</wgt>
  <wgt id="462">4.11737e-12</wgt>
  <wgt id="463">4.10733e-12</wgt>
  <wgt id="464">4.12733e-12</wgt>
  <wgt id="465">4.18936e-12</wgt>
  <wgt id="466">4.10545e-12</wgt>
  <wgt id="467">4.11147e-12</wgt>
  <wgt id="468">4.13836e-12</wgt>
  <wgt id="469">4.13828e-12</wgt>
  <wgt id="470">4.11454e-12</wgt>
  <wgt id="471">4.11531e-12</wgt>
  <wgt id="472">4.16676e-12</wgt>
  <wgt id="473">4.02402e-12</wgt>
  <wgt id="474">3.0282e-12</wgt>
  <wgt id="475">3.21859e-12</wgt>
  <wgt id="476">2.96373e-12</wgt>
  <wgt id="477">2.94606e-12</wgt>
  <wgt id="478">3.04398e-12</wgt>
  <wgt id="479">2.98047e-12</wgt>
  <wgt id="480">3.12885e-12</wgt>
  <wgt id="481">2.95843e-12</wgt>
  <wgt id="482">2.91132e-12</wgt>
  <wgt id="483">2.94949e-12</wgt>
  <wgt id="484">3.23977e-12</wgt>
  <wgt id="485">3.03379e-12</wgt>
  <wgt id="486">3.09258e-12</wgt>
  <wgt id="487">3.08144e-12</wgt>
  <wgt id="488">3.06792e-12</wgt>
  <wgt id="489">2.92649e-12</wgt>
  <wgt id="490">2.93647e-12</wgt>
  <wgt id="491">2.99485e-12</wgt>
  <wgt id="492">2.93472e-12</wgt>
  <wgt id="493">2.92123e-12</wgt>
  <wgt id="494">2.9385e-12</wgt>
  <wgt id="495">3.08888e-12</wgt>
  <wgt id="496">2.92718e-12</wgt>
  <wgt id="497">2.91587e-12</wgt>
  <wgt id="498">3.0673e-12</wgt>
  <wgt id="499">2.95196e-12</wgt>
  <wgt id="500">2.97845e-12</wgt>
  <wgt id="501">3.16207e-12</wgt>
  <wgt id="502">2.94821e-12</wgt>
  <wgt id="503">3.02193e-12</wgt>
  <wgt id="504">3.04148e-12</wgt>
  <wgt id="505">3.0365e-12</wgt>
  <wgt id="506">3.08615e-12</wgt>
  <wgt id="507">2.99693e-12</wgt>
  <wgt id="508">3.07318e-12</wgt>
  <wgt id="509">2.98547e-12</wgt>
  <wgt id="510">3.10416e-12</wgt>
  <wgt id="511">2.96664e-12</wgt>
  <wgt id="512">3.0678e-12</wgt>
  <wgt id="513">3.15039e-12</wgt>
  <wgt id="514">3.00422e-12</wgt>
  <wgt id="515">2.98896e-12</wgt>
  <wgt id="516">3.10926e-12</wgt>
  <wgt id="517">3.09292e-12</wgt>
  <wgt id="518">3.10202e-12</wgt>
  <wgt id="519">2.95006e-12</wgt>
  <wgt id="520">3.04965e-12</wgt>
  <wgt id="521">3.13547e-12</wgt>
  <wgt id="522">3.14265e-12</wgt>
  <wgt id="523">3.09528e-12</wgt>
  <wgt id="524">3.0813e-12</wgt>
  <wgt id="525">3.11346e-12</wgt>
  <wgt id="526">3.0316e-12</wgt>
  <wgt id="527">3.07901e-12</wgt>
  <wgt id="528">3.03504e-12</wgt>
  <wgt id="529">2.98281e-12</wgt>
  <wgt id="530">3.05087e-12</wgt>
  <wgt id="531">2.99362e-12</wgt>
  <wgt id="532">3.1911e-12</wgt>
  <wgt id="533">2.84752e-12</wgt>
  <wgt id="534">3.03744e-12</wgt>
  <wgt id="535">3.08543e-12</wgt>
  <wgt id="536">3.02265e-12</wgt>
  <wgt id="537">3.03935e-12</wgt>
  <wgt id="538">3.07154e-12</wgt>
  <wgt id="539">2.96609e-12</wgt>
  <wgt id="540">2.98242e-12</wgt>
  <wgt id="541">2.9627e-12</wgt>
  <wgt id="542">2.96901e-12</wgt>
  <wgt id="543">3.02346e-12</wgt>
  <wgt id="544">3.17599e-12</wgt>
  <wgt id="545">2.98948e-12</wgt>
  <wgt id="546">2.99494e-12</wgt>
  <wgt id="547">2.93722e-12</wgt>
  <wgt id="548">2.9051e-12</wgt>
  <wgt id="549">2.97868e-12</wgt>
  <wgt id="550">3.02588e-12</wgt>
  <wgt id="551">3.06077e-12</wgt>
  <wgt id="552">3.0017e-12</wgt>
  <wgt id="553">3.02086e-12</wgt>
  <wgt id="554">3.25246e-12</wgt>
  <wgt id="555">3.10817e-12</wgt>
  <wgt id="556">2.93647e-12</wgt>
  <wgt id="557">3.07545e-12</wgt>
  <wgt id="558">2.92992e-12</wgt>
  <wgt id="559">2.99086e-12</wgt>
  <wgt id="560">3.2734e-12</wgt>
  <wgt id="561">2.96294e-12</wgt>
  <wgt id="562">3.07145e-12</wgt>
  <wgt id="563">2.94507e-12</wgt>
  <wgt id="564">3.02698e-12</wgt>
  <wgt id="565">2.92252e-12</wgt>
  <wgt id="566">3.06835e-12</wgt>
  <wgt id="567">2.98355e-12</wgt>
  <wgt id="568">3.0235e-12</wgt>
  <wgt id="569">3.0697e-12</wgt>
  <wgt id="570">2.94609e-12</wgt>
  <wgt id="571">3.35131e-12</wgt>
  <wgt id="572">2.95999e-12</wgt>
  <wgt id="573">2.89366e-12</wgt>
  <wgt id="574">2.9214e-12</wgt>
  <wgt id="575">3.32548e-12</wgt>
  <wgt id="576">3.28355e-12</wgt>
  <wgt id="577">3.42927e-12</wgt>
  <wgt id="578">3.39918e-12</wgt>
  <wgt id="579">3.3686e-12</wgt>
  <wgt id="580">3.38123e-12</wgt>
  <wgt id="581">3.52887e-12</wgt>
  <wgt id="582">3.27487e-12</wgt>
  <wgt id="583">3.35934e-12</wgt>
  <wgt id="584">3.32935e-12</wgt>
  <wgt id="585">3.35097e-12</wgt>
  <wgt id="586">3.25115e-12</wgt>
  <wgt id="587">3.36716e-12</wgt>
  <wgt id="588">3.30498e-12</wgt>
  <wgt id="589">3.37507e-12</wgt>
  <wgt id="590">3.38033e-12</wgt>
  <wgt id="591">3.45397e-12</wgt>
  <wgt id="592">3.26175e-12</wgt>
  <wgt id="593">3.3105e-12</wgt>
  <wgt id="594">3.44346e-12</wgt>
  <wgt id="595">3.30654e-12</wgt>
  <wgt id="596">3.36225e-12</wgt>
  <wgt id="597">3.21343e-12</wgt>
  <wgt id="598">3.26567e-12</wgt>
  <wgt id="599">3.49326e-12</wgt>
  <wgt id="600">3.29244e-12</wgt>
  <wgt id="601">3.23197e-12</wgt>
  <wgt id="602">3.26087e-12</wgt>
  <wgt id="603">3.27349e-12</wgt>
  <wgt id="604">3.37077e-12</wgt>
  <wgt id="605">3.45982e-12</wgt>
  <wgt id="606">3.24622e-12</wgt>
  <wgt id="607">3.28046e-12</wgt>
  <wgt id="608">3.33094e-12</wgt>
  <wgt id="609">3.13744e-12</wgt>
  <wgt id="610">3.19897e-12</wgt>
  <wgt id="611">3.36973e-12</wgt>
  <wgt id="612">3.56418e-12</wgt>
  <wgt id="613">3.32477e-12</wgt>
  <wgt id="614">3.36859e-12</wgt>
  <wgt id="615">3.25804e-12</wgt>
  <wgt id="616">3.52968e-12</wgt>
  <wgt id="617">3.44497e-12</wgt>
  <wgt id="618">3.355e-12</wgt>
  <wgt id="619">3.29752e-12</wgt>
  <wgt id="620">3.45247e-12</wgt>
  <wgt id="621">3.37397e-12</wgt>
  <wgt id="622">3.36716e-12</wgt>
  <wgt id="623">3.4151e-12</wgt>
  <wgt id="624">3.30906e-12</wgt>
  <wgt id="625">3.28789e-12</wgt>
  <wgt id="626">3.25075e-12</wgt>
  <wgt id="627">3.20263e-12</wgt>
  <wgt id="628">3.51253e-12</wgt>
  <wgt id="629">3.25167e-12</wgt>
  <wgt id="630">3.22088e-12</wgt>
  <wgt id="631">3.33349e-12</wgt>
  <wgt id="632">3.2223e-12</wgt>
  <wgt id="633">3.28576e-12</wgt>
  <wgt id="634">3.33159e-12</wgt>
  <wgt id="635">3.27876e-12</wgt>
  <wgt id="636">3.34478e-12</wgt>
  <wgt id="637">3.32577e-12</wgt>
  <wgt id="638">3.20456e-12</wgt>
  <wgt id="639">3.28617e-12</wgt>
  <wgt id="640">3.33044e-12</wgt>
  <wgt id="641">3.33768e-12</wgt>
  <wgt id="642">3.23246e-12</wgt>
  <wgt id="643">3.31039e-12</wgt>
  <wgt id="644">3.20848e-12</wgt>
  <wgt id="645">3.35059e-12</wgt>
  <wgt id="646">3.38412e-12</wgt>
  <wgt id="647">3.27662e-12</wgt>
  <wgt id="648">3.34067e-12</wgt>
  <wgt id="649">3.37607e-12</wgt>
  <wgt id="650">3.2652e-12</wgt>
  <wgt id="651">3.34919e-12</wgt>
  <wgt id="652">3.31242e-12</wgt>
  <wgt id="653">3.23649e-12</wgt>
  <wgt id="654">3.30996e-12</wgt>
  <wgt id="655">3.26336e-12</wgt>
  <wgt id="656">3.33359e-12</wgt>
  <wgt id="657">3.42001e-12</wgt>
  <wgt id="658">3.35963e-12</wgt>
  <wgt id="659">3.20135e-12</wgt>
  <wgt id="660">3.38933e-12</wgt>
  <wgt id="661">3.27407e-12</wgt>
  <wgt id="662">3.31862e-12</wgt>
  <wgt id="663">3.31986e-12</wgt>
  <wgt id="664">3.27398e-12</wgt>
  <wgt id="665">3.31379e-12</wgt>
  <wgt id="666">3.30858e-12</wgt>
  <wgt id="667">3.42808e-12</wgt>
  <wgt id="668">3.31441e-12</wgt>
  <wgt id="669">3.40669e-12</wgt>
  <wgt id="670">3.37643e-12</wgt>
  <wgt id="671">3.28304e-12</wgt>
  <wgt id="672">3.18683e-12</wgt>
  <wgt id="673">3.32185e-12</wgt>
  <wgt id="674">3.26035e-12</wgt>
  <wgt id="675">3.26697e-12</wgt>
  <wgt id="676">4.16154e-12</wgt>
  <wgt id="677">4.21369e-12</wgt>
  <wgt id="678">4.35259e-12</wgt>
  <wgt id="679">3.92985e-12</wgt>
  <wgt id="680">4.03777e-12</wgt>
  <wgt id="681">4.26994e-12</wgt>
  <wgt id="682">4.25203e-12</wgt>
  <wgt id="683">4.11877e-12</wgt>
  <wgt id="684">4.34499e-12</wgt>
  <wgt id="685">3.94227e-12</wgt>
  <wgt id="686">4.13553e-12</wgt>
  <wgt id="687">4.35564e-12</wgt>
  <wgt id="688">4.14526e-12</wgt>
  <wgt id="689">4.47967e-12</wgt>
  <wgt id="690">4.38595e-12</wgt>
  <wgt id="691">4.40166e-12</wgt>
  <wgt id="692">4.13226e-12</wgt>
  <wgt id="693">4.82546e-12</wgt>
  <wgt id="694">4.39909e-12</wgt>
  <wgt id="695">4.03059e-12</wgt>
  <wgt id="696">3.95284e-12</wgt>
  <wgt id="697">4.04532e-12</wgt>
  <wgt id="698">3.87082e-12</wgt>
  <wgt id="699">3.8317e-12</wgt>
  <wgt id="700">3.67335e-12</wgt>
  <wgt id="701">4.17365e-12</wgt>
  <wgt id="702">4.00261e-12</wgt>
  <wgt id="703">4.73476e-12</wgt>
  <wgt id="704">4.50233e-12</wgt>
  <wgt id="705">4.32489e-12</wgt>
  <wgt id="706">3.88311e-12</wgt>
  <wgt id="707">4.00204e-12</wgt>
  <wgt id="708">4.11106e-12</wgt>
  <wgt id="709">4.09208e-12</wgt>
  <wgt id="710">3.74034e-12</wgt>
  <wgt id="711">4.14767e-12</wgt>
  <wgt id="712">4.10222e-12</wgt>
  <wgt id="713">4.4717e-12</wgt>
  <wgt id="714">4.12433e-12</wgt>
  <wgt id="715">4.12075e-12</wgt>
  <wgt id="716">4.00729e-12</wgt>
  <wgt id="717">3.98937e-12</wgt>
  <wgt id="718">4.11788e-12</wgt>
  <wgt id="719">3.79837e-12</wgt>
  <wgt id="720">3.93159e-12</wgt>
  <wgt id="721">3.89958e-12</wgt>
  <wgt id="722">3.73837e-12</wgt>
  <wgt id="723">4.41256e-12</wgt>
  <wgt id="724">4.33848e-12</wgt>
  <wgt id="725">4.39455e-12</wgt>
  <wgt id="726">4.20587e-12</wgt>
  <wgt id="727">4.06565e-12</wgt>
  <wgt id="728">4.09964e-12</wgt>
  <wgt id="729">3.78409e-12</wgt>
  <wgt id="730">4.45359e-12</wgt>
  <wgt id="731">4.11731e-12</wgt>
  <wgt id="732">4.54695e-12</wgt>
  <wgt id="733">4.16101e-12</wgt>
  <wgt id="734">4.25975e-12</wgt>
  <wgt id="735">4.14009e-12</wgt>
  <wgt id="736">4.09825e-12</wgt>
  <wgt id="737">4.23177e-12</wgt>
  <wgt id="738">3.97903e-12</wgt>
  <wgt id="739">4.18132e-12</wgt>
  <wgt id="740">4.60507e-12</wgt>
  <wgt id="741">3.70739e-12</wgt>
  <wgt id="742">4.0984e-12</wgt>
  <wgt id="743">4.00948e-12</wgt>
  <wgt id="744">4.07889e-12</wgt>
  <wgt id="745">4.33112e-12</wgt>
  <wgt id="746">4.39097e-12</wgt>
  <wgt id="747">3.81312e-12</wgt>
  <wgt id="748">4.10283e-12</wgt>
  <wgt id="749">4.38846e-12</wgt>
  <wgt id="750">4.17745e-12</wgt>
  <wgt id="751">4.30469e-12</wgt>
  <wgt id="752">3.8338e-12</wgt>
  <wgt id="753">3.96762e-12</wgt>
  <wgt id="754">4.31758e-12</wgt>
  <wgt id="755">4.18338e-12</wgt>
  <wgt id="756">4.18756e-12</wgt>
  <wgt id="757">3.85533e-12</wgt>
  <wgt id="758">4.20848e-12</wgt>
  <wgt id="759">4.19012e-12</wgt>
  <wgt id="760">4.22723e-12</wgt>
  <wgt id="761">4.3801e-12</wgt>
  <wgt id="762">4.394e-12</wgt>
  <wgt id="763">4.15882e-12</wgt>
  <wgt id="764">4.31565e-12</wgt>
  <wgt id="765">4.21992e-12</wgt>
  <wgt id="766">4.15036e-12</wgt>
  <wgt id="767">4.26219e-12</wgt>
  <wgt id="768">3.94594e-12</wgt>
  <wgt id="769">4.40405e-12</wgt>
  <wgt id="770">4.04418e-12</wgt>
  <wgt id="771">4.88607e-12</wgt>
  <wgt id="772">3.92357e-12</wgt>
  <wgt id="773">4.1384e-12</wgt>
  <wgt id="774">3.7408e-12</wgt>
  <wgt id="775">4.36982e-12</wgt>
  <wgt id="776">4.5418e-12</wgt>
  <wgt id="777">3.99975e-12</wgt>
  <wgt id="778">3.09904e-12</wgt>
  <wgt id="779">2.6152e-12</wgt>
  <wgt id="780">2.17266e-12</wgt>
  <wgt id="781">3.12663e-12</wgt>
  <wgt id="782">3.28116e-12</wgt>
  <wgt id="783">2.6562e-12</wgt>
  <wgt id="784">2.73683e-12</wgt>
  <wgt id="785">3.73491e-12</wgt>
  <wgt id="786">2.41095e-12</wgt>
  <wgt id="787">3.49428e-12</wgt>
  <wgt id="788">2.01804e-12</wgt>
  <wgt id="789">2.49527e-12</wgt>
  <wgt id="790">2.39253e-12</wgt>
  <wgt id="791">2.88839e-12</wgt>
  <wgt id="792">3.99205e-12</wgt>
  <wgt id="793">3.0109e-12</wgt>
  <wgt id="794">2.41961e-12</wgt>
  <wgt id="795">3.58174e-12</wgt>
  <wgt id="796">4.04475e-12</wgt>
  <wgt id="797">3.55292e-12</wgt>
  <wgt id="798">2.87765e-12</wgt>
  <wgt id="799">3.50389e-12</wgt>
  <wgt id="800">2.52282e-12</wgt>
  <wgt id="801">2.91139e-12</wgt>
  <wgt id="802">2.43873e-12</wgt>
  <wgt id="803">4.0091e-12</wgt>
  <wgt id="804">3.55639e-12</wgt>
  <wgt id="805">3.624e-12</wgt>
  <wgt id="806">3.483e-12</wgt>
  <wgt id="807">2.96358e-12</wgt>
  <wgt id="808">3.02333e-12</wgt>
  <wgt id="809">2.85963e-12</wgt>
  <wgt id="810">3.53241e-12</wgt>
  <wgt id="811">3.37378e-12</wgt>
  <wgt id="812">2.40031e-12</wgt>
  <wgt id="813">2.44378e-12</wgt>
  <wgt id="814">2.64199e-12</wgt>
  <wgt id="815">2.62313e-12</wgt>
  <wgt id="816">2.31566e-12</wgt>
  <wgt id="817">3.26038e-12</wgt>
  <wgt id="818">3.04273e-12</wgt>
  <wgt id="819">2.61892e-12</wgt>
  <wgt id="820">3.108e-12</wgt>
  <wgt id="821">3.53875e-12</wgt>
  <wgt id="822">2.62396e-12</wgt>
  <wgt id="823">3.55203e-12</wgt>
  <wgt id="824">4.1341e-12</wgt>
  <wgt id="825">2.33321e-12</wgt>
  <wgt id="826">3.24528e-12</wgt>
  <wgt id="827">1.94301e-12</wgt>
  <wgt id="828">3.96778e-12</wgt>
  <wgt id="829">3.21195e-12</wgt>
  <wgt id="830">2.21546e-12</wgt>
  <wgt id="831">3.32006e-12</wgt>
  <wgt id="832">5.0185e-12</wgt>
  <wgt id="833">2.91433e-12</wgt>
  <wgt id="834">4.69377e-12</wgt>
  <wgt id="835">2.53033e-12</wgt>
  <wgt id="836">3.10234e-12</wgt>
  <wgt id="837">3.49424e-12</wgt>
  <wgt id="838">2.96834e-12</wgt>
  <wgt id="839">3.30174e-12</wgt>
  <wgt id="840">2.91969e-12</wgt>
  <wgt id="841">3.76518e-12</wgt>
  <wgt id="842">2.82729e-12</wgt>
  <wgt id="843">3.03007e-12</wgt>
  <wgt id="844">3.22147e-12</wgt>
  <wgt id="845">4.26437e-12</wgt>
  <wgt id="846">2.87551e-12</wgt>
  <wgt id="847">3.10364e-12</wgt>
  <wgt id="848">2.71688e-12</wgt>
  <wgt id="849">3.17338e-12</wgt>
  <wgt id="850">3.98679e-12</wgt>
  <wgt id="851">3.38479e-12</wgt>
  <wgt id="852">2.6921e-12</wgt>
  <wgt id="853">3.37659e-12</wgt>
  <wgt id="854">3.7421e-12</wgt>
  <wgt id="855">3.56017e-12</wgt>
  <wgt id="856">2.27322e-12</wgt>
  <wgt id="857">3.11953e-12</wgt>
  <wgt id="858">3.07756e-12</wgt>
  <wgt id="859">2.88599e-12</wgt>
  <wgt id="860">3.29877e-12</wgt>
  <wgt id="861">2.75652e-12</wgt>
  <wgt id="862">3.15557e-12</wgt>
  <wgt id="863">3.26094e-12</wgt>
  <wgt id="864">3.27906e-12</wgt>
  <wgt id="865">4.38352e-12</wgt>
  <wgt id="866">4.79332e-12</wgt>
  <wgt id="867">3.1472e-12</wgt>
  <wgt id="868">3.06376e-12</wgt>
  <wgt id="869">2.44022e-12</wgt>
  <wgt id="870">2.56493e-12</wgt>
  <wgt id="871">2.49156e-12</wgt>
  <wgt id="872">3.65486e-12</wgt>
  <wgt id="873">2.56839e-12</wgt>
  <wgt id="874">3.24756e-12</wgt>
  <wgt id="875">2.70535e-12</wgt>
  <wgt id="876">3.66348e-12</wgt>
  <wgt id="877">3.52824e-12</wgt>
  <wgt id="878">2.69404e-12</wgt>
  <wgt id="879">4.16154e-12</wgt>
  <wgt id="880">4.21369e-12</wgt>
  <wgt id="881">4.35259e-12</wgt>
  <wgt id="882">3.92985e-12</wgt>
  <wgt id="883">4.03777e-12</wgt>
  <wgt id="884">4.26994e-12</wgt>
  <wgt id="885">4.25203e-12</wgt>
  <wgt id="886">4.11877e-12</wgt>
  <wgt id="887">4.34499e-12</wgt>
  <wgt id="888">3.94227e-12</wgt>
  <wgt id="889">4.13553e-12</wgt>
  <wgt id="890">4.35564e-12</wgt>
  <wgt id="891">4.14526e-12</wgt>
  <wgt id="892">4.47967e-12</wgt>
  <wgt id="893">4.38595e-12</wgt>
  <wgt id="894">4.40166e-12</wgt>
  <wgt id="895">4.13226e-12</wgt>
  <wgt id="896">4.82546e-12</wgt>
  <wgt id="897">4.39909e-12</wgt>
  <wgt id="898">4.03059e-12</wgt>
  <wgt id="899">3.95284e-12</wgt>
  <wgt id="900">4.04532e-12</wgt>
  <wgt id="901">3.87082e-12</wgt>
  <wgt id="902">3.8317e-12</wgt>
  <wgt id="903">3.67335e-12</wgt>
  <wgt id="904">4.17365e-12</wgt>
  <wgt id="905">4.00261e-12</wgt>
  <wgt id="906">4.73476e-12</wgt>
  <wgt id="907">4.50233e-12</wgt>
  <wgt id="908">4.32489e-12</wgt>
  <wgt id="909">3.88311e-12</wgt>
  <wgt id="910">4.00204e-12</wgt>
  <wgt id="911">4.11106e-12</wgt>
  <wgt id="912">4.09208e-12</wgt>
  <wgt id="913">3.74034e-12</wgt>
  <wgt id="914">4.14767e-12</wgt>
  <wgt id="915">4.10222e-12</wgt>
  <wgt id="916">4.4717e-12</wgt>
  <wgt id="917">4.12433e-12</wgt>
  <wgt id="918">4.12075e-12</wgt>
  <wgt id="919">4.00729e-12</wgt>
  <wgt id="920">3.98937e-12</wgt>
  <wgt id="921">4.11788e-12</wgt>
  <wgt id="922">3.79837e-12</wgt>
  <wgt id="923">3.93159e-12</wgt>
  <wgt id="924">3.89958e-12</wgt>
  <wgt id="925">3.73837e-12</wgt>
  <wgt id="926">4.41256e-12</wgt>
  <wgt id="927">4.33848e-12</wgt>
  <wgt id="928">4.39455e-12</wgt>
  <wgt id="929">4.20587e-12</wgt>
  <wgt id="930">4.06565e-12</wgt>
  <wgt id="931">4.09964e-12</wgt>
  <wgt id="932">3.78409e-12</wgt>
  <wgt id="933">4.45359e-12</wgt>
  <wgt id="934">4.11731e-12</wgt>
  <wgt id="935">4.54695e-12</wgt>
  <wgt id="936">4.16101e-12</wgt>
  <wgt id="937">4.25975e-12</wgt>
  <wgt id="938">4.14009e-12</wgt>
  <wgt id="939">4.09825e-12</wgt>
  <wgt id="940">4.23177e-12</wgt>
  <wgt id="941">3.97903e-12</wgt>
  <wgt id="942">4.18132e-12</wgt>
  <wgt id="943">4.60507e-12</wgt>
  <wgt id="944">3.70739e-12</wgt>
  <wgt id="945">4.0984e-12</wgt>
  <wgt id="946">4.00948e-12</wgt>
  <wgt id="947">4.07889e-12</wgt>
  <wgt id="948">4.33112e-12</wgt>
  <wgt id="949">4.39097e-12</wgt>
  <wgt id="950">3.81312e-12</wgt>
  <wgt id="951">4.10283e-12</wgt>
  <wgt id="952">4.38846e-12</wgt>
  <wgt id="953">4.17745e-12</wgt>
  <wgt id="954">4.30469e-12</wgt>
  <wgt id="955">3.8338e-12</wgt>
  <wgt id="956">3.96762e-12</wgt>
  <wgt id="957">4.31758e-12</wgt>
  <wgt id="958">4.18338e-12</wgt>
  <wgt id="959">4.18756e-12</wgt>
  <wgt id="960">3.85533e-12</wgt>
  <wgt id="961">4.20848e-12</wgt>
  <wgt id="962">4.19012e-12</wgt>
  <wgt id="963">4.22723e-12</wgt>
  <wgt id="964">4.3801e-12</wgt>
  <wgt id="965">4.394e-12</wgt>
  <wgt id="966">4.15882e-12</wgt>
  <wgt id="967">4.31565e-12</wgt>
  <wgt id="968">4.21992e-12</wgt>
  <wgt id="969">4.15036e-12</wgt>
  <wgt id="970">4.26219e-12</wgt>
  <wgt id="971">3.94594e-12</wgt>
  <wgt id="972">4.40405e-12</wgt>
  <wgt id="973">4.04418e-12</wgt>
  <wgt id="974">4.88607e-12</wgt>
  <wgt id="975">3.92357e-12</wgt>
  <wgt id="976">4.1384e-12</wgt>
  <wgt id="977">3.7408e-12</wgt>
  <wgt id="978">4.36982e-12</wgt>
  <wgt id="979">4.5418e-12</wgt>
  <wgt id="980">4.16527e-12</wgt>
  <wgt id="981">4.18032e-12</wgt>
  <wgt id="982">4.04483e-12</wgt>
</rwgt>
</event>
<event>
 5   1  0.3028200E-11  0.1972692E+04  0.7818608E-02  0.7840308E-01
       21   -1    0    0  502  501  0.00000000000E+00  0.00000000000E+00  0.73750497991E+03  0.73750497991E+03  0.00000000000E+00 0. -1.
       21   -1    0    0  501  502 -0.00000000000E+00 -0.00000000000E+00 -0.13191476886E+04  0.13191476886E+04  0.00000000000E+00 0.  1.
       39    2    1    2    0    0  0.00000000000E+00  0.00000000000E+00 -0.58164270866E+03  0.20566526685E+04  0.19726915517E+04 0.  0.
       25    1    3    3    0    0  0.30892712738E+03  0.69435854069E+03 -0.93323163162E+03  0.12100066245E+04  0.12500000000E+03 0.  0.
       25    1    3    3    0    0 -0.30892712738E+03 -0.69435854069E+03  0.35158892296E+03  0.84664604399E+03  0.12500000000E+03 0.  0.
<mgrwt>
<rscale>  0 0.19726916E+04</rscale>
<asrwt>0</asrwt>
<pdfrwt beam="1">  1       21 0.11346231E+00 0.19726916E+04</pdfrwt>
<pdfrwt beam="2">  1       21 0.20294580E+00 0.19726916E+04</pdfrwt>
<totfact> 0.35004819E+01</totfact>
</mgrwt>
<rwgt>
  <wgt id="1">3.0282e-12</wgt>
  <wgt id="2">2.65613e-12</wgt>
  <wgt id="3">3.48624e-12</wgt>
  <wgt id="4">3.0282e-12</wgt>
  <wgt id="5">2.65613e-12</wgt>
  <wgt id="6">3.48624e-12</wgt>
  <wgt id="7">3.0282e-12</wgt>
  <wgt id="8">2.65613e-12</wgt>
  <wgt id="9">3.48624e-12</wgt>
  <wgt id="10">3.09815e-12</wgt>
  <wgt id="11">3.09577e-12</wgt>
  <wgt id="12">3.09343e-12</wgt>
  <wgt id="13">3.08838e-12</wgt>
  <wgt id="14">3.109e-12</wgt>
  <wgt id="15">3.10293e-12</wgt>
  <wgt id="16">3.09254e-12</wgt>
  <wgt id="17">3.10537e-12</wgt>
  <wgt id="18">3.09506e-12</wgt>
  <wgt id="19">3.10363e-12</wgt>
  <wgt id="20">3.09018e-12</wgt>
  <wgt id="21">3.08032e-12</wgt>
  <wgt id="22">3.08674e-12</wgt>
  <wgt id="23">3.07096e-12</wgt>
  <wgt id="24">3.08316e-12</wgt>
  <wgt id="25">3.0902e-12</wgt>
  <wgt id="26">3.10887e-12</wgt>
  <wgt id="27">3.09703e-12</wgt>
  <wgt id="28">3.08269e-12</wgt>
  <wgt id="29">3.10082e-12</wgt>
  <wgt id="30">3.0864e-12</wgt>
  <wgt id="31">3.10776e-12</wgt>
  <wgt id="32">3.08839e-12</wgt>
  <wgt id="33">3.10332e-12</wgt>
  <wgt id="34">3.08796e-12</wgt>
  <wgt id="35">3.09106e-12</wgt>
  <wgt id="36">3.10435e-12</wgt>
  <wgt id="37">3.0903e-12</wgt>
  <wgt id="38">3.09132e-12</wgt>
  <wgt id="39">3.1318e-12</wgt>
  <wgt id="40">3.10417e-12</wgt>
  <wgt id="41">3.0973e-12</wgt>
  <wgt id="42">3.10698e-12</wgt>
  <wgt id="43">3.10038e-12</wgt>
  <wgt id="44">3.09022e-12</wgt>
  <wgt id="45">3.10118e-12</wgt>
  <wgt id="46">3.09906e-12</wgt>
  <wgt id="47">3.09042e-12</wgt>
  <wgt id="48">3.09765e-12</wgt>
  <wgt id="49">3.10395e-12</wgt>
  <wgt id="50">3.11012e-12</wgt>
  <wgt id="51">3.10534e-12</wgt>
  <wgt id="52">3.09033e-12</wgt>
  <wgt id="53">3.08399e-12</wgt>
  <wgt id="54">3.09481e-12</wgt>
  <wgt id="55">3.09705e-12</wgt>
  <wgt id="56">3.10968e-12</wgt>
  <wgt id="57">3.10833e-12</wgt>
  <wgt id="58">3.08155e-12</wgt>
  <wgt id="59">3.08997e-12</wgt>
  <wgt id="60">3.10168e-12</wgt>
  <wgt id="61">3.09267e-12</wgt>
  <wgt id="62">3.09442e-12</wgt>
  <wgt id="63">3.09904e-12</wgt>
  <wgt id="64">3.1013e-12</wgt>
  <wgt id="65">3.1024e-12</wgt>
  <wgt id="66">3.09494e-12</wgt>
  <wgt id="67">3.09096e-12</wgt>
  <wgt id="68">3.09602e-12</wgt>
  <wgt id="69">3.09837e-12</wgt>
  <wgt id="70">3.09785e-12</wgt>
  <wgt id="71">3.09776e-12</wgt>
  <wgt id="72">3.09462e-12</wgt>
  <wgt id="73">3.09907e-12</wgt>
  <wgt id="74">3.09862e-12</wgt>
  <wgt id="75">3.09552e-12</wgt>
  <wgt id="76">3.10328e-12</wgt>
  <wgt id="77">3.09799e-12</wgt>
  <wgt id="78">3.09935e-12</wgt>
  <wgt id="79">3.10312e-12</wgt>
  <wgt id="80">3.08897e-12</wgt>
  <wgt id="81">3.09457e-12</wgt>
  <wgt id="82">3.09811e-12</wgt>
  <wgt id="83">3.08919e-12</wgt>
  <wgt id="84">3.09396e-12</wgt>
  <wgt id="85">3.09301e-12</wgt>
  <wgt id="86">3.10466e-12</wgt>
  <wgt id="87">3.0856e-12</wgt>
  <wgt id="88">3.10081e-12</wgt>
  <wgt id="89">3.10065e-12</wgt>
  <wgt id="90">3.10189e-12</wgt>
  <wgt id="91">3.10049e-12</wgt>
  <wgt id="92">3.10297e-12</wgt>
  <wgt id="93">3.09793e-12</wgt>
  <wgt id="94">3.09598e-12</wgt>
  <wgt id="95">3.09964e-12</wgt>
  <wgt id="96">3.09943e-12</wgt>
  <wgt id="97">3.0947e-12</wgt>
  <wgt id="98">3.09913e-12</wgt>
  <wgt id="99">3.09655e-12</wgt>
  <wgt id="100">3.09955e-12</wgt>
  <wgt id="101">3.09748e-12</wgt>
  <wgt id="102">3.0956e-12</wgt>
  <wgt id="103">3.10134e-12</wgt>
  <wgt id="104">3.09694e-12</wgt>
  <wgt id="105">3.10089e-12</wgt>
  <wgt id="106">3.09485e-12</wgt>
  <wgt id="107">3.10448e-12</wgt>
  <wgt id="108">3.09612e-12</wgt>
  <wgt id="109">3.09793e-12</wgt>
  <wgt id="110">3.09826e-12</wgt>
  <wgt id="111">3.1323e-12</wgt>
  <wgt id="112">3.09474e-12</wgt>
  <wgt id="113">4.01402e-12</wgt>
  <wgt id="114">4.16782e-12</wgt>
  <wgt id="115">4.10706e-12</wgt>
  <wgt id="116">5.40994e-12</wgt>
  <wgt id="117">3.35864e-12</wgt>
  <wgt id="118">3.3683e-12</wgt>
  <wgt id="119">3.3532e-12</wgt>
  <wgt id="120">3.35916e-12</wgt>
  <wgt id="121">3.35849e-12</wgt>
  <wgt id="122">3.35251e-12</wgt>
  <wgt id="123">3.36722e-12</wgt>
  <wgt id="124">3.35363e-12</wgt>
  <wgt id="125">3.36195e-12</wgt>
  <wgt id="126">3.36351e-12</wgt>
  <wgt id="127">3.3555e-12</wgt>
  <wgt id="128">3.36912e-12</wgt>
  <wgt id="129">3.34838e-12</wgt>
  <wgt id="130">3.37713e-12</wgt>
  <wgt id="131">3.33981e-12</wgt>
  <wgt id="132">3.27747e-12</wgt>
  <wgt id="133">3.45401e-12</wgt>
  <wgt id="134">3.32622e-12</wgt>
  <wgt id="135">3.38407e-12</wgt>
  <wgt id="136">3.3968e-12</wgt>
  <wgt id="137">3.31257e-12</wgt>
  <wgt id="138">3.4744e-12</wgt>
  <wgt id="139">3.24606e-12</wgt>
  <wgt id="140">3.33563e-12</wgt>
  <wgt id="141">3.37675e-12</wgt>
  <wgt id="142">3.35914e-12</wgt>
  <wgt id="143">3.36262e-12</wgt>
  <wgt id="144">3.28737e-12</wgt>
  <wgt id="145">3.42317e-12</wgt>
  <wgt id="146">3.38085e-12</wgt>
  <wgt id="147">3.34159e-12</wgt>
  <wgt id="148">3.36774e-12</wgt>
  <wgt id="149">3.35803e-12</wgt>
  <wgt id="150">3.38572e-12</wgt>
  <wgt id="151">3.34604e-12</wgt>
  <wgt id="152">3.35975e-12</wgt>
  <wgt id="153">3.35841e-12</wgt>
  <wgt id="154">3.38922e-12</wgt>
  <wgt id="155">3.32289e-12</wgt>
  <wgt id="156">3.40467e-12</wgt>
  <wgt id="157">3.30401e-12</wgt>
  <wgt id="158">4.04512e-12</wgt>
  <wgt id="159">4.0617e-12</wgt>
  <wgt id="160">4.03149e-12</wgt>
  <wgt id="161">4.03646e-12</wgt>
  <wgt id="162">4.05451e-12</wgt>
  <wgt id="163">4.04139e-12</wgt>
  <wgt id="164">4.05049e-12</wgt>
  <wgt id="165">4.04676e-12</wgt>
  <wgt id="166">4.04383e-12</wgt>
  <wgt id="167">4.04201e-12</wgt>
  <wgt id="168">4.04919e-12</wgt>
  <wgt id="169">4.02747e-12</wgt>
  <wgt id="170">4.05606e-12</wgt>
  <wgt id="171">4.04136e-12</wgt>
  <wgt id="172">4.05006e-12</wgt>
  <wgt id="173">4.04579e-12</wgt>
  <wgt id="174">4.04466e-12</wgt>
  <wgt id="175">3.94219e-12</wgt>
  <wgt id="176">4.17806e-12</wgt>
  <wgt id="177">4.06327e-12</wgt>
  <wgt id="178">4.02788e-12</wgt>
  <wgt id="179">4.19314e-12</wgt>
  <wgt id="180">3.80904e-12</wgt>
  <wgt id="181">3.94083e-12</wgt>
  <wgt id="182">4.11352e-12</wgt>
  <wgt id="183">3.98113e-12</wgt>
  <wgt id="184">4.07666e-12</wgt>
  <wgt id="185">4.01497e-12</wgt>
  <wgt id="186">4.07944e-12</wgt>
  <wgt id="187">4.01092e-12</wgt>
  <wgt id="188">4.10609e-12</wgt>
  <wgt id="189">4.02253e-12</wgt>
  <wgt id="190">4.05427e-12</wgt>
  <wgt id="191">4.05474e-12</wgt>
  <wgt id="192">4.03922e-12</wgt>
  <wgt id="193">4.09447e-12</wgt>
  <wgt id="194">4.02051e-12</wgt>
  <wgt id="195">3.97849e-12</wgt>
  <wgt id="196">4.1794e-12</wgt>
  <wgt id="197">4.06282e-12</wgt>
  <wgt id="198">4.04065e-12</wgt>
  <wgt id="199">4.04512e-12</wgt>
  <wgt id="200">4.07657e-12</wgt>
  <wgt id="201">4.06487e-12</wgt>
  <wgt id="202">4.05361e-12</wgt>
  <wgt id="203">4.03641e-12</wgt>
  <wgt id="204">4.02834e-12</wgt>
  <wgt id="205">4.02154e-12</wgt>
  <wgt id="206">3.96125e-12</wgt>
  <wgt id="207">3.98382e-12</wgt>
  <wgt id="208">3.93886e-12</wgt>
  <wgt id="209">3.97025e-12</wgt>
  <wgt id="210">3.95466e-12</wgt>
  <wgt id="211">3.96036e-12</wgt>
  <wgt id="212">3.96192e-12</wgt>
  <wgt id="213">3.96088e-12</wgt>
  <wgt id="214">3.9617e-12</wgt>
  <wgt id="215">3.9633e-12</wgt>
  <wgt id="216">3.95974e-12</wgt>
  <wgt id="217">3.97103e-12</wgt>
  <wgt id="218">3.95349e-12</wgt>
  <wgt id="219">3.95483e-12</wgt>
  <wgt id="220">3.96503e-12</wgt>
  <wgt id="221">3.95953e-12</wgt>
  <wgt id="222">3.96503e-12</wgt>
  <wgt id="223">3.77163e-12</wgt>
  <wgt id="224">4.13289e-12</wgt>
  <wgt id="225">3.91983e-12</wgt>
  <wgt id="226">4.01298e-12</wgt>
  <wgt id="227">3.92751e-12</wgt>
  <wgt id="228">3.97608e-12</wgt>
  <wgt id="229">3.91121e-12</wgt>
  <wgt id="230">3.98605e-12</wgt>
  <wgt id="231">4.06329e-12</wgt>
  <wgt id="232">3.87672e-12</wgt>
  <wgt id="233">3.94298e-12</wgt>
  <wgt id="234">3.9885e-12</wgt>
  <wgt id="235">3.90675e-12</wgt>
  <wgt id="236">4.01854e-12</wgt>
  <wgt id="237">3.92024e-12</wgt>
  <wgt id="238">3.97552e-12</wgt>
  <wgt id="239">3.94262e-12</wgt>
  <wgt id="240">3.99533e-12</wgt>
  <wgt id="241">3.92607e-12</wgt>
  <wgt id="242">4.00307e-12</wgt>
  <wgt id="243">3.98934e-12</wgt>
  <wgt id="244">3.98973e-12</wgt>
  <wgt id="245">3.95754e-12</wgt>
  <wgt id="246">3.99222e-12</wgt>
  <wgt id="247">3.96125e-12</wgt>
  <wgt id="248">3.99275e-12</wgt>
  <wgt id="249">3.98059e-12</wgt>
  <wgt id="250">3.96936e-12</wgt>
  <wgt id="251">3.95228e-12</wgt>
  <wgt id="252">3.94442e-12</wgt>
  <wgt id="253">3.93847e-12</wgt>
  <wgt id="254">3.87328e-12</wgt>
  <wgt id="255">3.87673e-12</wgt>
  <wgt id="256">3.86936e-12</wgt>
  <wgt id="257">3.87634e-12</wgt>
  <wgt id="258">3.87085e-12</wgt>
  <wgt id="259">3.89862e-12</wgt>
  <wgt id="260">3.8487e-12</wgt>
  <wgt id="261">3.87593e-12</wgt>
  <wgt id="262">3.86997e-12</wgt>
  <wgt id="263">3.87208e-12</wgt>
  <wgt id="264">3.87443e-12</wgt>
  <wgt id="265">3.8697e-12</wgt>
  <wgt id="266">3.88023e-12</wgt>
  <wgt id="267">3.87427e-12</wgt>
  <wgt id="268">3.87181e-12</wgt>
  <wgt id="269">3.88315e-12</wgt>
  <wgt id="270">3.86637e-12</wgt>
  <wgt id="271">3.86656e-12</wgt>
  <wgt id="272">3.88047e-12</wgt>
  <wgt id="273">3.86264e-12</wgt>
  <wgt id="274">3.88131e-12</wgt>
  <wgt id="275">3.85971e-12</wgt>
  <wgt id="276">3.88717e-12</wgt>
  <wgt id="277">3.8529e-12</wgt>
  <wgt id="278">3.8919e-12</wgt>
  <wgt id="279">3.80822e-12</wgt>
  <wgt id="280">3.95454e-12</wgt>
  <wgt id="281">3.85882e-12</wgt>
  <wgt id="282">3.87313e-12</wgt>
  <wgt id="283">3.77641e-12</wgt>
  <wgt id="284">3.99174e-12</wgt>
  <wgt id="285">3.71006e-12</wgt>
  <wgt id="286">4.00678e-12</wgt>
  <wgt id="287">3.88406e-12</wgt>
  <wgt id="288">3.85919e-12</wgt>
  <wgt id="289">3.89704e-12</wgt>
  <wgt id="290">3.81679e-12</wgt>
  <wgt id="291">3.865e-12</wgt>
  <wgt id="292">3.87516e-12</wgt>
  <wgt id="293">3.84721e-12</wgt>
  <wgt id="294">3.89899e-12</wgt>
  <wgt id="295">3.80792e-12</wgt>
  <wgt id="296">3.95256e-12</wgt>
  <wgt id="297">3.87668e-12</wgt>
  <wgt id="298">3.88299e-12</wgt>
  <wgt id="299">3.86264e-12</wgt>
  <wgt id="300">3.9012e-12</wgt>
  <wgt id="301">3.84146e-12</wgt>
  <wgt id="302">3.9691e-12</wgt>
  <wgt id="303">3.85306e-12</wgt>
  <wgt id="304">3.88511e-12</wgt>
  <wgt id="305">3.89638e-12</wgt>
  <wgt id="306">3.90028e-12</wgt>
  <wgt id="307">3.89209e-12</wgt>
  <wgt id="308">3.89988e-12</wgt>
  <wgt id="309">3.894e-12</wgt>
  <wgt id="310">3.92287e-12</wgt>
  <wgt id="311">3.87174e-12</wgt>
  <wgt id="312">3.8979e-12</wgt>
  <wgt id="313">3.89509e-12</wgt>
  <wgt id="314">3.8952e-12</wgt>
  <wgt id="315">3.89736e-12</wgt>
  <wgt id="316">3.89309e-12</wgt>
  <wgt id="317">3.90351e-12</wgt>
  <wgt id="318">3.89863e-12</wgt>
  <wgt id="319">3.8925e-12</wgt>
  <wgt id="320">3.90664e-12</wgt>
  <wgt id="321">3.89059e-12</wgt>
  <wgt id="322">3.88768e-12</wgt>
  <wgt id="323">3.90653e-12</wgt>
  <wgt id="324">3.8877e-12</wgt>
  <wgt id="325">3.90396e-12</wgt>
  <wgt id="326">3.88545e-12</wgt>
  <wgt id="327">3.91044e-12</wgt>
  <wgt id="328">3.87733e-12</wgt>
  <wgt id="329">3.90753e-12</wgt>
  <wgt id="330">3.99909e-12</wgt>
  <wgt id="331">3.79785e-12</wgt>
  <wgt id="332">3.88465e-12</wgt>
  <wgt id="333">3.89592e-12</wgt>
  <wgt id="334">3.81981e-12</wgt>
  <wgt id="335">3.9909e-12</wgt>
  <wgt id="336">3.77726e-12</wgt>
  <wgt id="337">4.03979e-12</wgt>
  <wgt id="338">3.93472e-12</wgt>
  <wgt id="339">3.86054e-12</wgt>
  <wgt id="340">3.91904e-12</wgt>
  <wgt id="341">3.8368e-12</wgt>
  <wgt id="342">3.89101e-12</wgt>
  <wgt id="343">3.89311e-12</wgt>
  <wgt id="344">3.87238e-12</wgt>
  <wgt id="345">3.92415e-12</wgt>
  <wgt id="346">3.82827e-12</wgt>
  <wgt id="347">3.97443e-12</wgt>
  <wgt id="348">3.90212e-12</wgt>
  <wgt id="349">3.90327e-12</wgt>
  <wgt id="350">3.8828e-12</wgt>
  <wgt id="351">3.93083e-12</wgt>
  <wgt id="352">3.86096e-12</wgt>
  <wgt id="353">3.99869e-12</wgt>
  <wgt id="354">3.86561e-12</wgt>
  <wgt id="355">3.91603e-12</wgt>
  <wgt id="356">3.87328e-12</wgt>
  <wgt id="357">3.91546e-12</wgt>
  <wgt id="358">3.89638e-12</wgt>
  <wgt id="359">3.88984e-12</wgt>
  <wgt id="360">3.88697e-12</wgt>
  <wgt id="361">3.88246e-12</wgt>
  <wgt id="362">3.9406e-12</wgt>
  <wgt id="363">3.9325e-12</wgt>
  <wgt id="364">3.92177e-12</wgt>
  <wgt id="365">3.91027e-12</wgt>
  <wgt id="366">3.89709e-12</wgt>
  <wgt id="367">3.86951e-12</wgt>
  <wgt id="368">3.8543e-12</wgt>
  <wgt id="369">3.83816e-12</wgt>
  <wgt id="370">3.88246e-12</wgt>
  <wgt id="371">3.89925e-12</wgt>
  <wgt id="372">3.88991e-12</wgt>
  <wgt id="373">3.87627e-12</wgt>
  <wgt id="374">3.87393e-12</wgt>
  <wgt id="375">4.08539e-12</wgt>
  <wgt id="376">4.08586e-12</wgt>
  <wgt id="377">4.08496e-12</wgt>
  <wgt id="378">4.09984e-12</wgt>
  <wgt id="379">4.071e-12</wgt>
  <wgt id="380">4.09664e-12</wgt>
  <wgt id="381">4.08091e-12</wgt>
  <wgt id="382">4.10337e-12</wgt>
  <wgt id="383">4.06771e-12</wgt>
  <wgt id="384">4.0879e-12</wgt>
  <wgt id="385">4.08298e-12</wgt>
  <wgt id="386">4.0989e-12</wgt>
  <wgt id="387">4.07957e-12</wgt>
  <wgt id="388">4.08199e-12</wgt>
  <wgt id="389">4.08947e-12</wgt>
  <wgt id="390">4.09507e-12</wgt>
  <wgt id="391">4.07527e-12</wgt>
  <wgt id="392">4.06095e-12</wgt>
  <wgt id="393">4.09935e-12</wgt>
  <wgt id="394">4.09087e-12</wgt>
  <wgt id="395">4.0779e-12</wgt>
  <wgt id="396">4.08563e-12</wgt>
  <wgt id="397">4.08525e-12</wgt>
  <wgt id="398">4.07253e-12</wgt>
  <wgt id="399">4.0978e-12</wgt>
  <wgt id="400">4.08023e-12</wgt>
  <wgt id="401">4.0969e-12</wgt>
  <wgt id="402">4.05756e-12</wgt>
  <wgt id="403">4.09621e-12</wgt>
  <wgt id="404">4.1659e-12</wgt>
  <wgt id="405">3.89025e-12</wgt>
  <wgt id="406">4.02686e-12</wgt>
  <wgt id="407">4.21126e-12</wgt>
  <wgt id="408">4.11537e-12</wgt>
  <wgt id="409">4.02771e-12</wgt>
  <wgt id="410">3.98868e-12</wgt>
  <wgt id="411">4.12933e-12</wgt>
  <wgt id="412">4.07924e-12</wgt>
  <wgt id="413">4.09353e-12</wgt>
  <wgt id="414">4.0467e-12</wgt>
  <wgt id="415">4.11548e-12</wgt>
  <wgt id="416">4.17266e-12</wgt>
  <wgt id="417">3.96427e-12</wgt>
  <wgt id="418">4.09018e-12</wgt>
  <wgt id="419">4.05943e-12</wgt>
  <wgt id="420">4.12093e-12</wgt>
  <wgt id="421">4.06912e-12</wgt>
  <wgt id="422">4.08758e-12</wgt>
  <wgt id="423">4.08541e-12</wgt>
  <wgt id="424">4.14344e-12</wgt>
  <wgt id="425">4.05068e-12</wgt>
  <wgt id="426">4.08539e-12</wgt>
  <wgt id="427">4.06123e-12</wgt>
  <wgt id="428">4.16164e-12</wgt>
  <wgt id="429">4.11246e-12</wgt>
  <wgt id="430">4.21266e-12</wgt>
  <wgt id="431">4.19291e-12</wgt>
  <wgt id="432">4.17395e-12</wgt>
  <wgt id="433">4.15534e-12</wgt>
  <wgt id="434">4.13337e-12</wgt>
  <wgt id="435">4.08615e-12</wgt>
  <wgt id="436">4.06154e-12</wgt>
  <wgt id="437">4.03837e-12</wgt>
  <wgt id="438">4.11246e-12</wgt>
  <wgt id="439">4.12577e-12</wgt>
  <wgt id="440">4.11816e-12</wgt>
  <wgt id="441">4.10811e-12</wgt>
  <wgt id="442">4.10447e-12</wgt>
  <wgt id="443">4.03148e-12</wgt>
  <wgt id="444">4.04875e-12</wgt>
  <wgt id="445">4.02601e-12</wgt>
  <wgt id="446">4.00724e-12</wgt>
  <wgt id="447">4.02273e-12</wgt>
  <wgt id="448">3.94104e-12</wgt>
  <wgt id="449">4.08509e-12</wgt>
  <wgt id="450">4.02324e-12</wgt>
  <wgt id="451">4.02627e-12</wgt>
  <wgt id="452">4.10472e-12</wgt>
  <wgt id="453">4.05747e-12</wgt>
  <wgt id="454">3.88485e-12</wgt>
  <wgt id="455">4.03908e-12</wgt>
  <wgt id="456">3.9819e-12</wgt>
  <wgt id="457">4.04233e-12</wgt>
  <wgt id="458">4.07493e-12</wgt>
  <wgt id="459">4.05634e-12</wgt>
  <wgt id="460">4.05865e-12</wgt>
  <wgt id="461">3.97344e-12</wgt>
  <wgt id="462">4.01022e-12</wgt>
  <wgt id="463">3.9941e-12</wgt>
  <wgt id="464">4.01651e-12</wgt>
  <wgt id="465">4.0627e-12</wgt>
  <wgt id="466">3.99399e-12</wgt>
  <wgt id="467">4.00266e-12</wgt>
  <wgt id="468">4.02352e-12</wgt>
  <wgt id="469">4.02609e-12</wgt>
  <wgt id="470">3.99921e-12</wgt>
  <wgt id="471">4.00477e-12</wgt>
  <wgt id="472">4.04486e-12</wgt>
  <wgt id="473">3.9403e-12</wgt>
  <wgt id="474">3.0282e-12</wgt>
  <wgt id="475">3.17508e-12</wgt>
  <wgt id="476">2.97584e-12</wgt>
  <wgt id="477">2.96213e-12</wgt>
  <wgt id="478">3.05241e-12</wgt>
  <wgt id="479">3.00169e-12</wgt>
  <wgt id="480">3.11971e-12</wgt>
  <wgt id="481">2.96614e-12</wgt>
  <wgt id="482">2.93454e-12</wgt>
  <wgt id="483">2.95519e-12</wgt>
  <wgt id="484">3.19759e-12</wgt>
  <wgt id="485">3.01858e-12</wgt>
  <wgt id="486">3.09521e-12</wgt>
  <wgt id="487">3.04125e-12</wgt>
  <wgt id="488">3.07253e-12</wgt>
  <wgt id="489">2.90344e-12</wgt>
  <wgt id="490">2.95062e-12</wgt>
  <wgt id="491">3.0122e-12</wgt>
  <wgt id="492">2.95652e-12</wgt>
  <wgt id="493">2.9301e-12</wgt>
  <wgt id="494">2.94305e-12</wgt>
  <wgt id="495">3.04192e-12</wgt>
  <wgt id="496">2.93011e-12</wgt>
  <wgt id="497">2.92936e-12</wgt>
  <wgt id="498">3.0768e-12</wgt>
  <wgt id="499">2.96879e-12</wgt>
  <wgt id="500">2.96794e-12</wgt>
  <wgt id="501">3.13329e-12</wgt>
  <wgt id="502">2.96651e-12</wgt>
  <wgt id="503">3.0272e-12</wgt>
  <wgt id="504">3.0373e-12</wgt>
  <wgt id="505">2.98999e-12</wgt>
  <wgt id="506">3.05075e-12</wgt>
  <wgt id="507">3.00795e-12</wgt>
  <wgt id="508">3.10095e-12</wgt>
  <wgt id="509">2.94331e-12</wgt>
  <wgt id="510">3.07469e-12</wgt>
  <wgt id="511">2.94656e-12</wgt>
  <wgt id="512">3.07067e-12</wgt>
  <wgt id="513">3.09325e-12</wgt>
  <wgt id="514">3.02385e-12</wgt>
  <wgt id="515">3.00453e-12</wgt>
  <wgt id="516">3.12933e-12</wgt>
  <wgt id="517">3.09959e-12</wgt>
  <wgt id="518">3.1153e-12</wgt>
  <wgt id="519">2.97221e-12</wgt>
  <wgt id="520">3.05291e-12</wgt>
  <wgt id="521">3.12922e-12</wgt>
  <wgt id="522">3.14517e-12</wgt>
  <wgt id="523">3.04323e-12</wgt>
  <wgt id="524">3.04781e-12</wgt>
  <wgt id="525">3.09114e-12</wgt>
  <wgt id="526">3.02626e-12</wgt>
  <wgt id="527">3.07633e-12</wgt>
  <wgt id="528">3.02166e-12</wgt>
  <wgt id="529">3.01021e-12</wgt>
  <wgt id="530">3.05823e-12</wgt>
  <wgt id="531">2.98335e-12</wgt>
  <wgt id="532">3.18005e-12</wgt>
  <wgt id="533">2.87381e-12</wgt>
  <wgt id="534">3.02114e-12</wgt>
  <wgt id="535">3.05343e-12</wgt>
  <wgt id="536">3.02123e-12</wgt>
  <wgt id="537">3.03766e-12</wgt>
  <wgt id="538">3.08544e-12</wgt>
  <wgt id="539">2.96621e-12</wgt>
  <wgt id="540">3.01419e-12</wgt>
  <wgt id="541">2.97709e-12</wgt>
  <wgt id="542">2.97035e-12</wgt>
  <wgt id="543">3.02992e-12</wgt>
  <wgt id="544">3.16636e-12</wgt>
  <wgt id="545">2.98071e-12</wgt>
  <wgt id="546">2.97283e-12</wgt>
  <wgt id="547">2.95684e-12</wgt>
  <wgt id="548">2.90839e-12</wgt>
  <wgt id="549">2.99116e-12</wgt>
  <wgt id="550">3.0222e-12</wgt>
  <wgt id="551">3.074e-12</wgt>
  <wgt id="552">2.97148e-12</wgt>
  <wgt id="553">3.01609e-12</wgt>
  <wgt id="554">3.24319e-12</wgt>
  <wgt id="555">3.11738e-12</wgt>
  <wgt id="556">2.95062e-12</wgt>
  <wgt id="557">3.08427e-12</wgt>
  <wgt id="558">2.94652e-12</wgt>
  <wgt id="559">2.97628e-12</wgt>
  <wgt id="560">3.2707e-12</wgt>
  <wgt id="561">2.96671e-12</wgt>
  <wgt id="562">3.08548e-12</wgt>
  <wgt id="563">2.98787e-12</wgt>
  <wgt id="564">3.06302e-12</wgt>
  <wgt id="565">2.95879e-12</wgt>
  <wgt id="566">3.05767e-12</wgt>
  <wgt id="567">2.99197e-12</wgt>
  <wgt id="568">3.03869e-12</wgt>
  <wgt id="569">3.0596e-12</wgt>
  <wgt id="570">2.95606e-12</wgt>
  <wgt id="571">3.33037e-12</wgt>
  <wgt id="572">2.98283e-12</wgt>
  <wgt id="573">2.91312e-12</wgt>
  <wgt id="574">2.93749e-12</wgt>
  <wgt id="575">3.29776e-12</wgt>
  <wgt id="576">3.26941e-12</wgt>
  <wgt id="577">3.42844e-12</wgt>
  <wgt id="578">3.36724e-12</wgt>
  <wgt id="579">3.33909e-12</wgt>
  <wgt id="580">3.36489e-12</wgt>
  <wgt id="581">3.50311e-12</wgt>
  <wgt id="582">3.26903e-12</wgt>
  <wgt id="583">3.31961e-12</wgt>
  <wgt id="584">3.29099e-12</wgt>
  <wgt id="585">3.28605e-12</wgt>
  <wgt id="586">3.21364e-12</wgt>
  <wgt id="587">3.33559e-12</wgt>
  <wgt id="588">3.28335e-12</wgt>
  <wgt id="589">3.3423e-12</wgt>
  <wgt id="590">3.32046e-12</wgt>
  <wgt id="591">3.43113e-12</wgt>
  <wgt id="592">3.20231e-12</wgt>
  <wgt id="593">3.27622e-12</wgt>
  <wgt id="594">3.4396e-12</wgt>
  <wgt id="595">3.28687e-12</wgt>
  <wgt id="596">3.37396e-12</wgt>
  <wgt id="597">3.196e-12</wgt>
  <wgt id="598">3.25699e-12</wgt>
  <wgt id="599">3.42463e-12</wgt>
  <wgt id="600">3.28663e-12</wgt>
  <wgt id="601">3.20766e-12</wgt>
  <wgt id="602">3.22757e-12</wgt>
  <wgt id="603">3.25269e-12</wgt>
  <wgt id="604">3.34072e-12</wgt>
  <wgt id="605">3.42686e-12</wgt>
  <wgt id="606">3.24987e-12</wgt>
  <wgt id="607">3.27036e-12</wgt>
  <wgt id="608">3.296e-12</wgt>
  <wgt id="609">3.12977e-12</wgt>
  <wgt id="610">3.17707e-12</wgt>
  <wgt id="611">3.33588e-12</wgt>
  <wgt id="612">3.53628e-12</wgt>
  <wgt id="613">3.3083e-12</wgt>
  <wgt id="614">3.31683e-12</wgt>
  <wgt id="615">3.25051e-12</wgt>
  <wgt id="616">3.50254e-12</wgt>
  <wgt id="617">3.36033e-12</wgt>
  <wgt id="618">3.37422e-12</wgt>
  <wgt id="619">3.29202e-12</wgt>
  <wgt id="620">3.37932e-12</wgt>
  <wgt id="621">3.32528e-12</wgt>
  <wgt id="622">3.33559e-12</wgt>
  <wgt id="623">3.37615e-12</wgt>
  <wgt id="624">3.27534e-12</wgt>
  <wgt id="625">3.25519e-12</wgt>
  <wgt id="626">3.21255e-12</wgt>
  <wgt id="627">3.18726e-12</wgt>
  <wgt id="628">3.36809e-12</wgt>
  <wgt id="629">3.2534e-12</wgt>
  <wgt id="630">3.20191e-12</wgt>
  <wgt id="631">3.29665e-12</wgt>
  <wgt id="632">3.20232e-12</wgt>
  <wgt id="633">3.26866e-12</wgt>
  <wgt id="634">3.30146e-12</wgt>
  <wgt id="635">3.25517e-12</wgt>
  <wgt id="636">3.3321e-12</wgt>
  <wgt id="637">3.31469e-12</wgt>
  <wgt id="638">3.20546e-12</wgt>
  <wgt id="639">3.27059e-12</wgt>
  <wgt id="640">3.31151e-12</wgt>
  <wgt id="641">3.32175e-12</wgt>
  <wgt id="642">3.15841e-12</wgt>
  <wgt id="643">3.29144e-12</wgt>
  <wgt id="644">3.15755e-12</wgt>
  <wgt id="645">3.30899e-12</wgt>
  <wgt id="646">3.33143e-12</wgt>
  <wgt id="647">3.24785e-12</wgt>
  <wgt id="648">3.32658e-12</wgt>
  <wgt id="649">3.33338e-12</wgt>
  <wgt id="650">3.23454e-12</wgt>
  <wgt id="651">3.36774e-12</wgt>
  <wgt id="652">3.29215e-12</wgt>
  <wgt id="653">3.21259e-12</wgt>
  <wgt id="654">3.25926e-12</wgt>
  <wgt id="655">3.24039e-12</wgt>
  <wgt id="656">3.27366e-12</wgt>
  <wgt id="657">3.40812e-12</wgt>
  <wgt id="658">3.3322e-12</wgt>
  <wgt id="659">3.17423e-12</wgt>
  <wgt id="660">3.35069e-12</wgt>
  <wgt id="661">3.26328e-12</wgt>
  <wgt id="662">3.28364e-12</wgt>
  <wgt id="663">3.29566e-12</wgt>
  <wgt id="664">3.25951e-12</wgt>
  <wgt id="665">3.29552e-12</wgt>
  <wgt id="666">3.2937e-12</wgt>
  <wgt id="667">3.40938e-12</wgt>
  <wgt id="668">3.28361e-12</wgt>
  <wgt id="669">3.37882e-12</wgt>
  <wgt id="670">3.34231e-12</wgt>
  <wgt id="671">3.25257e-12</wgt>
  <wgt id="672">3.16982e-12</wgt>
  <wgt id="673">3.29849e-12</wgt>
  <wgt id="674">3.22516e-12</wgt>
  <wgt id="675">3.2398e-12</wgt>
  <wgt id="676">4.07256e-12</wgt>
  <wgt id="677">4.13567e-12</wgt>
  <wgt id="678">4.25202e-12</wgt>
  <wgt id="679">3.92312e-12</wgt>
  <wgt id="680">3.9431e-12</wgt>
  <wgt id="681">4.17877e-12</wgt>
  <wgt id="682">4.12685e-12</wgt>
  <wgt id="683">4.03462e-12</wgt>
  <wgt id="684">4.224e-12</wgt>
  <wgt id="685">3.9118e-12</wgt>
  <wgt id="686">4.07637e-12</wgt>
  <wgt id="687">4.20107e-12</wgt>
  <wgt id="688">4.04019e-12</wgt>
  <wgt id="689">4.26005e-12</wgt>
  <wgt id="690">4.27039e-12</wgt>
  <wgt id="691">4.26464e-12</wgt>
  <wgt id="692">4.0705e-12</wgt>
  <wgt id="693">4.64107e-12</wgt>
  <wgt id="694">4.29553e-12</wgt>
  <wgt id="695">3.95209e-12</wgt>
  <wgt id="696">3.95017e-12</wgt>
  <wgt id="697">3.94513e-12</wgt>
  <wgt id="698">3.83321e-12</wgt>
  <wgt id="699">3.77537e-12</wgt>
  <wgt id="700">3.68094e-12</wgt>
  <wgt id="701">4.06796e-12</wgt>
  <wgt id="702">3.94853e-12</wgt>
  <wgt id="703">4.55657e-12</wgt>
  <wgt id="704">4.36583e-12</wgt>
  <wgt id="705">4.25563e-12</wgt>
  <wgt id="706">3.86827e-12</wgt>
  <wgt id="707">3.92751e-12</wgt>
  <wgt id="708">4.01269e-12</wgt>
  <wgt id="709">3.99757e-12</wgt>
  <wgt id="710">3.73524e-12</wgt>
  <wgt id="711">4.06618e-12</wgt>
  <wgt id="712">4.00419e-12</wgt>
  <wgt id="713">4.31947e-12</wgt>
  <wgt id="714">4.03668e-12</wgt>
  <wgt id="715">4.03369e-12</wgt>
  <wgt id="716">3.93254e-12</wgt>
  <wgt id="717">3.91395e-12</wgt>
  <wgt id="718">4.03391e-12</wgt>
  <wgt id="719">3.75719e-12</wgt>
  <wgt id="720">3.9109e-12</wgt>
  <wgt id="721">3.87116e-12</wgt>
  <wgt id="722">3.72162e-12</wgt>
  <wgt id="723">4.27764e-12</wgt>
  <wgt id="724">4.22019e-12</wgt>
  <wgt id="725">4.27433e-12</wgt>
  <wgt id="726">4.09998e-12</wgt>
  <wgt id="727">3.99112e-12</wgt>
  <wgt id="728">4.03113e-12</wgt>
  <wgt id="729">3.8197e-12</wgt>
  <wgt id="730">4.25293e-12</wgt>
  <wgt id="731">4.02137e-12</wgt>
  <wgt id="732">4.41215e-12</wgt>
  <wgt id="733">4.03322e-12</wgt>
  <wgt id="734">4.14842e-12</wgt>
  <wgt id="735">4.09734e-12</wgt>
  <wgt id="736">4.01402e-12</wgt>
  <wgt id="737">4.12299e-12</wgt>
  <wgt id="738">3.9599e-12</wgt>
  <wgt id="739">4.062e-12</wgt>
  <wgt id="740">4.46398e-12</wgt>
  <wgt id="741">3.66938e-12</wgt>
  <wgt id="742">4.0233e-12</wgt>
  <wgt id="743">3.96926e-12</wgt>
  <wgt id="744">3.98897e-12</wgt>
  <wgt id="745">4.18791e-12</wgt>
  <wgt id="746">4.23519e-12</wgt>
  <wgt id="747">3.77084e-12</wgt>
  <wgt id="748">4.01949e-12</wgt>
  <wgt id="749">4.26642e-12</wgt>
  <wgt id="750">4.13093e-12</wgt>
  <wgt id="751">4.1866e-12</wgt>
  <wgt id="752">3.79331e-12</wgt>
  <wgt id="753">3.88047e-12</wgt>
  <wgt id="754">4.15932e-12</wgt>
  <wgt id="755">4.08816e-12</wgt>
  <wgt id="756">4.06795e-12</wgt>
  <wgt id="757">3.80876e-12</wgt>
  <wgt id="758">4.09637e-12</wgt>
  <wgt id="759">4.14143e-12</wgt>
  <wgt id="760">4.12718e-12</wgt>
  <wgt id="761">4.27586e-12</wgt>
  <wgt id="762">4.26332e-12</wgt>
  <wgt id="763">4.08526e-12</wgt>
  <wgt id="764">4.19529e-12</wgt>
  <wgt id="765">4.1031e-12</wgt>
  <wgt id="766">4.05421e-12</wgt>
  <wgt id="767">4.13928e-12</wgt>
  <wgt id="768">3.88293e-12</wgt>
  <wgt id="769">4.28121e-12</wgt>
  <wgt id="770">4.024e-12</wgt>
  <wgt id="771">4.68081e-12</wgt>
  <wgt id="772">3.85941e-12</wgt>
  <wgt id="773">4.05837e-12</wgt>
  <wgt id="774">3.69489e-12</wgt>
  <wgt id="775">4.22419e-12</wgt>
  <wgt id="776">4.36608e-12</wgt>
  <wgt id="777">3.96197e-12</wgt>
  <wgt id="778">3.08806e-12</wgt>
  <wgt id="779">2.64186e-12</wgt>
  <wgt id="780">2.27423e-12</wgt>
  <wgt id="781">3.17792e-12</wgt>
  <wgt id="782">3.26336e-12</wgt>
  <wgt id="783">2.69382e-12</wgt>
  <wgt id="784">2.76549e-12</wgt>
  <wgt id="785">3.66955e-12</wgt>
  <wgt id="786">2.46962e-12</wgt>
  <wgt id="787">3.41279e-12</wgt>
  <wgt id="788">2.11319e-12</wgt>
  <wgt id="789">2.64321e-12</wgt>
  <wgt id="790">2.4517e-12</wgt>
  <wgt id="791">2.93038e-12</wgt>
  <wgt id="792">4.01705e-12</wgt>
  <wgt id="793">3.02077e-12</wgt>
  <wgt id="794">2.4878e-12</wgt>
  <wgt id="795">3.46264e-12</wgt>
  <wgt id="796">3.92878e-12</wgt>
  <wgt id="797">3.4896e-12</wgt>
  <wgt id="798">2.86847e-12</wgt>
  <wgt id="799">3.4174e-12</wgt>
  <wgt id="800">2.6177e-12</wgt>
  <wgt id="801">2.92335e-12</wgt>
  <wgt id="802">2.51558e-12</wgt>
  <wgt id="803">3.99012e-12</wgt>
  <wgt id="804">3.45621e-12</wgt>
  <wgt id="805">3.48648e-12</wgt>
  <wgt id="806">3.45205e-12</wgt>
  <wgt id="807">2.98537e-12</wgt>
  <wgt id="808">3.00447e-12</wgt>
  <wgt id="809">2.89569e-12</wgt>
  <wgt id="810">3.46942e-12</wgt>
  <wgt id="811">3.30353e-12</wgt>
  <wgt id="812">2.48755e-12</wgt>
  <wgt id="813">2.48355e-12</wgt>
  <wgt id="814">2.58359e-12</wgt>
  <wgt id="815">2.65307e-12</wgt>
  <wgt id="816">2.42745e-12</wgt>
  <wgt id="817">3.2226e-12</wgt>
  <wgt id="818">3.03406e-12</wgt>
  <wgt id="819">2.66531e-12</wgt>
  <wgt id="820">3.08879e-12</wgt>
  <wgt id="821">3.41958e-12</wgt>
  <wgt id="822">2.70344e-12</wgt>
  <wgt id="823">3.4463e-12</wgt>
  <wgt id="824">3.99871e-12</wgt>
  <wgt id="825">2.40903e-12</wgt>
  <wgt id="826">3.18899e-12</wgt>
  <wgt id="827">2.0751e-12</wgt>
  <wgt id="828">3.92264e-12</wgt>
  <wgt id="829">3.14906e-12</wgt>
  <wgt id="830">2.3054e-12</wgt>
  <wgt id="831">3.26531e-12</wgt>
  <wgt id="832">4.81276e-12</wgt>
  <wgt id="833">2.93456e-12</wgt>
  <wgt id="834">4.5615e-12</wgt>
  <wgt id="835">2.59842e-12</wgt>
  <wgt id="836">3.0585e-12</wgt>
  <wgt id="837">3.38655e-12</wgt>
  <wgt id="838">2.92305e-12</wgt>
  <wgt id="839">3.25628e-12</wgt>
  <wgt id="840">2.94693e-12</wgt>
  <wgt id="841">3.62901e-12</wgt>
  <wgt id="842">2.88752e-12</wgt>
  <wgt id="843">3.01875e-12</wgt>
  <wgt id="844">3.16734e-12</wgt>
  <wgt id="845">4.19806e-12</wgt>
  <wgt id="846">2.96854e-12</wgt>
  <wgt id="847">3.07183e-12</wgt>
  <wgt id="848">2.76058e-12</wgt>
  <wgt id="849">3.14588e-12</wgt>
  <wgt id="850">3.82459e-12</wgt>
  <wgt id="851">3.33717e-12</wgt>
  <wgt id="852">2.67538e-12</wgt>
  <wgt id="853">3.32261e-12</wgt>
  <wgt id="854">3.65137e-12</wgt>
  <wgt id="855">3.4097e-12</wgt>
  <wgt id="856">2.34946e-12</wgt>
  <wgt id="857">3.10143e-12</wgt>
  <wgt id="858">3.00881e-12</wgt>
  <wgt id="859">2.91857e-12</wgt>
  <wgt id="860">3.23581e-12</wgt>
  <wgt id="861">2.82036e-12</wgt>
  <wgt id="862">3.10597e-12</wgt>
  <wgt id="863">3.20559e-12</wgt>
  <wgt id="864">3.21437e-12</wgt>
  <wgt id="865">4.14382e-12</wgt>
  <wgt id="866">4.56138e-12</wgt>
  <wgt id="867">3.07721e-12</wgt>
  <wgt id="868">2.99546e-12</wgt>
  <wgt id="869">2.50094e-12</wgt>
  <wgt id="870">2.62645e-12</wgt>
  <wgt id="871">2.56314e-12</wgt>
  <wgt id="872">3.53643e-12</wgt>
  <wgt id="873">2.65085e-12</wgt>
  <wgt id="874">3.19598e-12</wgt>
  <wgt id="875">2.72334e-12</wgt>
  <wgt id="876">3.5188e-12</wgt>
  <wgt id="877">3.39545e-12</wgt>
  <wgt id="878">2.74513e-12</wgt>
  <wgt id="879">4.07256e-12</wgt>
  <wgt id="880">4.13567e-12</wgt>
  <wgt id="881">4.25202e-12</wgt>
  <wgt id="882">3.92312e-12</wgt>
  <wgt id="883">3.9431e-12</wgt>
  <wgt id="884">4.17877e-12</wgt>
  <wgt id="885">4.12685e-12</wgt>
  <wgt id="886">4.03462e-12</wgt>
  <wgt id="887">4.224e-12</wgt>
  <wgt id="888">3.9118e-12</wgt>
  <wgt id="889">4.07637e-12</wgt>
  <wgt id="890">4.20107e-12</wgt>
  <wgt id="891">4.04019e-12</wgt>
  <wgt id="892">4.26005e-12</wgt>
  <wgt id="893">4.27039e-12</wgt>
  <wgt id="894">4.26464e-12</wgt>
  <wgt id="895">4.0705e-12</wgt>
  <wgt id="896">4.64107e-12</wgt>
  <wgt id="897">4.29553e-12</wgt>
  <wgt id="898">3.95209e-12</wgt>
  <wgt id="899">3.95017e-12</wgt>
  <wgt id="900">3.94513e-12</wgt>
  <wgt id="901">3.83321e-12</wgt>
  <wgt id="902">3.77537e-12</wgt>
  <wgt id="903">3.68094e-12</wgt>
  <wgt id="904">4.06796e-12</wgt>
  <wgt id="905">3.94853e-12</wgt>
  <wgt id="906">4.55657e-12</wgt>
  <wgt id="907">4.36583e-12</wgt>
  <wgt id="908">4.25563e-12</wgt>
  <wgt id="909">3.86827e-12</wgt>
  <wgt id="910">3.92751e-12</wgt>
  <wgt id="911">4.01269e-12</wgt>
  <wgt id="912">3.99757e-12</wgt>
  <wgt id="913">3.73524e-12</wgt>
  <wgt id="914">4.06618e-12</wgt>
  <wgt id="915">4.00419e-12</wgt>
  <wgt id="916">4.31947e-12</wgt>
  <wgt id="917">4.03668e-12</wgt>
  <wgt id="918">4.03369e-12</wgt>
  <wgt id="919">3.93254e-12</wgt>
  <wgt id="920">3.91395e-12</wgt>
  <wgt id="921">4.03391e-12</wgt>
  <wgt id="922">3.75719e-12</wgt>
  <wgt id="923">3.9109e-12</wgt>
  <wgt id="924">3.87116e-12</wgt>
  <wgt id="925">3.72162e-12</wgt>
  <wgt id="926">4.27764e-12</wgt>
  <wgt id="927">4.22019e-12</wgt>
  <wgt id="928">4.27433e-12</wgt>
  <wgt id="929">4.09998e-12</wgt>
  <wgt id="930">3.99112e-12</wgt>
  <wgt id="931">4.03113e-12</wgt>
  <wgt id="932">3.8197e-12</wgt>
  <wgt id="933">4.25293e-12</wgt>
  <wgt id="934">4.02137e-12</wgt>
  <wgt id="935">4.41215e-12</wgt>
  <wgt id="936">4.03322e-12</wgt>
  <wgt id="937">4.14842e-12</wgt>
  <wgt id="938">4.09734e-12</wgt>
  <wgt id="939">4.01402e-12</wgt>
  <wgt id="940">4.12299e-12</wgt>
  <wgt id="941">3.9599e-12</wgt>
  <wgt id="942">4.062e-12</wgt>
  <wgt id="943">4.46398e-12</wgt>
  <wgt id="944">3.66938e-12</wgt>
  <wgt id="945">4.0233e-12</wgt>
  <wgt id="946">3.96926e-12</wgt>
  <wgt id="947">3.98897e-12</wgt>
  <wgt id="948">4.18791e-12</wgt>
  <wgt id="949">4.23519e-12</wgt>
  <wgt id="950">3.77084e-12</wgt>
  <wgt id="951">4.01949e-12</wgt>
  <wgt id="952">4.26642e-12</wgt>
  <wgt id="953">4.13093e-12</wgt>
  <wgt id="954">4.1866e-12</wgt>
  <wgt id="955">3.79331e-12</wgt>
  <wgt id="956">3.88047e-12</wgt>
  <wgt id="957">4.15932e-12</wgt>
  <wgt id="958">4.08816e-12</wgt>
  <wgt id="959">4.06795e-12</wgt>
  <wgt id="960">3.80876e-12</wgt>
  <wgt id="961">4.09637e-12</wgt>
  <wgt id="962">4.14143e-12</wgt>
  <wgt id="963">4.12718e-12</wgt>
  <wgt id="964">4.27586e-12</wgt>
  <wgt id="965">4.26332e-12</wgt>
  <wgt id="966">4.08526e-12</wgt>
  <wgt id="967">4.19529e-12</wgt>
  <wgt id="968">4.1031e-12</wgt>
  <wgt id="969">4.05421e-12</wgt>
  <wgt id="970">4.13928e-12</wgt>
  <wgt id="971">3.88293e-12</wgt>
  <wgt id="972">4.28121e-12</wgt>
  <wgt id="973">4.024e-12</wgt>
  <wgt id="974">4.68081e-12</wgt>
  <wgt id="975">3.85941e-12</wgt>
  <wgt id="976">4.05837e-12</wgt>
  <wgt id="977">3.69489e-12</wgt>
  <wgt id="978">4.22419e-12</wgt>
  <wgt id="979">4.36608e-12</wgt>
  <wgt id="980">4.07853e-12</wgt>
  <wgt id="981">4.07882e-12</wgt>
  <wgt id="982">3.95663e-12</wgt>
</rwgt>
</event>
<event>
 5   1  0.3028200E-11  0.2365210E+04  0.7818608E-02  0.7689356E-01
       21   -1    0    0  502  501  0.00000000000E+00  0.00000000000E+00  0.84055416319E+03  0.84055416319E+03  0.00000000000E+00 0. -1.
       21   -1    0    0  501  502 -0.00000000000E+00 -0.00000000000E+00 -0.16638488563E+04  0.16638488563E+04  0.00000000000E+00 0.  1.
       39    2    1    2    0    0  0.00000000000E+00  0.00000000000E+00 -0.82329469310E+03  0.25044030195E+04  0.23652104203E+04 0.  0.
       25    1    3    3    0    0  0.10499013971E+04 -0.24051682852E+03  0.88135224477E+02  0.10879035372E+04  0.12500000000E+03 0.  0.
       25    1    3    3    0    0 -0.10499013971E+04  0.24051682852E+03 -0.91142991758E+03  0.14164994822E+04  0.12500000000E+03 0.  0.
<mgrwt>
<rscale>  0 0.23652104E+04</rscale>
<asrwt>0</asrwt>
<pdfrwt beam="1">  1       21 0.12931603E+00 0.23652104E+04</pdfrwt>
<pdfrwt beam="2">  1       21 0.25597674E+00 0.23652104E+04</pdfrwt>
<totfact> 0.95338345E+00</totfact>
</mgrwt>
<rwgt>
  <wgt id="1">3.0282e-12</wgt>
  <wgt id="2">2.62879e-12</wgt>
  <wgt id="3">3.52531e-12</wgt>
  <wgt id="4">3.0282e-12</wgt>
  <wgt id="5">2.62879e-12</wgt>
  <wgt id="6">3.52531e-12</wgt>
  <wgt id="7">3.0282e-12</wgt>
  <wgt id="8">2.62879e-12</wgt>
  <wgt id="9">3.52531e-12</wgt>
  <wgt id="10">3.15567e-12</wgt>
  <wgt id="11">3.1535e-12</wgt>
  <wgt id="12">3.15003e-12</wgt>
  <wgt id="13">3.14601e-12</wgt>
  <wgt id="14">3.16719e-12</wgt>
  <wgt id="15">3.16098e-12</wgt>
  <wgt id="16">3.15047e-12</wgt>
  <wgt id="17">3.16521e-12</wgt>
  <wgt id="18">3.14992e-12</wgt>
  <wgt id="19">3.1638e-12</wgt>
  <wgt id="20">3.14879e-12</wgt>
  <wgt id="21">3.13329e-12</wgt>
  <wgt id="22">3.13906e-12</wgt>
  <wgt id="23">3.12039e-12</wgt>
  <wgt id="24">3.1378e-12</wgt>
  <wgt id="25">3.14627e-12</wgt>
  <wgt id="26">3.16654e-12</wgt>
  <wgt id="27">3.15355e-12</wgt>
  <wgt id="28">3.13935e-12</wgt>
  <wgt id="29">3.15781e-12</wgt>
  <wgt id="30">3.14086e-12</wgt>
  <wgt id="31">3.16772e-12</wgt>
  <wgt id="32">3.14537e-12</wgt>
  <wgt id="33">3.16241e-12</wgt>
  <wgt id="34">3.14143e-12</wgt>
  <wgt id="35">3.14821e-12</wgt>
  <wgt id="36">3.16769e-12</wgt>
  <wgt id="37">3.1469e-12</wgt>
  <wgt id="38">3.14543e-12</wgt>
  <wgt id="39">3.19634e-12</wgt>
  <wgt id="40">3.15947e-12</wgt>
  <wgt id="41">3.15401e-12</wgt>
  <wgt id="42">3.16099e-12</wgt>
  <wgt id="43">3.15528e-12</wgt>
  <wgt id="44">3.15426e-12</wgt>
  <wgt id="45">3.16228e-12</wgt>
  <wgt id="46">3.15487e-12</wgt>
  <wgt id="47">3.15709e-12</wgt>
  <wgt id="48">3.15879e-12</wgt>
  <wgt id="49">3.14952e-12</wgt>
  <wgt id="50">3.15649e-12</wgt>
  <wgt id="51">3.15707e-12</wgt>
  <wgt id="52">3.15996e-12</wgt>
  <wgt id="53">3.14591e-12</wgt>
  <wgt id="54">3.15543e-12</wgt>
  <wgt id="55">3.15564e-12</wgt>
  <wgt id="56">3.16475e-12</wgt>
  <wgt id="57">3.15922e-12</wgt>
  <wgt id="58">3.14231e-12</wgt>
  <wgt id="59">3.14899e-12</wgt>
  <wgt id="60">3.15376e-12</wgt>
  <wgt id="61">3.13832e-12</wgt>
  <wgt id="62">3.14674e-12</wgt>
  <wgt id="63">3.1526e-12</wgt>
  <wgt id="64">3.15635e-12</wgt>
  <wgt id="65">3.15808e-12</wgt>
  <wgt id="66">3.15225e-12</wgt>
  <wgt id="67">3.14185e-12</wgt>
  <wgt id="68">3.15424e-12</wgt>
  <wgt id="69">3.15537e-12</wgt>
  <wgt id="70">3.15531e-12</wgt>
  <wgt id="71">3.15325e-12</wgt>
  <wgt id="72">3.14546e-12</wgt>
  <wgt id="73">3.16173e-12</wgt>
  <wgt id="74">3.15817e-12</wgt>
  <wgt id="75">3.15345e-12</wgt>
  <wgt id="76">3.16596e-12</wgt>
  <wgt id="77">3.15355e-12</wgt>
  <wgt id="78">3.15403e-12</wgt>
  <wgt id="79">3.16429e-12</wgt>
  <wgt id="80">3.14041e-12</wgt>
  <wgt id="81">3.15472e-12</wgt>
  <wgt id="82">3.15619e-12</wgt>
  <wgt id="83">3.14247e-12</wgt>
  <wgt id="84">3.15132e-12</wgt>
  <wgt id="85">3.14747e-12</wgt>
  <wgt id="86">3.16581e-12</wgt>
  <wgt id="87">3.13652e-12</wgt>
  <wgt id="88">3.15943e-12</wgt>
  <wgt id="89">3.15819e-12</wgt>
  <wgt id="90">3.16433e-12</wgt>
  <wgt id="91">3.15921e-12</wgt>
  <wgt id="92">3.16241e-12</wgt>
  <wgt id="93">3.15885e-12</wgt>
  <wgt id="94">3.15219e-12</wgt>
  <wgt id="95">3.16335e-12</wgt>
  <wgt id="96">3.15908e-12</wgt>
  <wgt id="97">3.14789e-12</wgt>
  <wgt id="98">3.15698e-12</wgt>
  <wgt id="99">3.14852e-12</wgt>
  <wgt id="100">3.16121e-12</wgt>
  <wgt id="101">3.15687e-12</wgt>
  <wgt id="102">3.15372e-12</wgt>
  <wgt id="103">3.16138e-12</wgt>
  <wgt id="104">3.15355e-12</wgt>
  <wgt id="105">3.16092e-12</wgt>
  <wgt id="106">3.14998e-12</wgt>
  <wgt id="107">3.16725e-12</wgt>
  <wgt id="108">3.15118e-12</wgt>
  <wgt id="109">3.15747e-12</wgt>
  <wgt id="110">3.15536e-12</wgt>
  <wgt id="111">3.17955e-12</wgt>
  <wgt id="112">3.1689e-12</wgt>
  <wgt id="113">4.35132e-12</wgt>
  <wgt id="114">4.35729e-12</wgt>
  <wgt id="115">4.28933e-12</wgt>
  <wgt id="116">6.01708e-12</wgt>
  <wgt id="117">3.51538e-12</wgt>
  <wgt id="118">3.52811e-12</wgt>
  <wgt id="119">3.5081e-12</wgt>
  <wgt id="120">3.51567e-12</wgt>
  <wgt id="121">3.51519e-12</wgt>
  <wgt id="122">3.50938e-12</wgt>
  <wgt id="123">3.52363e-12</wgt>
  <wgt id="124">3.51049e-12</wgt>
  <wgt id="125">3.51849e-12</wgt>
  <wgt id="126">3.52152e-12</wgt>
  <wgt id="127">3.51126e-12</wgt>
  <wgt id="128">3.52629e-12</wgt>
  <wgt id="129">3.50452e-12</wgt>
  <wgt id="130">3.53504e-12</wgt>
  <wgt id="131">3.49514e-12</wgt>
  <wgt id="132">3.42163e-12</wgt>
  <wgt id="133">3.62667e-12</wgt>
  <wgt id="134">3.47709e-12</wgt>
  <wgt id="135">3.54533e-12</wgt>
  <wgt id="136">3.56351e-12</wgt>
  <wgt id="137">3.45731e-12</wgt>
  <wgt id="138">3.65988e-12</wgt>
  <wgt id="139">3.37663e-12</wgt>
  <wgt id="140">3.49401e-12</wgt>
  <wgt id="141">3.53201e-12</wgt>
  <wgt id="142">3.51543e-12</wgt>
  <wgt id="143">3.52231e-12</wgt>
  <wgt id="144">3.40063e-12</wgt>
  <wgt id="145">3.62368e-12</wgt>
  <wgt id="146">3.55193e-12</wgt>
  <wgt id="147">3.48614e-12</wgt>
  <wgt id="148">3.5271e-12</wgt>
  <wgt id="149">3.51456e-12</wgt>
  <wgt id="150">3.54581e-12</wgt>
  <wgt id="151">3.5011e-12</wgt>
  <wgt id="152">3.51688e-12</wgt>
  <wgt id="153">3.51487e-12</wgt>
  <wgt id="154">3.53753e-12</wgt>
  <wgt id="155">3.48689e-12</wgt>
  <wgt id="156">3.6011e-12</wgt>
  <wgt id="157">3.43032e-12</wgt>
  <wgt id="158">4.2252e-12</wgt>
  <wgt id="159">4.24278e-12</wgt>
  <wgt id="160">4.21075e-12</wgt>
  <wgt id="161">4.21418e-12</wgt>
  <wgt id="162">4.23699e-12</wgt>
  <wgt id="163">4.22016e-12</wgt>
  <wgt id="164">4.23185e-12</wgt>
  <wgt id="165">4.22648e-12</wgt>
  <wgt id="166">4.22371e-12</wgt>
  <wgt id="167">4.22208e-12</wgt>
  <wgt id="168">4.22925e-12</wgt>
  <wgt id="169">4.20716e-12</wgt>
  <wgt id="170">4.23618e-12</wgt>
  <wgt id="171">4.22046e-12</wgt>
  <wgt id="172">4.23102e-12</wgt>
  <wgt id="173">4.22236e-12</wgt>
  <wgt id="174">4.22584e-12</wgt>
  <wgt id="175">4.10365e-12</wgt>
  <wgt id="176">4.38317e-12</wgt>
  <wgt id="177">4.24732e-12</wgt>
  <wgt id="178">4.20468e-12</wgt>
  <wgt id="179">4.41495e-12</wgt>
  <wgt id="180">3.92744e-12</wgt>
  <wgt id="181">4.09552e-12</wgt>
  <wgt id="182">4.31095e-12</wgt>
  <wgt id="183">4.14615e-12</wgt>
  <wgt id="184">4.26406e-12</wgt>
  <wgt id="185">4.18663e-12</wgt>
  <wgt id="186">4.27169e-12</wgt>
  <wgt id="187">4.18402e-12</wgt>
  <wgt id="188">4.29849e-12</wgt>
  <wgt id="189">4.19552e-12</wgt>
  <wgt id="190">4.23703e-12</wgt>
  <wgt id="191">4.23766e-12</wgt>
  <wgt id="192">4.2173e-12</wgt>
  <wgt id="193">4.28895e-12</wgt>
  <wgt id="194">4.19322e-12</wgt>
  <wgt id="195">4.10366e-12</wgt>
  <wgt id="196">4.43292e-12</wgt>
  <wgt id="197">4.24701e-12</wgt>
  <wgt id="198">4.21978e-12</wgt>
  <wgt id="199">4.2252e-12</wgt>
  <wgt id="200">4.26301e-12</wgt>
  <wgt id="201">4.24931e-12</wgt>
  <wgt id="202">4.23649e-12</wgt>
  <wgt id="203">4.21679e-12</wgt>
  <wgt id="204">4.20748e-12</wgt>
  <wgt id="205">4.19958e-12</wgt>
  <wgt id="206">4.10453e-12</wgt>
  <wgt id="207">4.12885e-12</wgt>
  <wgt id="208">4.08059e-12</wgt>
  <wgt id="209">4.11748e-12</wgt>
  <wgt id="210">4.09512e-12</wgt>
  <wgt id="211">4.10308e-12</wgt>
  <wgt id="212">4.10571e-12</wgt>
  <wgt id="213">4.10415e-12</wgt>
  <wgt id="214">4.10509e-12</wgt>
  <wgt id="215">4.10766e-12</wgt>
  <wgt id="216">4.10229e-12</wgt>
  <wgt id="217">4.1158e-12</wgt>
  <wgt id="218">4.09589e-12</wgt>
  <wgt id="219">4.1003e-12</wgt>
  <wgt id="220">4.10713e-12</wgt>
  <wgt id="221">4.10368e-12</wgt>
  <wgt id="222">4.10604e-12</wgt>
  <wgt id="223">3.88142e-12</wgt>
  <wgt id="224">4.30842e-12</wgt>
  <wgt id="225">4.05424e-12</wgt>
  <wgt id="226">4.16811e-12</wgt>
  <wgt id="227">4.06521e-12</wgt>
  <wgt id="228">4.12186e-12</wgt>
  <wgt id="229">4.04674e-12</wgt>
  <wgt id="230">4.13326e-12</wgt>
  <wgt id="231">4.22877e-12</wgt>
  <wgt id="232">4.00255e-12</wgt>
  <wgt id="233">4.08182e-12</wgt>
  <wgt id="234">4.1414e-12</wgt>
  <wgt id="235">3.99456e-12</wgt>
  <wgt id="236">4.20052e-12</wgt>
  <wgt id="237">4.03488e-12</wgt>
  <wgt id="238">4.12798e-12</wgt>
  <wgt id="239">4.07527e-12</wgt>
  <wgt id="240">4.15729e-12</wgt>
  <wgt id="241">4.06011e-12</wgt>
  <wgt id="242">4.15786e-12</wgt>
  <wgt id="243">4.16286e-12</wgt>
  <wgt id="244">4.1192e-12</wgt>
  <wgt id="245">4.10206e-12</wgt>
  <wgt id="246">4.13251e-12</wgt>
  <wgt id="247">4.10453e-12</wgt>
  <wgt id="248">4.14268e-12</wgt>
  <wgt id="249">4.12882e-12</wgt>
  <wgt id="250">4.11513e-12</wgt>
  <wgt id="251">4.09531e-12</wgt>
  <wgt id="252">4.08585e-12</wgt>
  <wgt id="253">4.07901e-12</wgt>
  <wgt id="254">4.00218e-12</wgt>
  <wgt id="255">4.00604e-12</wgt>
  <wgt id="256">3.99809e-12</wgt>
  <wgt id="257">4.00523e-12</wgt>
  <wgt id="258">3.99995e-12</wgt>
  <wgt id="259">4.02897e-12</wgt>
  <wgt id="260">3.97631e-12</wgt>
  <wgt id="261">4.00842e-12</wgt>
  <wgt id="262">3.99485e-12</wgt>
  <wgt id="263">4.00002e-12</wgt>
  <wgt id="264">4.00476e-12</wgt>
  <wgt id="265">3.99736e-12</wgt>
  <wgt id="266">4.01186e-12</wgt>
  <wgt id="267">4.00358e-12</wgt>
  <wgt id="268">4.00035e-12</wgt>
  <wgt id="269">4.01515e-12</wgt>
  <wgt id="270">3.9934e-12</wgt>
  <wgt id="271">3.99423e-12</wgt>
  <wgt id="272">4.01104e-12</wgt>
  <wgt id="273">3.99027e-12</wgt>
  <wgt id="274">4.01134e-12</wgt>
  <wgt id="275">3.98326e-12</wgt>
  <wgt id="276">4.02181e-12</wgt>
  <wgt id="277">3.97894e-12</wgt>
  <wgt id="278">4.02351e-12</wgt>
  <wgt id="279">3.92541e-12</wgt>
  <wgt id="280">4.09874e-12</wgt>
  <wgt id="281">3.98413e-12</wgt>
  <wgt id="282">4.00417e-12</wgt>
  <wgt id="283">3.88259e-12</wgt>
  <wgt id="284">4.14993e-12</wgt>
  <wgt id="285">3.80417e-12</wgt>
  <wgt id="286">4.16702e-12</wgt>
  <wgt id="287">4.01526e-12</wgt>
  <wgt id="288">3.98546e-12</wgt>
  <wgt id="289">4.03156e-12</wgt>
  <wgt id="290">3.93488e-12</wgt>
  <wgt id="291">3.98972e-12</wgt>
  <wgt id="292">4.0043e-12</wgt>
  <wgt id="293">3.97012e-12</wgt>
  <wgt id="294">4.03417e-12</wgt>
  <wgt id="295">3.92382e-12</wgt>
  <wgt id="296">4.09801e-12</wgt>
  <wgt id="297">3.99916e-12</wgt>
  <wgt id="298">4.019e-12</wgt>
  <wgt id="299">3.98908e-12</wgt>
  <wgt id="300">4.03704e-12</wgt>
  <wgt id="301">3.93857e-12</wgt>
  <wgt id="302">4.15723e-12</wgt>
  <wgt id="303">3.9676e-12</wgt>
  <wgt id="304">4.02192e-12</wgt>
  <wgt id="305">4.00086e-12</wgt>
  <wgt id="306">4.00481e-12</wgt>
  <wgt id="307">3.99656e-12</wgt>
  <wgt id="308">4.00421e-12</wgt>
  <wgt id="309">3.99863e-12</wgt>
  <wgt id="310">4.02852e-12</wgt>
  <wgt id="311">3.97525e-12</wgt>
  <wgt id="312">4.00601e-12</wgt>
  <wgt id="313">3.99541e-12</wgt>
  <wgt id="314">3.99864e-12</wgt>
  <wgt id="315">4.00294e-12</wgt>
  <wgt id="316">3.99616e-12</wgt>
  <wgt id="317">4.01105e-12</wgt>
  <wgt id="318">4.00381e-12</wgt>
  <wgt id="319">3.99569e-12</wgt>
  <wgt id="320">4.01455e-12</wgt>
  <wgt id="321">3.99323e-12</wgt>
  <wgt id="322">3.99111e-12</wgt>
  <wgt id="323">4.01214e-12</wgt>
  <wgt id="324">3.99107e-12</wgt>
  <wgt id="325">4.00935e-12</wgt>
  <wgt id="326">3.9856e-12</wgt>
  <wgt id="327">4.02044e-12</wgt>
  <wgt id="328">3.98002e-12</wgt>
  <wgt id="329">4.01255e-12</wgt>
  <wgt id="330">4.11853e-12</wgt>
  <wgt id="331">3.88866e-12</wgt>
  <wgt id="332">3.98584e-12</wgt>
  <wgt id="333">4.00177e-12</wgt>
  <wgt id="334">3.90771e-12</wgt>
  <wgt id="335">4.11683e-12</wgt>
  <wgt id="336">3.85792e-12</wgt>
  <wgt id="337">4.17565e-12</wgt>
  <wgt id="338">4.04675e-12</wgt>
  <wgt id="339">3.95836e-12</wgt>
  <wgt id="340">4.02825e-12</wgt>
  <wgt id="341">3.93121e-12</wgt>
  <wgt id="342">3.9919e-12</wgt>
  <wgt id="343">3.99617e-12</wgt>
  <wgt id="344">3.97197e-12</wgt>
  <wgt id="345">4.0344e-12</wgt>
  <wgt id="346">3.91965e-12</wgt>
  <wgt id="347">4.09427e-12</wgt>
  <wgt id="348">3.99915e-12</wgt>
  <wgt id="349">4.01519e-12</wgt>
  <wgt id="350">3.98441e-12</wgt>
  <wgt id="351">4.04259e-12</wgt>
  <wgt id="352">3.93236e-12</wgt>
  <wgt id="353">4.15947e-12</wgt>
  <wgt id="354">3.94905e-12</wgt>
  <wgt id="355">4.03221e-12</wgt>
  <wgt id="356">4.00218e-12</wgt>
  <wgt id="357">4.01348e-12</wgt>
  <wgt id="358">4.00086e-12</wgt>
  <wgt id="359">4.01216e-12</wgt>
  <wgt id="360">4.04132e-12</wgt>
  <wgt id="361">4.01735e-12</wgt>
  <wgt id="362">4.09028e-12</wgt>
  <wgt id="363">4.0803e-12</wgt>
  <wgt id="364">4.06441e-12</wgt>
  <wgt id="365">4.05025e-12</wgt>
  <wgt id="366">4.03476e-12</wgt>
  <wgt id="367">4.00352e-12</wgt>
  <wgt id="368">3.98556e-12</wgt>
  <wgt id="369">3.96628e-12</wgt>
  <wgt id="370">4.01735e-12</wgt>
  <wgt id="371">4.03496e-12</wgt>
  <wgt id="372">4.02523e-12</wgt>
  <wgt id="373">4.01087e-12</wgt>
  <wgt id="374">4.01139e-12</wgt>
  <wgt id="375">4.36947e-12</wgt>
  <wgt id="376">4.37001e-12</wgt>
  <wgt id="377">4.36886e-12</wgt>
  <wgt id="378">4.38558e-12</wgt>
  <wgt id="379">4.35377e-12</wgt>
  <wgt id="380">4.38147e-12</wgt>
  <wgt id="381">4.36489e-12</wgt>
  <wgt id="382">4.39204e-12</wgt>
  <wgt id="383">4.34736e-12</wgt>
  <wgt id="384">4.37233e-12</wgt>
  <wgt id="385">4.36661e-12</wgt>
  <wgt id="386">4.38646e-12</wgt>
  <wgt id="387">4.36242e-12</wgt>
  <wgt id="388">4.3654e-12</wgt>
  <wgt id="389">4.37466e-12</wgt>
  <wgt id="390">4.38119e-12</wgt>
  <wgt id="391">4.35736e-12</wgt>
  <wgt id="392">4.33392e-12</wgt>
  <wgt id="393">4.39e-12</wgt>
  <wgt id="394">4.37489e-12</wgt>
  <wgt id="395">4.36236e-12</wgt>
  <wgt id="396">4.37406e-12</wgt>
  <wgt id="397">4.36646e-12</wgt>
  <wgt id="398">4.35366e-12</wgt>
  <wgt id="399">4.38505e-12</wgt>
  <wgt id="400">4.3624e-12</wgt>
  <wgt id="401">4.38598e-12</wgt>
  <wgt id="402">4.33249e-12</wgt>
  <wgt id="403">4.38801e-12</wgt>
  <wgt id="404">4.47796e-12</wgt>
  <wgt id="405">4.10917e-12</wgt>
  <wgt id="406">4.29186e-12</wgt>
  <wgt id="407">4.53985e-12</wgt>
  <wgt id="408">4.40974e-12</wgt>
  <wgt id="409">4.29334e-12</wgt>
  <wgt id="410">4.2423e-12</wgt>
  <wgt id="411">4.42925e-12</wgt>
  <wgt id="412">4.36114e-12</wgt>
  <wgt id="413">4.3824e-12</wgt>
  <wgt id="414">4.31866e-12</wgt>
  <wgt id="415">4.40901e-12</wgt>
  <wgt id="416">4.4952e-12</wgt>
  <wgt id="417">4.19609e-12</wgt>
  <wgt id="418">4.37615e-12</wgt>
  <wgt id="419">4.33341e-12</wgt>
  <wgt id="420">4.44728e-12</wgt>
  <wgt id="421">4.32209e-12</wgt>
  <wgt id="422">4.35707e-12</wgt>
  <wgt id="423">4.37614e-12</wgt>
  <wgt id="424">4.47041e-12</wgt>
  <wgt id="425">4.3042e-12</wgt>
  <wgt id="426">4.36947e-12</wgt>
  <wgt id="427">4.3172e-12</wgt>
  <wgt id="428">4.50788e-12</wgt>
  <wgt id="429">4.41485e-12</wgt>
  <wgt id="430">4.54445e-12</wgt>
  <wgt id="431">4.51868e-12</wgt>
  <wgt id="432">4.4943e-12</wgt>
  <wgt id="433">4.47068e-12</wgt>
  <wgt id="434">4.44159e-12</wgt>
  <wgt id="435">4.38176e-12</wgt>
  <wgt id="436">4.35142e-12</wgt>
  <wgt id="437">4.32211e-12</wgt>
  <wgt id="438">4.41485e-12</wgt>
  <wgt id="439">4.42917e-12</wgt>
  <wgt id="440">4.42051e-12</wgt>
  <wgt id="441">4.41065e-12</wgt>
  <wgt id="442">4.40724e-12</wgt>
  <wgt id="443">4.19966e-12</wgt>
  <wgt id="444">4.22949e-12</wgt>
  <wgt id="445">4.20032e-12</wgt>
  <wgt id="446">4.17087e-12</wgt>
  <wgt id="447">4.19104e-12</wgt>
  <wgt id="448">4.08996e-12</wgt>
  <wgt id="449">4.27068e-12</wgt>
  <wgt id="450">4.20638e-12</wgt>
  <wgt id="451">4.19096e-12</wgt>
  <wgt id="452">4.29508e-12</wgt>
  <wgt id="453">4.24162e-12</wgt>
  <wgt id="454">4.01645e-12</wgt>
  <wgt id="455">4.21375e-12</wgt>
  <wgt id="456">4.20093e-12</wgt>
  <wgt id="457">4.21599e-12</wgt>
  <wgt id="458">4.25662e-12</wgt>
  <wgt id="459">4.23221e-12</wgt>
  <wgt id="460">4.24127e-12</wgt>
  <wgt id="461">4.11345e-12</wgt>
  <wgt id="462">4.16658e-12</wgt>
  <wgt id="463">4.14602e-12</wgt>
  <wgt id="464">4.17697e-12</wgt>
  <wgt id="465">4.24547e-12</wgt>
  <wgt id="466">4.13713e-12</wgt>
  <wgt id="467">4.16002e-12</wgt>
  <wgt id="468">4.1897e-12</wgt>
  <wgt id="469">4.18884e-12</wgt>
  <wgt id="470">4.15332e-12</wgt>
  <wgt id="471">4.1579e-12</wgt>
  <wgt id="472">4.22136e-12</wgt>
  <wgt id="473">4.06268e-12</wgt>
  <wgt id="474">3.0282e-12</wgt>
  <wgt id="475">3.12899e-12</wgt>
  <wgt id="476">2.98039e-12</wgt>
  <wgt id="477">2.97047e-12</wgt>
  <wgt id="478">3.05116e-12</wgt>
  <wgt id="479">2.95078e-12</wgt>
  <wgt id="480">3.15463e-12</wgt>
  <wgt id="481">3.00784e-12</wgt>
  <wgt id="482">2.96692e-12</wgt>
  <wgt id="483">2.96139e-12</wgt>
  <wgt id="484">3.15267e-12</wgt>
  <wgt id="485">2.94823e-12</wgt>
  <wgt id="486">3.1512e-12</wgt>
  <wgt id="487">3.04207e-12</wgt>
  <wgt id="488">3.08143e-12</wgt>
  <wgt id="489">2.86222e-12</wgt>
  <wgt id="490">2.91125e-12</wgt>
  <wgt id="491">3.00442e-12</wgt>
  <wgt id="492">2.96197e-12</wgt>
  <wgt id="493">2.89007e-12</wgt>
  <wgt id="494">2.91499e-12</wgt>
  <wgt id="495">3.05644e-12</wgt>
  <wgt id="496">2.92479e-12</wgt>
  <wgt id="497">2.89031e-12</wgt>
  <wgt id="498">3.10276e-12</wgt>
  <wgt id="499">2.99033e-12</wgt>
  <wgt id="500">2.96613e-12</wgt>
  <wgt id="501">3.16011e-12</wgt>
  <wgt id="502">3.0122e-12</wgt>
  <wgt id="503">3.02164e-12</wgt>
  <wgt id="504">3.08919e-12</wgt>
  <wgt id="505">3.03344e-12</wgt>
  <wgt id="506">2.99554e-12</wgt>
  <wgt id="507">3.02269e-12</wgt>
  <wgt id="508">3.12339e-12</wgt>
  <wgt id="509">2.86504e-12</wgt>
  <wgt id="510">3.10446e-12</wgt>
  <wgt id="511">2.93596e-12</wgt>
  <wgt id="512">3.12697e-12</wgt>
  <wgt id="513">3.15309e-12</wgt>
  <wgt id="514">3.06731e-12</wgt>
  <wgt id="515">3.02058e-12</wgt>
  <wgt id="516">3.19415e-12</wgt>
  <wgt id="517">3.09831e-12</wgt>
  <wgt id="518">3.11059e-12</wgt>
  <wgt id="519">2.93205e-12</wgt>
  <wgt id="520">3.0851e-12</wgt>
  <wgt id="521">3.08892e-12</wgt>
  <wgt id="522">3.15922e-12</wgt>
  <wgt id="523">3.00934e-12</wgt>
  <wgt id="524">3.0331e-12</wgt>
  <wgt id="525">3.10029e-12</wgt>
  <wgt id="526">3.08333e-12</wgt>
  <wgt id="527">3.04698e-12</wgt>
  <wgt id="528">3.0479e-12</wgt>
  <wgt id="529">2.97134e-12</wgt>
  <wgt id="530">3.10731e-12</wgt>
  <wgt id="531">2.9697e-12</wgt>
  <wgt id="532">3.23079e-12</wgt>
  <wgt id="533">2.90155e-12</wgt>
  <wgt id="534">3.00875e-12</wgt>
  <wgt id="535">3.04002e-12</wgt>
  <wgt id="536">3.0294e-12</wgt>
  <wgt id="537">3.00056e-12</wgt>
  <wgt id="538">3.04923e-12</wgt>
  <wgt id="539">2.97084e-12</wgt>
  <wgt id="540">3.03765e-12</wgt>
  <wgt id="541">2.94827e-12</wgt>
  <wgt id="542">2.99151e-12</wgt>
  <wgt id="543">3.00216e-12</wgt>
  <wgt id="544">3.14602e-12</wgt>
  <wgt id="545">2.95663e-12</wgt>
  <wgt id="546">2.92632e-12</wgt>
  <wgt id="547">2.94727e-12</wgt>
  <wgt id="548">2.90648e-12</wgt>
  <wgt id="549">2.97524e-12</wgt>
  <wgt id="550">2.96925e-12</wgt>
  <wgt id="551">3.06586e-12</wgt>
  <wgt id="552">2.91803e-12</wgt>
  <wgt id="553">2.9775e-12</wgt>
  <wgt id="554">3.23574e-12</wgt>
  <wgt id="555">3.10955e-12</wgt>
  <wgt id="556">2.91125e-12</wgt>
  <wgt id="557">3.10283e-12</wgt>
  <wgt id="558">2.95755e-12</wgt>
  <wgt id="559">2.96928e-12</wgt>
  <wgt id="560">3.32535e-12</wgt>
  <wgt id="561">3.00647e-12</wgt>
  <wgt id="562">3.11187e-12</wgt>
  <wgt id="563">3.06932e-12</wgt>
  <wgt id="564">3.1033e-12</wgt>
  <wgt id="565">2.9681e-12</wgt>
  <wgt id="566">3.05401e-12</wgt>
  <wgt id="567">3.00314e-12</wgt>
  <wgt id="568">2.99871e-12</wgt>
  <wgt id="569">3.06987e-12</wgt>
  <wgt id="570">2.90381e-12</wgt>
  <wgt id="571">3.35628e-12</wgt>
  <wgt id="572">2.96422e-12</wgt>
  <wgt id="573">2.92004e-12</wgt>
  <wgt id="574">2.93512e-12</wgt>
  <wgt id="575">3.34522e-12</wgt>
  <wgt id="576">3.41992e-12</wgt>
  <wgt id="577">3.44484e-12</wgt>
  <wgt id="578">3.44224e-12</wgt>
  <wgt id="579">3.43848e-12</wgt>
  <wgt id="580">3.47111e-12</wgt>
  <wgt id="581">3.61372e-12</wgt>
  <wgt id="582">3.40449e-12</wgt>
  <wgt id="583">3.3807e-12</wgt>
  <wgt id="584">3.33322e-12</wgt>
  <wgt id="585">3.26698e-12</wgt>
  <wgt id="586">3.22857e-12</wgt>
  <wgt id="587">3.39834e-12</wgt>
  <wgt id="588">3.39914e-12</wgt>
  <wgt id="589">3.483e-12</wgt>
  <wgt id="590">3.35918e-12</wgt>
  <wgt id="591">3.46159e-12</wgt>
  <wgt id="592">3.1688e-12</wgt>
  <wgt id="593">3.30647e-12</wgt>
  <wgt id="594">3.39592e-12</wgt>
  <wgt id="595">3.38109e-12</wgt>
  <wgt id="596">3.5133e-12</wgt>
  <wgt id="597">3.29989e-12</wgt>
  <wgt id="598">3.23127e-12</wgt>
  <wgt id="599">3.49677e-12</wgt>
  <wgt id="600">3.37201e-12</wgt>
  <wgt id="601">3.23949e-12</wgt>
  <wgt id="602">3.24857e-12</wgt>
  <wgt id="603">3.23842e-12</wgt>
  <wgt id="604">3.4023e-12</wgt>
  <wgt id="605">3.45527e-12</wgt>
  <wgt id="606">3.33584e-12</wgt>
  <wgt id="607">3.36118e-12</wgt>
  <wgt id="608">3.41538e-12</wgt>
  <wgt id="609">3.21569e-12</wgt>
  <wgt id="610">3.22538e-12</wgt>
  <wgt id="611">3.31984e-12</wgt>
  <wgt id="612">3.56352e-12</wgt>
  <wgt id="613">3.28936e-12</wgt>
  <wgt id="614">3.35838e-12</wgt>
  <wgt id="615">3.31312e-12</wgt>
  <wgt id="616">3.43921e-12</wgt>
  <wgt id="617">3.45764e-12</wgt>
  <wgt id="618">3.55491e-12</wgt>
  <wgt id="619">3.29531e-12</wgt>
  <wgt id="620">3.47466e-12</wgt>
  <wgt id="621">3.34978e-12</wgt>
  <wgt id="622">3.39834e-12</wgt>
  <wgt id="623">3.41976e-12</wgt>
  <wgt id="624">3.35297e-12</wgt>
  <wgt id="625">3.26676e-12</wgt>
  <wgt id="626">3.18801e-12</wgt>
  <wgt id="627">3.16227e-12</wgt>
  <wgt id="628">3.44222e-12</wgt>
  <wgt id="629">3.30258e-12</wgt>
  <wgt id="630">3.2453e-12</wgt>
  <wgt id="631">3.37913e-12</wgt>
  <wgt id="632">3.16165e-12</wgt>
  <wgt id="633">3.32227e-12</wgt>
  <wgt id="634">3.28676e-12</wgt>
  <wgt id="635">3.18509e-12</wgt>
  <wgt id="636">3.38289e-12</wgt>
  <wgt id="637">3.35099e-12</wgt>
  <wgt id="638">3.21961e-12</wgt>
  <wgt id="639">3.27613e-12</wgt>
  <wgt id="640">3.32887e-12</wgt>
  <wgt id="641">3.41962e-12</wgt>
  <wgt id="642">3.25195e-12</wgt>
  <wgt id="643">3.30913e-12</wgt>
  <wgt id="644">3.09999e-12</wgt>
  <wgt id="645">3.36318e-12</wgt>
  <wgt id="646">3.2927e-12</wgt>
  <wgt id="647">3.32012e-12</wgt>
  <wgt id="648">3.40831e-12</wgt>
  <wgt id="649">3.37727e-12</wgt>
  <wgt id="650">3.2429e-12</wgt>
  <wgt id="651">3.44857e-12</wgt>
  <wgt id="652">3.28472e-12</wgt>
  <wgt id="653">3.2413e-12</wgt>
  <wgt id="654">3.30912e-12</wgt>
  <wgt id="655">3.28074e-12</wgt>
  <wgt id="656">3.35067e-12</wgt>
  <wgt id="657">3.55111e-12</wgt>
  <wgt id="658">3.36565e-12</wgt>
  <wgt id="659">3.21014e-12</wgt>
  <wgt id="660">3.36222e-12</wgt>
  <wgt id="661">3.28723e-12</wgt>
  <wgt id="662">3.31847e-12</wgt>
  <wgt id="663">3.36592e-12</wgt>
  <wgt id="664">3.32249e-12</wgt>
  <wgt id="665">3.33645e-12</wgt>
  <wgt id="666">3.3017e-12</wgt>
  <wgt id="667">3.47695e-12</wgt>
  <wgt id="668">3.33766e-12</wgt>
  <wgt id="669">3.40527e-12</wgt>
  <wgt id="670">3.44973e-12</wgt>
  <wgt id="671">3.33635e-12</wgt>
  <wgt id="672">3.20895e-12</wgt>
  <wgt id="673">3.41599e-12</wgt>
  <wgt id="674">3.26758e-12</wgt>
  <wgt id="675">3.28765e-12</wgt>
  <wgt id="676">4.26804e-12</wgt>
  <wgt id="677">4.31688e-12</wgt>
  <wgt id="678">4.53163e-12</wgt>
  <wgt id="679">4.07731e-12</wgt>
  <wgt id="680">4.22222e-12</wgt>
  <wgt id="681">4.295e-12</wgt>
  <wgt id="682">4.41929e-12</wgt>
  <wgt id="683">4.14286e-12</wgt>
  <wgt id="684">4.46067e-12</wgt>
  <wgt id="685">4.12535e-12</wgt>
  <wgt id="686">4.15906e-12</wgt>
  <wgt id="687">4.4589e-12</wgt>
  <wgt id="688">4.19016e-12</wgt>
  <wgt id="689">4.54036e-12</wgt>
  <wgt id="690">4.43903e-12</wgt>
  <wgt id="691">4.45858e-12</wgt>
  <wgt id="692">4.2079e-12</wgt>
  <wgt id="693">5.18932e-12</wgt>
  <wgt id="694">4.5764e-12</wgt>
  <wgt id="695">4.10736e-12</wgt>
  <wgt id="696">4.08382e-12</wgt>
  <wgt id="697">4.05081e-12</wgt>
  <wgt id="698">3.79133e-12</wgt>
  <wgt id="699">3.78179e-12</wgt>
  <wgt id="700">3.7355e-12</wgt>
  <wgt id="701">4.27488e-12</wgt>
  <wgt id="702">4.17014e-12</wgt>
  <wgt id="703">5.00089e-12</wgt>
  <wgt id="704">4.72877e-12</wgt>
  <wgt id="705">4.59398e-12</wgt>
  <wgt id="706">4.01034e-12</wgt>
  <wgt id="707">4.0699e-12</wgt>
  <wgt id="708">4.18298e-12</wgt>
  <wgt id="709">4.17632e-12</wgt>
  <wgt id="710">3.84078e-12</wgt>
  <wgt id="711">4.28414e-12</wgt>
  <wgt id="712">4.12542e-12</wgt>
  <wgt id="713">4.60226e-12</wgt>
  <wgt id="714">4.08469e-12</wgt>
  <wgt id="715">4.18065e-12</wgt>
  <wgt id="716">4.11771e-12</wgt>
  <wgt id="717">3.95494e-12</wgt>
  <wgt id="718">4.30815e-12</wgt>
  <wgt id="719">3.86952e-12</wgt>
  <wgt id="720">4.11988e-12</wgt>
  <wgt id="721">3.80833e-12</wgt>
  <wgt id="722">3.66433e-12</wgt>
  <wgt id="723">4.61912e-12</wgt>
  <wgt id="724">4.51846e-12</wgt>
  <wgt id="725">4.48296e-12</wgt>
  <wgt id="726">4.28452e-12</wgt>
  <wgt id="727">4.20367e-12</wgt>
  <wgt id="728">4.14688e-12</wgt>
  <wgt id="729">4.05699e-12</wgt>
  <wgt id="730">4.63511e-12</wgt>
  <wgt id="731">4.19945e-12</wgt>
  <wgt id="732">4.7763e-12</wgt>
  <wgt id="733">4.15621e-12</wgt>
  <wgt id="734">4.38034e-12</wgt>
  <wgt id="735">4.28883e-12</wgt>
  <wgt id="736">4.11304e-12</wgt>
  <wgt id="737">4.27225e-12</wgt>
  <wgt id="738">4.06412e-12</wgt>
  <wgt id="739">4.4545e-12</wgt>
  <wgt id="740">4.82101e-12</wgt>
  <wgt id="741">3.95899e-12</wgt>
  <wgt id="742">4.21184e-12</wgt>
  <wgt id="743">4.00365e-12</wgt>
  <wgt id="744">4.18249e-12</wgt>
  <wgt id="745">4.5135e-12</wgt>
  <wgt id="746">4.61145e-12</wgt>
  <wgt id="747">3.75524e-12</wgt>
  <wgt id="748">4.19338e-12</wgt>
  <wgt id="749">4.45979e-12</wgt>
  <wgt id="750">4.47482e-12</wgt>
  <wgt id="751">4.35385e-12</wgt>
  <wgt id="752">3.89271e-12</wgt>
  <wgt id="753">3.97619e-12</wgt>
  <wgt id="754">4.4471e-12</wgt>
  <wgt id="755">4.24995e-12</wgt>
  <wgt id="756">4.24122e-12</wgt>
  <wgt id="757">3.86234e-12</wgt>
  <wgt id="758">4.24732e-12</wgt>
  <wgt id="759">4.53005e-12</wgt>
  <wgt id="760">4.24799e-12</wgt>
  <wgt id="761">4.55395e-12</wgt>
  <wgt id="762">4.57984e-12</wgt>
  <wgt id="763">4.26392e-12</wgt>
  <wgt id="764">4.46817e-12</wgt>
  <wgt id="765">4.3134e-12</wgt>
  <wgt id="766">4.27728e-12</wgt>
  <wgt id="767">4.3633e-12</wgt>
  <wgt id="768">3.98135e-12</wgt>
  <wgt id="769">4.52702e-12</wgt>
  <wgt id="770">4.14607e-12</wgt>
  <wgt id="771">5.09914e-12</wgt>
  <wgt id="772">4.07732e-12</wgt>
  <wgt id="773">4.2366e-12</wgt>
  <wgt id="774">3.63112e-12</wgt>
  <wgt id="775">4.47767e-12</wgt>
  <wgt id="776">4.69274e-12</wgt>
  <wgt id="777">3.97259e-12</wgt>
  <wgt id="778">3.04555e-12</wgt>
  <wgt id="779">2.32222e-12</wgt>
  <wgt id="780">1.7426e-12</wgt>
  <wgt id="781">3.40263e-12</wgt>
  <wgt id="782">3.37659e-12</wgt>
  <wgt id="783">2.30409e-12</wgt>
  <wgt id="784">2.51263e-12</wgt>
  <wgt id="785">3.99475e-12</wgt>
  <wgt id="786">2.19509e-12</wgt>
  <wgt id="787">3.60601e-12</wgt>
  <wgt id="788">1.54277e-12</wgt>
  <wgt id="789">2.4114e-12</wgt>
  <wgt id="790">2.15231e-12</wgt>
  <wgt id="791">3.07006e-12</wgt>
  <wgt id="792">4.04704e-12</wgt>
  <wgt id="793">2.98919e-12</wgt>
  <wgt id="794">2.09776e-12</wgt>
  <wgt id="795">3.76604e-12</wgt>
  <wgt id="796">4.07934e-12</wgt>
  <wgt id="797">3.72242e-12</wgt>
  <wgt id="798">2.64805e-12</wgt>
  <wgt id="799">3.564e-12</wgt>
  <wgt id="800">2.47039e-12</wgt>
  <wgt id="801">2.80928e-12</wgt>
  <wgt id="802">2.07782e-12</wgt>
  <wgt id="803">4.4251e-12</wgt>
  <wgt id="804">3.74053e-12</wgt>
  <wgt id="805">3.75432e-12</wgt>
  <wgt id="806">3.33406e-12</wgt>
  <wgt id="807">2.90347e-12</wgt>
  <wgt id="808">2.92342e-12</wgt>
  <wgt id="809">2.79572e-12</wgt>
  <wgt id="810">3.39994e-12</wgt>
  <wgt id="811">3.28731e-12</wgt>
  <wgt id="812">2.1427e-12</wgt>
  <wgt id="813">2.24973e-12</wgt>
  <wgt id="814">2.43717e-12</wgt>
  <wgt id="815">2.30168e-12</wgt>
  <wgt id="816">2.14193e-12</wgt>
  <wgt id="817">3.13571e-12</wgt>
  <wgt id="818">3.31778e-12</wgt>
  <wgt id="819">2.31819e-12</wgt>
  <wgt id="820">2.994e-12</wgt>
  <wgt id="821">3.56812e-12</wgt>
  <wgt id="822">2.44193e-12</wgt>
  <wgt id="823">3.64378e-12</wgt>
  <wgt id="824">4.32627e-12</wgt>
  <wgt id="825">2.01988e-12</wgt>
  <wgt id="826">3.39844e-12</wgt>
  <wgt id="827">1.67619e-12</wgt>
  <wgt id="828">3.90046e-12</wgt>
  <wgt id="829">3.16115e-12</wgt>
  <wgt id="830">1.90712e-12</wgt>
  <wgt id="831">3.37431e-12</wgt>
  <wgt id="832">5.1568e-12</wgt>
  <wgt id="833">2.69009e-12</wgt>
  <wgt id="834">4.91e-12</wgt>
  <wgt id="835">2.38681e-12</wgt>
  <wgt id="836">2.84606e-12</wgt>
  <wgt id="837">3.50858e-12</wgt>
  <wgt id="838">2.75397e-12</wgt>
  <wgt id="839">3.34721e-12</wgt>
  <wgt id="840">2.74434e-12</wgt>
  <wgt id="841">3.95542e-12</wgt>
  <wgt id="842">2.80988e-12</wgt>
  <wgt id="843">3.11464e-12</wgt>
  <wgt id="844">3.24186e-12</wgt>
  <wgt id="845">4.67405e-12</wgt>
  <wgt id="846">3.09733e-12</wgt>
  <wgt id="847">3.13666e-12</wgt>
  <wgt id="848">2.38585e-12</wgt>
  <wgt id="849">3.1738e-12</wgt>
  <wgt id="850">4.20919e-12</wgt>
  <wgt id="851">3.4231e-12</wgt>
  <wgt id="852">2.27589e-12</wgt>
  <wgt id="853">3.48467e-12</wgt>
  <wgt id="854">3.88392e-12</wgt>
  <wgt id="855">3.62159e-12</wgt>
  <wgt id="856">1.93449e-12</wgt>
  <wgt id="857">2.92423e-12</wgt>
  <wgt id="858">2.88967e-12</wgt>
  <wgt id="859">2.86637e-12</wgt>
  <wgt id="860">3.5092e-12</wgt>
  <wgt id="861">2.61964e-12</wgt>
  <wgt id="862">3.09626e-12</wgt>
  <wgt id="863">3.32884e-12</wgt>
  <wgt id="864">3.21595e-12</wgt>
  <wgt id="865">4.5734e-12</wgt>
  <wgt id="866">5.03402e-12</wgt>
  <wgt id="867">3.11867e-12</wgt>
  <wgt id="868">3.05222e-12</wgt>
  <wgt id="869">2.16614e-12</wgt>
  <wgt id="870">2.33597e-12</wgt>
  <wgt id="871">2.26632e-12</wgt>
  <wgt id="872">3.87832e-12</wgt>
  <wgt id="873">2.50268e-12</wgt>
  <wgt id="874">3.27119e-12</wgt>
  <wgt id="875">2.56128e-12</wgt>
  <wgt id="876">3.82559e-12</wgt>
  <wgt id="877">3.50459e-12</wgt>
  <wgt id="878">2.49286e-12</wgt>
  <wgt id="879">4.26804e-12</wgt>
  <wgt id="880">4.31688e-12</wgt>
  <wgt id="881">4.53163e-12</wgt>
  <wgt id="882">4.07731e-12</wgt>
  <wgt id="883">4.22222e-12</wgt>
  <wgt id="884">4.295e-12</wgt>
  <wgt id="885">4.41929e-12</wgt>
  <wgt id="886">4.14286e-12</wgt>
  <wgt id="887">4.46067e-12</wgt>
  <wgt id="888">4.12535e-12</wgt>
  <wgt id="889">4.15906e-12</wgt>
  <wgt id="890">4.4589e-12</wgt>
  <wgt id="891">4.19016e-12</wgt>
  <wgt id="892">4.54036e-12</wgt>
  <wgt id="893">4.43903e-12</wgt>
  <wgt id="894">4.45858e-12</wgt>
  <wgt id="895">4.2079e-12</wgt>
  <wgt id="896">5.18932e-12</wgt>
  <wgt id="897">4.5764e-12</wgt>
  <wgt id="898">4.10736e-12</wgt>
  <wgt id="899">4.08382e-12</wgt>
  <wgt id="900">4.05081e-12</wgt>
  <wgt id="901">3.79133e-12</wgt>
  <wgt id="902">3.78179e-12</wgt>
  <wgt id="903">3.7355e-12</wgt>
  <wgt id="904">4.27488e-12</wgt>
  <wgt id="905">4.17014e-12</wgt>
  <wgt id="906">5.00089e-12</wgt>
  <wgt id="907">4.72877e-12</wgt>
  <wgt id="908">4.59398e-12</wgt>
  <wgt id="909">4.01034e-12</wgt>
  <wgt id="910">4.0699e-12</wgt>
  <wgt id="911">4.18298e-12</wgt>
  <wgt id="912">4.17632e-12</wgt>
  <wgt id="913">3.84078e-12</wgt>
  <wgt id="914">4.28414e-12</wgt>
  <wgt id="915">4.12542e-12</wgt>
  <wgt id="916">4.60226e-12</wgt>
  <wgt id="917">4.08469e-12</wgt>
  <wgt id="918">4.18065e-12</wgt>
  <wgt id="919">4.11771e-12</wgt>
  <wgt id="920">3.95494e-12</wgt>
  <wgt id="921">4.30815e-12</wgt>
  <wgt id="922">3.86952e-12</wgt>
  <wgt id="923">4.11988e-12</wgt>
  <wgt id="924">3.80833e-12</wgt>
  <wgt id="925">3.66433e-12</wgt>
  <wgt id="926">4.61912e-12</wgt>
  <wgt id="927">4.51846e-12</wgt>
  <wgt id="928">4.48296e-12</wgt>
  <wgt id="929">4.28452e-12</wgt>
  <wgt id="930">4.20367e-12</wgt>
  <wgt id="931">4.14688e-12</wgt>
  <wgt id="932">4.05699e-12</wgt>
  <wgt id="933">4.63511e-12</wgt>
  <wgt id="934">4.19945e-12</wgt>
  <wgt id="935">4.7763e-12</wgt>
  <wgt id="936">4.15621e-12</wgt>
  <wgt id="937">4.38034e-12</wgt>
  <wgt id="938">4.28883e-12</wgt>
  <wgt id="939">4.11304e-12</wgt>
  <wgt id="940">4.27225e-12</wgt>
  <wgt id="941">4.06412e-12</wgt>
  <wgt id="942">4.4545e-12</wgt>
  <wgt id="943">4.82101e-12</wgt>
  <wgt id="944">3.95899e-12</wgt>
  <wgt id="945">4.21184e-12</wgt>
  <wgt id="946">4.00365e-12</wgt>
  <wgt id="947">4.18249e-12</wgt>
  <wgt id="948">4.5135e-12</wgt>
  <wgt id="949">4.61145e-12</wgt>
  <wgt id="950">3.75524e-12</wgt>
  <wgt id="951">4.19338e-12</wgt>
  <wgt id="952">4.45979e-12</wgt>
  <wgt id="953">4.47482e-12</wgt>
  <wgt id="954">4.35385e-12</wgt>
  <wgt id="955">3.89271e-12</wgt>
  <wgt id="956">3.97619e-12</wgt>
  <wgt id="957">4.4471e-12</wgt>
  <wgt id="958">4.24995e-12</wgt>
  <wgt id="959">4.24122e-12</wgt>
  <wgt id="960">3.86234e-12</wgt>
  <wgt id="961">4.24732e-12</wgt>
  <wgt id="962">4.53005e-12</wgt>
  <wgt id="963">4.24799e-12</wgt>
  <wgt id="964">4.55395e-12</wgt>
  <wgt id="965">4.57984e-12</wgt>
  <wgt id="966">4.26392e-12</wgt>
  <wgt id="967">4.46817e-12</wgt>
  <wgt id="968">4.3134e-12</wgt>
  <wgt id="969">4.27728e-12</wgt>
  <wgt id="970">4.3633e-12</wgt>
  <wgt id="971">3.98135e-12</wgt>
  <wgt id="972">4.52702e-12</wgt>
  <wgt id="973">4.14607e-12</wgt>
  <wgt id="974">5.09914e-12</wgt>
  <wgt id="975">4.07732e-12</wgt>
  <wgt id="976">4.2366e-12</wgt>
  <wgt id="977">3.63112e-12</wgt>
  <wgt id="978">4.47767e-12</wgt>
  <wgt id="979">4.69274e-12</wgt>
  <wgt id="980">4.2552e-12</wgt>
  <wgt id="981">4.30871e-12</wgt>
  <wgt id="982">4.13722e-12</wgt>
</rwgt>
</event>
<event>
 5   1  0.3028200E-11  0.2477952E+04  0.7818608E-02  0.7651591E-01
       21   -1    0    0  502  501  0.00000000000E+00  0.00000000000E+00  0.90334875858E+03  0.90334875858E+03  0.00000000000E+00 0.  1.
       21   -1    0    0  501  502 -0.00000000000E+00 -0.00000000000E+00 -0.16993005199E+04  0.16993005199E+04  0.00000000000E+00 0. -1.
       39    2    1    2    0    0  0.00000000000E+00  0.00000000000E+00 -0.79595176133E+03  0.26026492785E+04  0.24779515856E+04 0.  0.
       25    1    3    3    0    0  0.10913938880E+04  0.37700715492E+03 -0.85115217602E+03  0.14399166783E+04  0.12500000000E+03 0.  0.
       25    1    3    3    0    0 -0.10913938880E+04 -0.37700715492E+03  0.55200414691E+02  0.11627326002E+04  0.12500000000E+03 0.  0.
<mgrwt>
<rscale>  0 0.24779516E+04</rscale>
<asrwt>0</asrwt>
<pdfrwt beam="1">  1       21 0.13897673E+00 0.24779516E+04</pdfrwt>
<pdfrwt beam="2">  1       21 0.26143084E+00 0.24779516E+04</pdfrwt>
<totfact> 0.69800637E+00</totfact>
</mgrwt>
<rwgt>
  <wgt id="1">3.0282e-12</wgt>
  <wgt id="2">2.62249e-12</wgt>
  <wgt id="3">3.53443e-12</wgt>
  <wgt id="4">3.0282e-12</wgt>
  <wgt id="5">2.62249e-12</wgt>
  <wgt id="6">3.53443e-12</wgt>
  <wgt id="7">3.0282e-12</wgt>
  <wgt id="8">2.62249e-12</wgt>
  <wgt id="9">3.53443e-12</wgt>
  <wgt id="10">3.16763e-12</wgt>
  <wgt id="11">3.16528e-12</wgt>
  <wgt id="12">3.16155e-12</wgt>
  <wgt id="13">3.15789e-12</wgt>
  <wgt id="14">3.17925e-12</wgt>
  <wgt id="15">3.17292e-12</wgt>
  <wgt id="16">3.16213e-12</wgt>
  <wgt id="17">3.17708e-12</wgt>
  <wgt id="18">3.16136e-12</wgt>
  <wgt id="19">3.17647e-12</wgt>
  <wgt id="20">3.1607e-12</wgt>
  <wgt id="21">3.14498e-12</wgt>
  <wgt id="22">3.15079e-12</wgt>
  <wgt id="23">3.13122e-12</wgt>
  <wgt id="24">3.14967e-12</wgt>
  <wgt id="25">3.15807e-12</wgt>
  <wgt id="26">3.17913e-12</wgt>
  <wgt id="27">3.16551e-12</wgt>
  <wgt id="28">3.15126e-12</wgt>
  <wgt id="29">3.16982e-12</wgt>
  <wgt id="30">3.1532e-12</wgt>
  <wgt id="31">3.17958e-12</wgt>
  <wgt id="32">3.1578e-12</wgt>
  <wgt id="33">3.1749e-12</wgt>
  <wgt id="34">3.15303e-12</wgt>
  <wgt id="35">3.16072e-12</wgt>
  <wgt id="36">3.18086e-12</wgt>
  <wgt id="37">3.15871e-12</wgt>
  <wgt id="38">3.1566e-12</wgt>
  <wgt id="39">3.20891e-12</wgt>
  <wgt id="40">3.17158e-12</wgt>
  <wgt id="41">3.16593e-12</wgt>
  <wgt id="42">3.17271e-12</wgt>
  <wgt id="43">3.16708e-12</wgt>
  <wgt id="44">3.16658e-12</wgt>
  <wgt id="45">3.17506e-12</wgt>
  <wgt id="46">3.16706e-12</wgt>
  <wgt id="47">3.16955e-12</wgt>
  <wgt id="48">3.17176e-12</wgt>
  <wgt id="49">3.16108e-12</wgt>
  <wgt id="50">3.16833e-12</wgt>
  <wgt id="51">3.1693e-12</wgt>
  <wgt id="52">3.17292e-12</wgt>
  <wgt id="53">3.15803e-12</wgt>
  <wgt id="54">3.16751e-12</wgt>
  <wgt id="55">3.16781e-12</wgt>
  <wgt id="56">3.17524e-12</wgt>
  <wgt id="57">3.16992e-12</wgt>
  <wgt id="58">3.15375e-12</wgt>
  <wgt id="59">3.1609e-12</wgt>
  <wgt id="60">3.1637e-12</wgt>
  <wgt id="61">3.14953e-12</wgt>
  <wgt id="62">3.15914e-12</wgt>
  <wgt id="63">3.16504e-12</wgt>
  <wgt id="64">3.1681e-12</wgt>
  <wgt id="65">3.169e-12</wgt>
  <wgt id="66">3.16422e-12</wgt>
  <wgt id="67">3.15435e-12</wgt>
  <wgt id="68">3.16603e-12</wgt>
  <wgt id="69">3.16676e-12</wgt>
  <wgt id="70">3.16644e-12</wgt>
  <wgt id="71">3.16474e-12</wgt>
  <wgt id="72">3.15645e-12</wgt>
  <wgt id="73">3.17491e-12</wgt>
  <wgt id="74">3.17099e-12</wgt>
  <wgt id="75">3.16619e-12</wgt>
  <wgt id="76">3.17955e-12</wgt>
  <wgt id="77">3.16513e-12</wgt>
  <wgt id="78">3.16559e-12</wgt>
  <wgt id="79">3.17655e-12</wgt>
  <wgt id="80">3.1506e-12</wgt>
  <wgt id="81">3.1669e-12</wgt>
  <wgt id="82">3.16835e-12</wgt>
  <wgt id="83">3.15336e-12</wgt>
  <wgt id="84">3.16255e-12</wgt>
  <wgt id="85">3.15912e-12</wgt>
  <wgt id="86">3.17793e-12</wgt>
  <wgt id="87">3.14723e-12</wgt>
  <wgt id="88">3.17184e-12</wgt>
  <wgt id="89">3.17026e-12</wgt>
  <wgt id="90">3.17678e-12</wgt>
  <wgt id="91">3.17115e-12</wgt>
  <wgt id="92">3.17464e-12</wgt>
  <wgt id="93">3.17114e-12</wgt>
  <wgt id="94">3.16377e-12</wgt>
  <wgt id="95">3.17608e-12</wgt>
  <wgt id="96">3.17157e-12</wgt>
  <wgt id="97">3.15931e-12</wgt>
  <wgt id="98">3.16896e-12</wgt>
  <wgt id="99">3.16018e-12</wgt>
  <wgt id="100">3.1741e-12</wgt>
  <wgt id="101">3.16873e-12</wgt>
  <wgt id="102">3.16557e-12</wgt>
  <wgt id="103">3.17406e-12</wgt>
  <wgt id="104">3.16488e-12</wgt>
  <wgt id="105">3.173e-12</wgt>
  <wgt id="106">3.16159e-12</wgt>
  <wgt id="107">3.1803e-12</wgt>
  <wgt id="108">3.16265e-12</wgt>
  <wgt id="109">3.17018e-12</wgt>
  <wgt id="110">3.167e-12</wgt>
  <wgt id="111">3.1901e-12</wgt>
  <wgt id="112">3.18297e-12</wgt>
  <wgt id="113">4.42386e-12</wgt>
  <wgt id="114">4.40833e-12</wgt>
  <wgt id="115">4.33979e-12</wgt>
  <wgt id="116">6.18776e-12</wgt>
  <wgt id="117">3.55578e-12</wgt>
  <wgt id="118">3.56935e-12</wgt>
  <wgt id="119">3.54806e-12</wgt>
  <wgt id="120">3.55599e-12</wgt>
  <wgt id="121">3.55562e-12</wgt>
  <wgt id="122">3.54982e-12</wgt>
  <wgt id="123">3.56396e-12</wgt>
  <wgt id="124">3.55092e-12</wgt>
  <wgt id="125">3.55888e-12</wgt>
  <wgt id="126">3.56235e-12</wgt>
  <wgt id="127">3.55143e-12</wgt>
  <wgt id="128">3.56678e-12</wgt>
  <wgt id="129">3.54481e-12</wgt>
  <wgt id="130">3.57589e-12</wgt>
  <wgt id="131">3.53514e-12</wgt>
  <wgt id="132">3.45907e-12</wgt>
  <wgt id="133">3.6709e-12</wgt>
  <wgt id="134">3.51605e-12</wgt>
  <wgt id="135">3.58691e-12</wgt>
  <wgt id="136">3.6062e-12</wgt>
  <wgt id="137">3.49501e-12</wgt>
  <wgt id="138">3.70689e-12</wgt>
  <wgt id="139">3.4111e-12</wgt>
  <wgt id="140">3.53468e-12</wgt>
  <wgt id="141">3.57218e-12</wgt>
  <wgt id="142">3.55581e-12</wgt>
  <wgt id="143">3.56329e-12</wgt>
  <wgt id="144">3.43157e-12</wgt>
  <wgt id="145">3.67379e-12</wgt>
  <wgt id="146">3.5956e-12</wgt>
  <wgt id="147">3.52386e-12</wgt>
  <wgt id="148">3.56806e-12</wgt>
  <wgt id="149">3.55491e-12</wgt>
  <wgt id="150">3.58708e-12</wgt>
  <wgt id="151">3.54112e-12</wgt>
  <wgt id="152">3.55741e-12</wgt>
  <wgt id="153">3.5552e-12</wgt>
  <wgt id="154">3.57639e-12</wgt>
  <wgt id="155">3.52867e-12</wgt>
  <wgt id="156">3.65016e-12</wgt>
  <wgt id="157">3.46417e-12</wgt>
  <wgt id="158">4.27192e-12</wgt>
  <wgt id="159">4.28977e-12</wgt>
  <wgt id="160">4.25732e-12</wgt>
  <wgt id="161">4.26032e-12</wgt>
  <wgt id="162">4.28446e-12</wgt>
  <wgt id="163">4.26668e-12</wgt>
  <wgt id="164">4.27912e-12</wgt>
  <wgt id="165">4.27325e-12</wgt>
  <wgt id="166">4.2705e-12</wgt>
  <wgt id="167">4.26883e-12</wgt>
  <wgt id="168">4.27606e-12</wgt>
  <wgt id="169">4.25392e-12</wgt>
  <wgt id="170">4.28297e-12</wgt>
  <wgt id="171">4.26704e-12</wgt>
  <wgt id="172">4.27821e-12</wgt>
  <wgt id="173">4.2685e-12</wgt>
  <wgt id="174">4.27283e-12</wgt>
  <wgt id="175">4.14598e-12</wgt>
  <wgt id="176">4.4362e-12</wgt>
  <wgt id="177">4.29516e-12</wgt>
  <wgt id="178">4.25049e-12</wgt>
  <wgt id="179">4.47126e-12</wgt>
  <wgt id="180">3.96032e-12</wgt>
  <wgt id="181">4.13639e-12</wgt>
  <wgt id="182">4.36176e-12</wgt>
  <wgt id="183">4.1894e-12</wgt>
  <wgt id="184">4.31265e-12</wgt>
  <wgt id="185">4.23175e-12</wgt>
  <wgt id="186">4.32103e-12</wgt>
  <wgt id="187">4.22935e-12</wgt>
  <wgt id="188">4.34787e-12</wgt>
  <wgt id="189">4.24083e-12</wgt>
  <wgt id="190">4.2844e-12</wgt>
  <wgt id="191">4.28507e-12</wgt>
  <wgt id="192">4.2638e-12</wgt>
  <wgt id="193">4.3392e-12</wgt>
  <wgt id="194">4.23829e-12</wgt>
  <wgt id="195">4.13802e-12</wgt>
  <wgt id="196">4.49684e-12</wgt>
  <wgt id="197">4.29471e-12</wgt>
  <wgt id="198">4.26631e-12</wgt>
  <wgt id="199">4.27192e-12</wgt>
  <wgt id="200">4.31122e-12</wgt>
  <wgt id="201">4.29711e-12</wgt>
  <wgt id="202">4.2838e-12</wgt>
  <wgt id="203">4.26354e-12</wgt>
  <wgt id="204">4.25391e-12</wgt>
  <wgt id="205">4.24579e-12</wgt>
  <wgt id="206">4.14098e-12</wgt>
  <wgt id="207">4.16566e-12</wgt>
  <wgt id="208">4.11662e-12</wgt>
  <wgt id="209">4.15495e-12</wgt>
  <wgt id="210">4.13083e-12</wgt>
  <wgt id="211">4.13933e-12</wgt>
  <wgt id="212">4.14231e-12</wgt>
  <wgt id="213">4.14064e-12</wgt>
  <wgt id="214">4.14158e-12</wgt>
  <wgt id="215">4.14438e-12</wgt>
  <wgt id="216">4.13857e-12</wgt>
  <wgt id="217">4.15267e-12</wgt>
  <wgt id="218">4.13201e-12</wgt>
  <wgt id="219">4.13735e-12</wgt>
  <wgt id="220">4.14324e-12</wgt>
  <wgt id="221">4.14026e-12</wgt>
  <wgt id="222">4.14225e-12</wgt>
  <wgt id="223">3.91e-12</wgt>
  <wgt id="224">4.35235e-12</wgt>
  <wgt id="225">4.08852e-12</wgt>
  <wgt id="226">4.20738e-12</wgt>
  <wgt id="227">4.10032e-12</wgt>
  <wgt id="228">4.1589e-12</wgt>
  <wgt id="229">4.08128e-12</wgt>
  <wgt id="230">4.17069e-12</wgt>
  <wgt id="231">4.27014e-12</wgt>
  <wgt id="232">4.0352e-12</wgt>
  <wgt id="233">4.11731e-12</wgt>
  <wgt id="234">4.17987e-12</wgt>
  <wgt id="235">4.01979e-12</wgt>
  <wgt id="236">4.245e-12</wgt>
  <wgt id="237">4.06544e-12</wgt>
  <wgt id="238">4.16632e-12</wgt>
  <wgt id="239">4.1095e-12</wgt>
  <wgt id="240">4.19763e-12</wgt>
  <wgt id="241">4.09449e-12</wgt>
  <wgt id="242">4.19692e-12</wgt>
  <wgt id="243">4.20629e-12</wgt>
  <wgt id="244">4.15289e-12</wgt>
  <wgt id="245">4.13876e-12</wgt>
  <wgt id="246">4.16847e-12</wgt>
  <wgt id="247">4.14098e-12</wgt>
  <wgt id="248">4.18054e-12</wgt>
  <wgt id="249">4.16619e-12</wgt>
  <wgt id="250">4.15203e-12</wgt>
  <wgt id="251">4.13162e-12</wgt>
  <wgt id="252">4.12181e-12</wgt>
  <wgt id="253">4.11484e-12</wgt>
  <wgt id="254">4.03729e-12</wgt>
  <wgt id="255">4.04124e-12</wgt>
  <wgt id="256">4.03314e-12</wgt>
  <wgt id="257">4.04035e-12</wgt>
  <wgt id="258">4.03513e-12</wgt>
  <wgt id="259">4.06447e-12</wgt>
  <wgt id="260">4.01112e-12</wgt>
  <wgt id="261">4.04444e-12</wgt>
  <wgt id="262">4.02888e-12</wgt>
  <wgt id="263">4.03491e-12</wgt>
  <wgt id="264">4.04016e-12</wgt>
  <wgt id="265">4.03215e-12</wgt>
  <wgt id="266">4.04767e-12</wgt>
  <wgt id="267">4.03878e-12</wgt>
  <wgt id="268">4.03535e-12</wgt>
  <wgt id="269">4.05108e-12</wgt>
  <wgt id="270">4.02797e-12</wgt>
  <wgt id="271">4.02912e-12</wgt>
  <wgt id="272">4.0464e-12</wgt>
  <wgt id="273">4.02498e-12</wgt>
  <wgt id="274">4.0468e-12</wgt>
  <wgt id="275">4.01726e-12</wgt>
  <wgt id="276">4.05806e-12</wgt>
  <wgt id="277">4.01335e-12</wgt>
  <wgt id="278">4.05923e-12</wgt>
  <wgt id="279">3.95739e-12</wgt>
  <wgt id="280">4.13784e-12</wgt>
  <wgt id="281">4.01828e-12</wgt>
  <wgt id="282">4.03979e-12</wgt>
  <wgt id="283">3.91251e-12</wgt>
  <wgt id="284">4.19182e-12</wgt>
  <wgt id="285">3.83144e-12</wgt>
  <wgt id="286">4.20925e-12</wgt>
  <wgt id="287">4.05089e-12</wgt>
  <wgt id="288">4.02e-12</wgt>
  <wgt id="289">4.06796e-12</wgt>
  <wgt id="290">3.96752e-12</wgt>
  <wgt id="291">4.02399e-12</wgt>
  <wgt id="292">4.03949e-12</wgt>
  <wgt id="293">4.00389e-12</wgt>
  <wgt id="294">4.07064e-12</wgt>
  <wgt id="295">3.95598e-12</wgt>
  <wgt id="296">4.13683e-12</wgt>
  <wgt id="297">4.03294e-12</wgt>
  <wgt id="298">4.05572e-12</wgt>
  <wgt id="299">4.02362e-12</wgt>
  <wgt id="300">4.07388e-12</wgt>
  <wgt id="301">3.96647e-12</wgt>
  <wgt id="302">4.20593e-12</wgt>
  <wgt id="303">3.99951e-12</wgt>
  <wgt id="304">4.05881e-12</wgt>
  <wgt id="305">4.03154e-12</wgt>
  <wgt id="306">4.03555e-12</wgt>
  <wgt id="307">4.02723e-12</wgt>
  <wgt id="308">4.03484e-12</wgt>
  <wgt id="309">4.02933e-12</wgt>
  <wgt id="310">4.05954e-12</wgt>
  <wgt id="311">4.00562e-12</wgt>
  <wgt id="312">4.03762e-12</wgt>
  <wgt id="313">4.02508e-12</wgt>
  <wgt id="314">4.02911e-12</wgt>
  <wgt id="315">4.03386e-12</wgt>
  <wgt id="316">4.02652e-12</wgt>
  <wgt id="317">4.04249e-12</wgt>
  <wgt id="318">4.0347e-12</wgt>
  <wgt id="319">4.02605e-12</wgt>
  <wgt id="320">4.04613e-12</wgt>
  <wgt id="321">4.02344e-12</wgt>
  <wgt id="322">4.02167e-12</wgt>
  <wgt id="323">4.04302e-12</wgt>
  <wgt id="324">4.02139e-12</wgt>
  <wgt id="325">4.04037e-12</wgt>
  <wgt id="326">4.0154e-12</wgt>
  <wgt id="327">4.05226e-12</wgt>
  <wgt id="328">4.01033e-12</wgt>
  <wgt id="329">4.04335e-12</wgt>
  <wgt id="330">4.1532e-12</wgt>
  <wgt id="331">3.9157e-12</wgt>
  <wgt id="332">4.01567e-12</wgt>
  <wgt id="333">4.03278e-12</wgt>
  <wgt id="334">3.93455e-12</wgt>
  <wgt id="335">4.15246e-12</wgt>
  <wgt id="336">3.88319e-12</wgt>
  <wgt id="337">4.21353e-12</wgt>
  <wgt id="338">4.07913e-12</wgt>
  <wgt id="339">3.98751e-12</wgt>
  <wgt id="340">4.06003e-12</wgt>
  <wgt id="341">3.95953e-12</wgt>
  <wgt id="342">4.02182e-12</wgt>
  <wgt id="343">4.02649e-12</wgt>
  <wgt id="344">4.0015e-12</wgt>
  <wgt id="345">4.06642e-12</wgt>
  <wgt id="346">3.94734e-12</wgt>
  <wgt id="347">4.12844e-12</wgt>
  <wgt id="348">4.02829e-12</wgt>
  <wgt id="349">4.04753e-12</wgt>
  <wgt id="350">4.01438e-12</wgt>
  <wgt id="351">4.0751e-12</wgt>
  <wgt id="352">3.95545e-12</wgt>
  <wgt id="353">4.20332e-12</wgt>
  <wgt id="354">3.975e-12</wgt>
  <wgt id="355">4.06549e-12</wgt>
  <wgt id="356">4.03729e-12</wgt>
  <wgt id="357">4.04306e-12</wgt>
  <wgt id="358">4.03154e-12</wgt>
  <wgt id="359">4.04611e-12</wgt>
  <wgt id="360">4.08139e-12</wgt>
  <wgt id="361">4.05368e-12</wgt>
  <wgt id="362">4.13008e-12</wgt>
  <wgt id="363">4.11959e-12</wgt>
  <wgt id="364">4.10268e-12</wgt>
  <wgt id="365">4.08781e-12</wgt>
  <wgt id="366">4.07174e-12</wgt>
  <wgt id="367">4.03958e-12</wgt>
  <wgt id="368">4.02098e-12</wgt>
  <wgt id="369">4.00098e-12</wgt>
  <wgt id="370">4.05368e-12</wgt>
  <wgt id="371">4.07156e-12</wgt>
  <wgt id="372">4.0617e-12</wgt>
  <wgt id="373">4.04711e-12</wgt>
  <wgt id="374">4.04814e-12</wgt>
  <wgt id="375">4.43537e-12</wgt>
  <wgt id="376">4.43598e-12</wgt>
  <wgt id="377">4.43471e-12</wgt>
  <wgt id="378">4.45187e-12</wgt>
  <wgt id="379">4.41921e-12</wgt>
  <wgt id="380">4.44741e-12</wgt>
  <wgt id="381">4.4307e-12</wgt>
  <wgt id="382">4.45913e-12</wgt>
  <wgt id="383">4.41203e-12</wgt>
  <wgt id="384">4.43837e-12</wgt>
  <wgt id="385">4.43248e-12</wgt>
  <wgt id="386">4.45336e-12</wgt>
  <wgt id="387">4.42783e-12</wgt>
  <wgt id="388">4.4311e-12</wgt>
  <wgt id="389">4.44079e-12</wgt>
  <wgt id="390">4.44752e-12</wgt>
  <wgt id="391">4.42273e-12</wgt>
  <wgt id="392">4.39715e-12</wgt>
  <wgt id="393">4.45734e-12</wgt>
  <wgt id="394">4.44084e-12</wgt>
  <wgt id="395">4.42815e-12</wgt>
  <wgt id="396">4.4409e-12</wgt>
  <wgt id="397">4.43167e-12</wgt>
  <wgt id="398">4.41826e-12</wgt>
  <wgt id="399">4.45208e-12</wgt>
  <wgt id="400">4.42769e-12</wgt>
  <wgt id="401">4.45317e-12</wgt>
  <wgt id="402">4.39612e-12</wgt>
  <wgt id="403">4.45558e-12</wgt>
  <wgt id="404">4.55021e-12</wgt>
  <wgt id="405">4.16045e-12</wgt>
  <wgt id="406">4.3534e-12</wgt>
  <wgt id="407">4.61566e-12</wgt>
  <wgt id="408">4.47802e-12</wgt>
  <wgt id="409">4.35519e-12</wgt>
  <wgt id="410">4.30144e-12</wgt>
  <wgt id="411">4.49861e-12</wgt>
  <wgt id="412">4.42652e-12</wgt>
  <wgt id="413">4.44931e-12</wgt>
  <wgt id="414">4.38183e-12</wgt>
  <wgt id="415">4.47705e-12</wgt>
  <wgt id="416">4.56981e-12</wgt>
  <wgt id="417">4.25024e-12</wgt>
  <wgt id="418">4.44249e-12</wgt>
  <wgt id="419">4.39731e-12</wgt>
  <wgt id="420">4.52294e-12</wgt>
  <wgt id="421">4.38097e-12</wgt>
  <wgt id="422">4.41972e-12</wgt>
  <wgt id="423">4.4435e-12</wgt>
  <wgt id="424">4.54611e-12</wgt>
  <wgt id="425">4.36321e-12</wgt>
  <wgt id="426">4.43537e-12</wgt>
  <wgt id="427">4.37731e-12</wgt>
  <wgt id="428">4.58729e-12</wgt>
  <wgt id="429">4.48489e-12</wgt>
  <wgt id="430">4.62131e-12</wgt>
  <wgt id="431">4.594e-12</wgt>
  <wgt id="432">4.56844e-12</wgt>
  <wgt id="433">4.54357e-12</wgt>
  <wgt id="434">4.51279e-12</wgt>
  <wgt id="435">4.45016e-12</wgt>
  <wgt id="436">4.41843e-12</wgt>
  <wgt id="437">4.3877e-12</wgt>
  <wgt id="438">4.48489e-12</wgt>
  <wgt id="439">4.49941e-12</wgt>
  <wgt id="440">4.49058e-12</wgt>
  <wgt id="441">4.4806e-12</wgt>
  <wgt id="442">4.47725e-12</wgt>
  <wgt id="443">4.23689e-12</wgt>
  <wgt id="444">4.26903e-12</wgt>
  <wgt id="445">4.23694e-12</wgt>
  <wgt id="446">4.20733e-12</wgt>
  <wgt id="447">4.22727e-12</wgt>
  <wgt id="448">4.12238e-12</wgt>
  <wgt id="449">4.31158e-12</wgt>
  <wgt id="450">4.2446e-12</wgt>
  <wgt id="451">4.22753e-12</wgt>
  <wgt id="452">4.33759e-12</wgt>
  <wgt id="453">4.2829e-12</wgt>
  <wgt id="454">4.04651e-12</wgt>
  <wgt id="455">4.25155e-12</wgt>
  <wgt id="456">4.24479e-12</wgt>
  <wgt id="457">4.25479e-12</wgt>
  <wgt id="458">4.29595e-12</wgt>
  <wgt id="459">4.27056e-12</wgt>
  <wgt id="460">4.28e-12</wgt>
  <wgt id="461">4.14491e-12</wgt>
  <wgt id="462">4.20052e-12</wgt>
  <wgt id="463">4.1804e-12</wgt>
  <wgt id="464">4.21209e-12</wgt>
  <wgt id="465">4.28599e-12</wgt>
  <wgt id="466">4.16944e-12</wgt>
  <wgt id="467">4.19458e-12</wgt>
  <wgt id="468">4.22637e-12</wgt>
  <wgt id="469">4.22437e-12</wgt>
  <wgt id="470">4.18811e-12</wgt>
  <wgt id="471">4.19188e-12</wgt>
  <wgt id="472">4.2606e-12</wgt>
  <wgt id="473">4.0882e-12</wgt>
  <wgt id="474">3.0282e-12</wgt>
  <wgt id="475">3.13069e-12</wgt>
  <wgt id="476">2.97886e-12</wgt>
  <wgt id="477">2.97431e-12</wgt>
  <wgt id="478">3.04929e-12</wgt>
  <wgt id="479">2.93942e-12</wgt>
  <wgt id="480">3.16025e-12</wgt>
  <wgt id="481">3.01044e-12</wgt>
  <wgt id="482">2.966e-12</wgt>
  <wgt id="483">2.96271e-12</wgt>
  <wgt id="484">3.16271e-12</wgt>
  <wgt id="485">2.93935e-12</wgt>
  <wgt id="486">3.15532e-12</wgt>
  <wgt id="487">3.04752e-12</wgt>
  <wgt id="488">3.07976e-12</wgt>
  <wgt id="489">2.86021e-12</wgt>
  <wgt id="490">2.90708e-12</wgt>
  <wgt id="491">2.99894e-12</wgt>
  <wgt id="492">2.95779e-12</wgt>
  <wgt id="493">2.88141e-12</wgt>
  <wgt id="494">2.90771e-12</wgt>
  <wgt id="495">3.06833e-12</wgt>
  <wgt id="496">2.92147e-12</wgt>
  <wgt id="497">2.88173e-12</wgt>
  <wgt id="498">3.10261e-12</wgt>
  <wgt id="499">2.99009e-12</wgt>
  <wgt id="500">2.9682e-12</wgt>
  <wgt id="501">3.16759e-12</wgt>
  <wgt id="502">3.01607e-12</wgt>
  <wgt id="503">3.01762e-12</wgt>
  <wgt id="504">3.09521e-12</wgt>
  <wgt id="505">3.05681e-12</wgt>
  <wgt id="506">2.99309e-12</wgt>
  <wgt id="507">3.01988e-12</wgt>
  <wgt id="508">3.12102e-12</wgt>
  <wgt id="509">2.87507e-12</wgt>
  <wgt id="510">3.11035e-12</wgt>
  <wgt id="511">2.93704e-12</wgt>
  <wgt id="512">3.13417e-12</wgt>
  <wgt id="513">3.17054e-12</wgt>
  <wgt id="514">3.07036e-12</wgt>
  <wgt id="515">3.02105e-12</wgt>
  <wgt id="516">3.19984e-12</wgt>
  <wgt id="517">3.09643e-12</wgt>
  <wgt id="518">3.10785e-12</wgt>
  <wgt id="519">2.92277e-12</wgt>
  <wgt id="520">3.08608e-12</wgt>
  <wgt id="521">3.08197e-12</wgt>
  <wgt id="522">3.159e-12</wgt>
  <wgt id="523">3.01294e-12</wgt>
  <wgt id="524">3.04159e-12</wgt>
  <wgt id="525">3.10064e-12</wgt>
  <wgt id="526">3.09214e-12</wgt>
  <wgt id="527">3.04274e-12</wgt>
  <wgt id="528">3.05163e-12</wgt>
  <wgt id="529">2.95924e-12</wgt>
  <wgt id="530">3.11172e-12</wgt>
  <wgt id="531">2.96815e-12</wgt>
  <wgt id="532">3.23882e-12</wgt>
  <wgt id="533">2.90148e-12</wgt>
  <wgt id="534">3.00768e-12</wgt>
  <wgt id="535">3.04642e-12</wgt>
  <wgt id="536">3.03695e-12</wgt>
  <wgt id="537">2.99289e-12</wgt>
  <wgt id="538">3.04137e-12</wgt>
  <wgt id="539">2.97019e-12</wgt>
  <wgt id="540">3.04142e-12</wgt>
  <wgt id="541">2.95e-12</wgt>
  <wgt id="542">2.99144e-12</wgt>
  <wgt id="543">2.99539e-12</wgt>
  <wgt id="544">3.14231e-12</wgt>
  <wgt id="545">2.95293e-12</wgt>
  <wgt id="546">2.92207e-12</wgt>
  <wgt id="547">2.94102e-12</wgt>
  <wgt id="548">2.90585e-12</wgt>
  <wgt id="549">2.97085e-12</wgt>
  <wgt id="550">2.96953e-12</wgt>
  <wgt id="551">3.06098e-12</wgt>
  <wgt id="552">2.91479e-12</wgt>
  <wgt id="553">2.97032e-12</wgt>
  <wgt id="554">3.23498e-12</wgt>
  <wgt id="555">3.10615e-12</wgt>
  <wgt id="556">2.90708e-12</wgt>
  <wgt id="557">3.10164e-12</wgt>
  <wgt id="558">2.95574e-12</wgt>
  <wgt id="559">2.97623e-12</wgt>
  <wgt id="560">3.33031e-12</wgt>
  <wgt id="561">3.01172e-12</wgt>
  <wgt id="562">3.11128e-12</wgt>
  <wgt id="563">3.07938e-12</wgt>
  <wgt id="564">3.10144e-12</wgt>
  <wgt id="565">2.96636e-12</wgt>
  <wgt id="566">3.05112e-12</wgt>
  <wgt id="567">3.00237e-12</wgt>
  <wgt id="568">2.98913e-12</wgt>
  <wgt id="569">3.07159e-12</wgt>
  <wgt id="570">2.90027e-12</wgt>
  <wgt id="571">3.36224e-12</wgt>
  <wgt id="572">2.95591e-12</wgt>
  <wgt id="573">2.91666e-12</wgt>
  <wgt id="574">2.93176e-12</wgt>
  <wgt id="575">3.35495e-12</wgt>
  <wgt id="576">3.44294e-12</wgt>
  <wgt id="577">3.4496e-12</wgt>
  <wgt id="578">3.45292e-12</wgt>
  <wgt id="579">3.45394e-12</wgt>
  <wgt id="580">3.48654e-12</wgt>
  <wgt id="581">3.6307e-12</wgt>
  <wgt id="582">3.42217e-12</wgt>
  <wgt id="583">3.39524e-12</wgt>
  <wgt id="584">3.34368e-12</wgt>
  <wgt id="585">3.27328e-12</wgt>
  <wgt id="586">3.23445e-12</wgt>
  <wgt id="587">3.41042e-12</wgt>
  <wgt id="588">3.42282e-12</wgt>
  <wgt id="589">3.50743e-12</wgt>
  <wgt id="590">3.37343e-12</wgt>
  <wgt id="591">3.46762e-12</wgt>
  <wgt id="592">3.17442e-12</wgt>
  <wgt id="593">3.31357e-12</wgt>
  <wgt id="594">3.38837e-12</wgt>
  <wgt id="595">3.39719e-12</wgt>
  <wgt id="596">3.54329e-12</wgt>
  <wgt id="597">3.31508e-12</wgt>
  <wgt id="598">3.23999e-12</wgt>
  <wgt id="599">3.52199e-12</wgt>
  <wgt id="600">3.3866e-12</wgt>
  <wgt id="601">3.24563e-12</wgt>
  <wgt id="602">3.25883e-12</wgt>
  <wgt id="603">3.23741e-12</wgt>
  <wgt id="604">3.4144e-12</wgt>
  <wgt id="605">3.46131e-12</wgt>
  <wgt id="606">3.34405e-12</wgt>
  <wgt id="607">3.37521e-12</wgt>
  <wgt id="608">3.43436e-12</wgt>
  <wgt id="609">3.22735e-12</wgt>
  <wgt id="610">3.23232e-12</wgt>
  <wgt id="611">3.32032e-12</wgt>
  <wgt id="612">3.56499e-12</wgt>
  <wgt id="613">3.287e-12</wgt>
  <wgt id="614">3.371e-12</wgt>
  <wgt id="615">3.32239e-12</wgt>
  <wgt id="616">3.43099e-12</wgt>
  <wgt id="617">3.48812e-12</wgt>
  <wgt id="618">3.56623e-12</wgt>
  <wgt id="619">3.29565e-12</wgt>
  <wgt id="620">3.49868e-12</wgt>
  <wgt id="621">3.36118e-12</wgt>
  <wgt id="622">3.41042e-12</wgt>
  <wgt id="623">3.42898e-12</wgt>
  <wgt id="624">3.36744e-12</wgt>
  <wgt id="625">3.27134e-12</wgt>
  <wgt id="626">3.18609e-12</wgt>
  <wgt id="627">3.15791e-12</wgt>
  <wgt id="628">3.48206e-12</wgt>
  <wgt id="629">3.30843e-12</wgt>
  <wgt id="630">3.25265e-12</wgt>
  <wgt id="631">3.39539e-12</wgt>
  <wgt id="632">3.15851e-12</wgt>
  <wgt id="633">3.32991e-12</wgt>
  <wgt id="634">3.28866e-12</wgt>
  <wgt id="635">3.1804e-12</wgt>
  <wgt id="636">3.38939e-12</wgt>
  <wgt id="637">3.35399e-12</wgt>
  <wgt id="638">3.2188e-12</wgt>
  <wgt id="639">3.27662e-12</wgt>
  <wgt id="640">3.33137e-12</wgt>
  <wgt id="641">3.43384e-12</wgt>
  <wgt id="642">3.27155e-12</wgt>
  <wgt id="643">3.31215e-12</wgt>
  <wgt id="644">3.10168e-12</wgt>
  <wgt id="645">3.37528e-12</wgt>
  <wgt id="646">3.29179e-12</wgt>
  <wgt id="647">3.33428e-12</wgt>
  <wgt id="648">3.421e-12</wgt>
  <wgt id="649">3.38986e-12</wgt>
  <wgt id="650">3.24744e-12</wgt>
  <wgt id="651">3.45696e-12</wgt>
  <wgt id="652">3.2848e-12</wgt>
  <wgt id="653">3.2473e-12</wgt>
  <wgt id="654">3.32701e-12</wgt>
  <wgt id="655">3.28572e-12</wgt>
  <wgt id="656">3.37145e-12</wgt>
  <wgt id="657">3.56851e-12</wgt>
  <wgt id="658">3.37564e-12</wgt>
  <wgt id="659">3.21895e-12</wgt>
  <wgt id="660">3.36636e-12</wgt>
  <wgt id="661">3.28989e-12</wgt>
  <wgt id="662">3.32728e-12</wgt>
  <wgt id="663">3.37802e-12</wgt>
  <wgt id="664">3.33255e-12</wgt>
  <wgt id="665">3.3421e-12</wgt>
  <wgt id="666">3.30395e-12</wgt>
  <wgt id="667">3.48797e-12</wgt>
  <wgt id="668">3.34658e-12</wgt>
  <wgt id="669">3.4103e-12</wgt>
  <wgt id="670">3.46766e-12</wgt>
  <wgt id="671">3.35106e-12</wgt>
  <wgt id="672">3.21685e-12</wgt>
  <wgt id="673">3.43551e-12</wgt>
  <wgt id="674">3.27738e-12</wgt>
  <wgt id="675">3.29418e-12</wgt>
  <wgt id="676">4.30682e-12</wgt>
  <wgt id="677">4.35229e-12</wgt>
  <wgt id="678">4.58637e-12</wgt>
  <wgt id="679">4.10564e-12</wgt>
  <wgt id="680">4.27247e-12</wgt>
  <wgt id="681">4.32297e-12</wgt>
  <wgt id="682">4.47722e-12</wgt>
  <wgt id="683">4.16518e-12</wgt>
  <wgt id="684">4.51203e-12</wgt>
  <wgt id="685">4.15667e-12</wgt>
  <wgt id="686">4.19065e-12</wgt>
  <wgt id="687">4.51645e-12</wgt>
  <wgt id="688">4.2264e-12</wgt>
  <wgt id="689">4.61536e-12</wgt>
  <wgt id="690">4.47919e-12</wgt>
  <wgt id="691">4.50444e-12</wgt>
  <wgt id="692">4.23389e-12</wgt>
  <wgt id="693">5.30084e-12</wgt>
  <wgt id="694">4.6311e-12</wgt>
  <wgt id="695">4.13557e-12</wgt>
  <wgt id="696">4.09708e-12</wgt>
  <wgt id="697">4.07617e-12</wgt>
  <wgt id="698">3.78837e-12</wgt>
  <wgt id="699">3.79173e-12</wgt>
  <wgt id="700">3.7425e-12</wgt>
  <wgt id="701">4.31817e-12</wgt>
  <wgt id="702">4.1986e-12</wgt>
  <wgt id="703">5.09466e-12</wgt>
  <wgt id="704">4.79531e-12</wgt>
  <wgt id="705">4.64811e-12</wgt>
  <wgt id="706">4.0256e-12</wgt>
  <wgt id="707">4.09762e-12</wgt>
  <wgt id="708">4.21835e-12</wgt>
  <wgt id="709">4.21319e-12</wgt>
  <wgt id="710">3.84082e-12</wgt>
  <wgt id="711">4.33316e-12</wgt>
  <wgt id="712">4.15487e-12</wgt>
  <wgt id="713">4.66279e-12</wgt>
  <wgt id="714">4.10119e-12</wgt>
  <wgt id="715">4.21039e-12</wgt>
  <wgt id="716">4.15201e-12</wgt>
  <wgt id="717">3.96806e-12</wgt>
  <wgt id="718">4.35307e-12</wgt>
  <wgt id="719">3.89108e-12</wgt>
  <wgt id="720">4.15375e-12</wgt>
  <wgt id="721">3.80629e-12</wgt>
  <wgt id="722">3.6544e-12</wgt>
  <wgt id="723">4.68874e-12</wgt>
  <wgt id="724">4.57756e-12</wgt>
  <wgt id="725">4.52947e-12</wgt>
  <wgt id="726">4.32486e-12</wgt>
  <wgt id="727">4.24383e-12</wgt>
  <wgt id="728">4.17568e-12</wgt>
  <wgt id="729">4.05973e-12</wgt>
  <wgt id="730">4.72223e-12</wgt>
  <wgt id="731">4.2384e-12</wgt>
  <wgt id="732">4.84872e-12</wgt>
  <wgt id="733">4.19016e-12</wgt>
  <wgt id="734">4.42905e-12</wgt>
  <wgt id="735">4.31532e-12</wgt>
  <wgt id="736">4.13615e-12</wgt>
  <wgt id="737">4.30107e-12</wgt>
  <wgt id="738">4.07936e-12</wgt>
  <wgt id="739">4.52356e-12</wgt>
  <wgt id="740">4.89548e-12</wgt>
  <wgt id="741">4.01357e-12</wgt>
  <wgt id="742">4.24339e-12</wgt>
  <wgt id="743">4.01441e-12</wgt>
  <wgt id="744">4.22195e-12</wgt>
  <wgt id="745">4.58281e-12</wgt>
  <wgt id="746">4.68945e-12</wgt>
  <wgt id="747">3.75772e-12</wgt>
  <wgt id="748">4.22543e-12</wgt>
  <wgt id="749">4.50544e-12</wgt>
  <wgt id="750">4.51784e-12</wgt>
  <wgt id="751">4.39521e-12</wgt>
  <wgt id="752">3.91022e-12</wgt>
  <wgt id="753">3.99956e-12</wgt>
  <wgt id="754">4.51042e-12</wgt>
  <wgt id="755">4.2844e-12</wgt>
  <wgt id="756">4.28106e-12</wgt>
  <wgt id="757">3.87309e-12</wgt>
  <wgt id="758">4.28399e-12</wgt>
  <wgt id="759">4.57928e-12</wgt>
  <wgt id="760">4.27686e-12</wgt>
  <wgt id="761">4.61093e-12</wgt>
  <wgt id="762">4.64584e-12</wgt>
  <wgt id="763">4.30179e-12</wgt>
  <wgt id="764">4.52475e-12</wgt>
  <wgt id="765">4.35995e-12</wgt>
  <wgt id="766">4.32184e-12</wgt>
  <wgt id="767">4.41222e-12</wgt>
  <wgt id="768">4.00241e-12</wgt>
  <wgt id="769">4.57693e-12</wgt>
  <wgt id="770">4.15576e-12</wgt>
  <wgt id="771">5.19103e-12</wgt>
  <wgt id="772">4.11578e-12</wgt>
  <wgt id="773">4.27401e-12</wgt>
  <wgt id="774">3.62814e-12</wgt>
  <wgt id="775">4.53428e-12</wgt>
  <wgt id="776">4.77476e-12</wgt>
  <wgt id="777">3.97746e-12</wgt>
  <wgt id="778">3.0376e-12</wgt>
  <wgt id="779">2.27191e-12</wgt>
  <wgt id="780">1.6614e-12</wgt>
  <wgt id="781">3.39623e-12</wgt>
  <wgt id="782">3.4017e-12</wgt>
  <wgt id="783">2.2405e-12</wgt>
  <wgt id="784">2.46853e-12</wgt>
  <wgt id="785">4.0547e-12</wgt>
  <wgt id="786">2.13925e-12</wgt>
  <wgt id="787">3.64446e-12</wgt>
  <wgt id="788">1.45002e-12</wgt>
  <wgt id="789">2.34565e-12</wgt>
  <wgt id="790">2.0976e-12</wgt>
  <wgt id="791">3.08135e-12</wgt>
  <wgt id="792">4.03321e-12</wgt>
  <wgt id="793">2.97132e-12</wgt>
  <wgt id="794">2.0324e-12</wgt>
  <wgt id="795">3.82695e-12</wgt>
  <wgt id="796">4.11865e-12</wgt>
  <wgt id="797">3.75815e-12</wgt>
  <wgt id="798">2.61482e-12</wgt>
  <wgt id="799">3.59816e-12</wgt>
  <wgt id="800">2.42716e-12</wgt>
  <wgt id="801">2.79647e-12</wgt>
  <wgt id="802">2.00607e-12</wgt>
  <wgt id="803">4.47015e-12</wgt>
  <wgt id="804">3.79761e-12</wgt>
  <wgt id="805">3.81265e-12</wgt>
  <wgt id="806">3.32455e-12</wgt>
  <wgt id="807">2.88931e-12</wgt>
  <wgt id="808">2.91435e-12</wgt>
  <wgt id="809">2.7713e-12</wgt>
  <wgt id="810">3.40513e-12</wgt>
  <wgt id="811">3.28932e-12</wgt>
  <wgt id="812">2.08338e-12</wgt>
  <wgt id="813">2.2084e-12</wgt>
  <wgt id="814">2.41913e-12</wgt>
  <wgt id="815">2.24377e-12</wgt>
  <wgt id="816">2.08855e-12</wgt>
  <wgt id="817">3.1276e-12</wgt>
  <wgt id="818">3.36414e-12</wgt>
  <wgt id="819">2.26118e-12</wgt>
  <wgt id="820">2.97891e-12</wgt>
  <wgt id="821">3.60441e-12</wgt>
  <wgt id="822">2.40527e-12</wgt>
  <wgt id="823">3.6856e-12</wgt>
  <wgt id="824">4.40139e-12</wgt>
  <wgt id="825">1.95106e-12</wgt>
  <wgt id="826">3.43747e-12</wgt>
  <wgt id="827">1.60812e-12</wgt>
  <wgt id="828">3.90101e-12</wgt>
  <wgt id="829">3.16752e-12</wgt>
  <wgt id="830">1.83729e-12</wgt>
  <wgt id="831">3.39691e-12</wgt>
  <wgt id="832">5.23396e-12</wgt>
  <wgt id="833">2.65103e-12</wgt>
  <wgt id="834">4.97592e-12</wgt>
  <wgt id="835">2.34032e-12</wgt>
  <wgt id="836">2.81982e-12</wgt>
  <wgt id="837">3.53823e-12</wgt>
  <wgt id="838">2.73185e-12</wgt>
  <wgt id="839">3.36652e-12</wgt>
  <wgt id="840">2.7112e-12</wgt>
  <wgt id="841">4.01997e-12</wgt>
  <wgt id="842">2.79425e-12</wgt>
  <wgt id="843">3.12538e-12</wgt>
  <wgt id="844">3.25884e-12</wgt>
  <wgt id="845">4.74693e-12</wgt>
  <wgt id="846">3.0721e-12</wgt>
  <wgt id="847">3.14523e-12</wgt>
  <wgt id="848">2.32319e-12</wgt>
  <wgt id="849">3.1814e-12</wgt>
  <wgt id="850">4.29026e-12</wgt>
  <wgt id="851">3.44098e-12</wgt>
  <wgt id="852">2.21627e-12</wgt>
  <wgt id="853">3.51436e-12</wgt>
  <wgt id="854">3.9311e-12</wgt>
  <wgt id="855">3.67185e-12</wgt>
  <wgt id="856">1.86388e-12</wgt>
  <wgt id="857">2.89676e-12</wgt>
  <wgt id="858">2.88774e-12</wgt>
  <wgt id="859">2.85126e-12</wgt>
  <wgt id="860">3.55596e-12</wgt>
  <wgt id="861">2.58478e-12</wgt>
  <wgt id="862">3.10055e-12</wgt>
  <wgt id="863">3.35261e-12</wgt>
  <wgt id="864">3.21907e-12</wgt>
  <wgt id="865">4.67188e-12</wgt>
  <wgt id="866">5.13738e-12</wgt>
  <wgt id="867">3.12947e-12</wgt>
  <wgt id="868">3.07056e-12</wgt>
  <wgt id="869">2.10736e-12</wgt>
  <wgt id="870">2.28686e-12</wgt>
  <wgt id="871">2.21814e-12</wgt>
  <wgt id="872">3.94723e-12</wgt>
  <wgt id="873">2.46363e-12</wgt>
  <wgt id="874">3.28583e-12</wgt>
  <wgt id="875">2.53053e-12</wgt>
  <wgt id="876">3.89222e-12</wgt>
  <wgt id="877">3.53275e-12</wgt>
  <wgt id="878">2.45592e-12</wgt>
  <wgt id="879">4.30682e-12</wgt>
  <wgt id="880">4.35229e-12</wgt>
  <wgt id="881">4.58637e-12</wgt>
  <wgt id="882">4.10564e-12</wgt>
  <wgt id="883">4.27247e-12</wgt>
  <wgt id="884">4.32297e-12</wgt>
  <wgt id="885">4.47722e-12</wgt>
  <wgt id="886">4.16518e-12</wgt>
  <wgt id="887">4.51203e-12</wgt>
  <wgt id="888">4.15667e-12</wgt>
  <wgt id="889">4.19065e-12</wgt>
  <wgt id="890">4.51645e-12</wgt>
  <wgt id="891">4.2264e-12</wgt>
  <wgt id="892">4.61536e-12</wgt>
  <wgt id="893">4.47919e-12</wgt>
  <wgt id="894">4.50444e-12</wgt>
  <wgt id="895">4.23389e-12</wgt>
  <wgt id="896">5.30084e-12</wgt>
  <wgt id="897">4.6311e-12</wgt>
  <wgt id="898">4.13557e-12</wgt>
  <wgt id="899">4.09708e-12</wgt>
  <wgt id="900">4.07617e-12</wgt>
  <wgt id="901">3.78837e-12</wgt>
  <wgt id="902">3.79173e-12</wgt>
  <wgt id="903">3.7425e-12</wgt>
  <wgt id="904">4.31817e-12</wgt>
  <wgt id="905">4.1986e-12</wgt>
  <wgt id="906">5.09466e-12</wgt>
  <wgt id="907">4.79531e-12</wgt>
  <wgt id="908">4.64811e-12</wgt>
  <wgt id="909">4.0256e-12</wgt>
  <wgt id="910">4.09762e-12</wgt>
  <wgt id="911">4.21835e-12</wgt>
  <wgt id="912">4.21319e-12</wgt>
  <wgt id="913">3.84082e-12</wgt>
  <wgt id="914">4.33316e-12</wgt>
  <wgt id="915">4.15487e-12</wgt>
  <wgt id="916">4.66279e-12</wgt>
  <wgt id="917">4.10119e-12</wgt>
  <wgt id="918">4.21039e-12</wgt>
  <wgt id="919">4.15201e-12</wgt>
  <wgt id="920">3.96806e-12</wgt>
  <wgt id="921">4.35307e-12</wgt>
  <wgt id="922">3.89108e-12</wgt>
  <wgt id="923">4.15375e-12</wgt>
  <wgt id="924">3.80629e-12</wgt>
  <wgt id="925">3.6544e-12</wgt>
  <wgt id="926">4.68874e-12</wgt>
  <wgt id="927">4.57756e-12</wgt>
  <wgt id="928">4.52947e-12</wgt>
  <wgt id="929">4.32486e-12</wgt>
  <wgt id="930">4.24383e-12</wgt>
  <wgt id="931">4.17568e-12</wgt>
  <wgt id="932">4.05973e-12</wgt>
  <wgt id="933">4.72223e-12</wgt>
  <wgt id="934">4.2384e-12</wgt>
  <wgt id="935">4.84872e-12</wgt>
  <wgt id="936">4.19016e-12</wgt>
  <wgt id="937">4.42905e-12</wgt>
  <wgt id="938">4.31532e-12</wgt>
  <wgt id="939">4.13615e-12</wgt>
  <wgt id="940">4.30107e-12</wgt>
  <wgt id="941">4.07936e-12</wgt>
  <wgt id="942">4.52356e-12</wgt>
  <wgt id="943">4.89548e-12</wgt>
  <wgt id="944">4.01357e-12</wgt>
  <wgt id="945">4.24339e-12</wgt>
  <wgt id="946">4.01441e-12</wgt>
  <wgt id="947">4.22195e-12</wgt>
  <wgt id="948">4.58281e-12</wgt>
  <wgt id="949">4.68945e-12</wgt>
  <wgt id="950">3.75772e-12</wgt>
  <wgt id="951">4.22543e-12</wgt>
  <wgt id="952">4.50544e-12</wgt>
  <wgt id="953">4.51784e-12</wgt>
  <wgt id="954">4.39521e-12</wgt>
  <wgt id="955">3.91022e-12</wgt>
  <wgt id="956">3.99956e-12</wgt>
  <wgt id="957">4.51042e-12</wgt>
  <wgt id="958">4.2844e-12</wgt>
  <wgt id="959">4.28106e-12</wgt>
  <wgt id="960">3.87309e-12</wgt>
  <wgt id="961">4.28399e-12</wgt>
  <wgt id="962">4.57928e-12</wgt>
  <wgt id="963">4.27686e-12</wgt>
  <wgt id="964">4.61093e-12</wgt>
  <wgt id="965">4.64584e-12</wgt>
  <wgt id="966">4.30179e-12</wgt>
  <wgt id="967">4.52475e-12</wgt>
  <wgt id="968">4.35995e-12</wgt>
  <wgt id="969">4.32184e-12</wgt>
  <wgt id="970">4.41222e-12</wgt>
  <wgt id="971">4.00241e-12</wgt>
  <wgt id="972">4.57693e-12</wgt>
  <wgt id="973">4.15576e-12</wgt>
  <wgt id="974">5.19103e-12</wgt>
  <wgt id="975">4.11578e-12</wgt>
  <wgt id="976">4.27401e-12</wgt>
  <wgt id="977">3.62814e-12</wgt>
  <wgt id="978">4.53428e-12</wgt>
  <wgt id="979">4.77476e-12</wgt>
  <wgt id="980">4.29138e-12</wgt>
  <wgt id="981">4.35565e-12</wgt>
  <wgt id="982">4.1746e-12</wgt>
</rwgt>
</event>
<event>
 5   1  0.3028200E-11  0.2408744E+04  0.7818608E-02  0.7674518E-01
       21   -1    0    0  502  501  0.00000000000E+00  0.00000000000E+00  0.13331355415E+04  0.13331355415E+04  0.00000000000E+00 0.  1.
       21   -1    0    0  501  502 -0.00000000000E+00 -0.00000000000E+00 -0.10880455883E+04  0.10880455883E+04  0.00000000000E+00 0. -1.
       39    2    1    2    0    0  0.00000000000E+00  0.00000000000E+00  0.24508995311E+03  0.24211811298E+04  0.24087442741E+04 0.  0.
       25    1    3    3    0    0  0.20664657996E+03 -0.11790471136E+04  0.16785921851E+03  0.12151776093E+04  0.12500000000E+03 0.  0.
       25    1    3    3    0    0 -0.20664657996E+03  0.11790471136E+04  0.77230734602E+02  0.12060035205E+04  0.12500000000E+03 0.  0.
<mgrwt>
<rscale>  0 0.24087443E+04</rscale>
<asrwt>0</asrwt>
<pdfrwt beam="1">  1       21 0.20509777E+00 0.24087443E+04</pdfrwt>
<pdfrwt beam="2">  1       21 0.16739163E+00 0.24087443E+04</pdfrwt>
<totfact> 0.10007819E+01</totfact>
</mgrwt>
<rwgt>
  <wgt id="1">3.0282e-12</wgt>
  <wgt id="2">2.63129e-12</wgt>
  <wgt id="3">3.52206e-12</wgt>
  <wgt id="4">3.0282e-12</wgt>
  <wgt id="5">2.63129e-12</wgt>
  <wgt id="6">3.52206e-12</wgt>
  <wgt id="7">3.0282e-12</wgt>
  <wgt id="8">2.63129e-12</wgt>
  <wgt id="9">3.52206e-12</wgt>
  <wgt id="10">3.14145e-12</wgt>
  <wgt id="11">3.13811e-12</wgt>
  <wgt id="12">3.13519e-12</wgt>
  <wgt id="13">3.13043e-12</wgt>
  <wgt id="14">3.15317e-12</wgt>
  <wgt id="15">3.14622e-12</wgt>
  <wgt id="16">3.13519e-12</wgt>
  <wgt id="17">3.14638e-12</wgt>
  <wgt id="18">3.1352e-12</wgt>
  <wgt id="19">3.14886e-12</wgt>
  <wgt id="20">3.13157e-12</wgt>
  <wgt id="21">3.12319e-12</wgt>
  <wgt id="22">3.13093e-12</wgt>
  <wgt id="23">3.11366e-12</wgt>
  <wgt id="24">3.12773e-12</wgt>
  <wgt id="25">3.13432e-12</wgt>
  <wgt id="26">3.15515e-12</wgt>
  <wgt id="27">3.14173e-12</wgt>
  <wgt id="28">3.12732e-12</wgt>
  <wgt id="29">3.14432e-12</wgt>
  <wgt id="30">3.13508e-12</wgt>
  <wgt id="31">3.14932e-12</wgt>
  <wgt id="32">3.13795e-12</wgt>
  <wgt id="33">3.14982e-12</wgt>
  <wgt id="34">3.13203e-12</wgt>
  <wgt id="35">3.14109e-12</wgt>
  <wgt id="36">3.15215e-12</wgt>
  <wgt id="37">3.13343e-12</wgt>
  <wgt id="38">3.13172e-12</wgt>
  <wgt id="39">3.17246e-12</wgt>
  <wgt id="40">3.14818e-12</wgt>
  <wgt id="41">3.14097e-12</wgt>
  <wgt id="42">3.14776e-12</wgt>
  <wgt id="43">3.14172e-12</wgt>
  <wgt id="44">3.13168e-12</wgt>
  <wgt id="45">3.14926e-12</wgt>
  <wgt id="46">3.14778e-12</wgt>
  <wgt id="47">3.12842e-12</wgt>
  <wgt id="48">3.1409e-12</wgt>
  <wgt id="49">3.14749e-12</wgt>
  <wgt id="50">3.16053e-12</wgt>
  <wgt id="51">3.15704e-12</wgt>
  <wgt id="52">3.13881e-12</wgt>
  <wgt id="53">3.11568e-12</wgt>
  <wgt id="54">3.1336e-12</wgt>
  <wgt id="55">3.14128e-12</wgt>
  <wgt id="56">3.153e-12</wgt>
  <wgt id="57">3.1523e-12</wgt>
  <wgt id="58">3.11858e-12</wgt>
  <wgt id="59">3.12947e-12</wgt>
  <wgt id="60">3.14259e-12</wgt>
  <wgt id="61">3.13314e-12</wgt>
  <wgt id="62">3.13987e-12</wgt>
  <wgt id="63">3.14441e-12</wgt>
  <wgt id="64">3.14509e-12</wgt>
  <wgt id="65">3.14516e-12</wgt>
  <wgt id="66">3.13684e-12</wgt>
  <wgt id="67">3.13505e-12</wgt>
  <wgt id="68">3.13791e-12</wgt>
  <wgt id="69">3.14125e-12</wgt>
  <wgt id="70">3.13896e-12</wgt>
  <wgt id="71">3.14128e-12</wgt>
  <wgt id="72">3.1378e-12</wgt>
  <wgt id="73">3.14337e-12</wgt>
  <wgt id="74">3.14383e-12</wgt>
  <wgt id="75">3.13873e-12</wgt>
  <wgt id="76">3.15036e-12</wgt>
  <wgt id="77">3.14096e-12</wgt>
  <wgt id="78">3.14223e-12</wgt>
  <wgt id="79">3.14751e-12</wgt>
  <wgt id="80">3.12792e-12</wgt>
  <wgt id="81">3.1374e-12</wgt>
  <wgt id="82">3.14146e-12</wgt>
  <wgt id="83">3.12872e-12</wgt>
  <wgt id="84">3.13456e-12</wgt>
  <wgt id="85">3.13523e-12</wgt>
  <wgt id="86">3.1494e-12</wgt>
  <wgt id="87">3.12475e-12</wgt>
  <wgt id="88">3.14546e-12</wgt>
  <wgt id="89">3.14458e-12</wgt>
  <wgt id="90">3.14605e-12</wgt>
  <wgt id="91">3.1438e-12</wgt>
  <wgt id="92">3.14755e-12</wgt>
  <wgt id="93">3.141e-12</wgt>
  <wgt id="94">3.13832e-12</wgt>
  <wgt id="95">3.14362e-12</wgt>
  <wgt id="96">3.1438e-12</wgt>
  <wgt id="97">3.13706e-12</wgt>
  <wgt id="98">3.14287e-12</wgt>
  <wgt id="99">3.14002e-12</wgt>
  <wgt id="100">3.14442e-12</wgt>
  <wgt id="101">3.14016e-12</wgt>
  <wgt id="102">3.13791e-12</wgt>
  <wgt id="103">3.14611e-12</wgt>
  <wgt id="104">3.139e-12</wgt>
  <wgt id="105">3.14457e-12</wgt>
  <wgt id="106">3.13724e-12</wgt>
  <wgt id="107">3.14995e-12</wgt>
  <wgt id="108">3.13837e-12</wgt>
  <wgt id="109">3.1423e-12</wgt>
  <wgt id="110">3.14113e-12</wgt>
  <wgt id="111">3.17102e-12</wgt>
  <wgt id="112">3.14067e-12</wgt>
  <wgt id="113">4.26036e-12</wgt>
  <wgt id="114">4.3892e-12</wgt>
  <wgt id="115">4.32886e-12</wgt>
  <wgt id="116">6.13877e-12</wgt>
  <wgt id="117">3.51748e-12</wgt>
  <wgt id="118">3.5303e-12</wgt>
  <wgt id="119">3.51034e-12</wgt>
  <wgt id="120">3.51783e-12</wgt>
  <wgt id="121">3.51735e-12</wgt>
  <wgt id="122">3.51146e-12</wgt>
  <wgt id="123">3.52588e-12</wgt>
  <wgt id="124">3.51251e-12</wgt>
  <wgt id="125">3.52078e-12</wgt>
  <wgt id="126">3.52421e-12</wgt>
  <wgt id="127">3.51307e-12</wgt>
  <wgt id="128">3.52856e-12</wgt>
  <wgt id="129">3.5066e-12</wgt>
  <wgt id="130">3.53817e-12</wgt>
  <wgt id="131">3.49636e-12</wgt>
  <wgt id="132">3.42491e-12</wgt>
  <wgt id="133">3.62729e-12</wgt>
  <wgt id="134">3.47903e-12</wgt>
  <wgt id="135">3.54762e-12</wgt>
  <wgt id="136">3.56356e-12</wgt>
  <wgt id="137">3.46185e-12</wgt>
  <wgt id="138">3.65668e-12</wgt>
  <wgt id="139">3.38331e-12</wgt>
  <wgt id="140">3.49439e-12</wgt>
  <wgt id="141">3.53553e-12</wgt>
  <wgt id="142">3.51797e-12</wgt>
  <wgt id="143">3.52274e-12</wgt>
  <wgt id="144">3.41419e-12</wgt>
  <wgt id="145">3.61388e-12</wgt>
  <wgt id="146">3.55058e-12</wgt>
  <wgt id="147">3.49124e-12</wgt>
  <wgt id="148">3.52862e-12</wgt>
  <wgt id="149">3.51673e-12</wgt>
  <wgt id="150">3.5484e-12</wgt>
  <wgt id="151">3.50306e-12</wgt>
  <wgt id="152">3.51926e-12</wgt>
  <wgt id="153">3.51693e-12</wgt>
  <wgt id="154">3.54498e-12</wgt>
  <wgt id="155">3.48459e-12</wgt>
  <wgt id="156">3.59135e-12</wgt>
  <wgt id="157">3.44098e-12</wgt>
  <wgt id="158">4.23093e-12</wgt>
  <wgt id="159">4.24864e-12</wgt>
  <wgt id="160">4.21665e-12</wgt>
  <wgt id="161">4.21989e-12</wgt>
  <wgt id="162">4.24319e-12</wgt>
  <wgt id="163">4.22623e-12</wgt>
  <wgt id="164">4.23798e-12</wgt>
  <wgt id="165">4.23249e-12</wgt>
  <wgt id="166">4.22973e-12</wgt>
  <wgt id="167">4.22786e-12</wgt>
  <wgt id="168">4.23523e-12</wgt>
  <wgt id="169">4.213e-12</wgt>
  <wgt id="170">4.24228e-12</wgt>
  <wgt id="171">4.22612e-12</wgt>
  <wgt id="172">4.23775e-12</wgt>
  <wgt id="173">4.23042e-12</wgt>
  <wgt id="174">4.23102e-12</wgt>
  <wgt id="175">4.11008e-12</wgt>
  <wgt id="176">4.38874e-12</wgt>
  <wgt id="177">4.25423e-12</wgt>
  <wgt id="178">4.20949e-12</wgt>
  <wgt id="179">4.41222e-12</wgt>
  <wgt id="180">3.94531e-12</wgt>
  <wgt id="181">4.10518e-12</wgt>
  <wgt id="182">4.31399e-12</wgt>
  <wgt id="183">4.15414e-12</wgt>
  <wgt id="184">4.26907e-12</wgt>
  <wgt id="185">4.19626e-12</wgt>
  <wgt id="186">4.27342e-12</wgt>
  <wgt id="187">4.19249e-12</wgt>
  <wgt id="188">4.30057e-12</wgt>
  <wgt id="189">4.20313e-12</wgt>
  <wgt id="190">4.2424e-12</wgt>
  <wgt id="191">4.2428e-12</wgt>
  <wgt id="192">4.22394e-12</wgt>
  <wgt id="193">4.2928e-12</wgt>
  <wgt id="194">4.20046e-12</wgt>
  <wgt id="195">4.11987e-12</wgt>
  <wgt id="196">4.4256e-12</wgt>
  <wgt id="197">4.25253e-12</wgt>
  <wgt id="198">4.22587e-12</wgt>
  <wgt id="199">4.23093e-12</wgt>
  <wgt id="200">4.26772e-12</wgt>
  <wgt id="201">4.25434e-12</wgt>
  <wgt id="202">4.24127e-12</wgt>
  <wgt id="203">4.22168e-12</wgt>
  <wgt id="204">4.2124e-12</wgt>
  <wgt id="205">4.20485e-12</wgt>
  <wgt id="206">4.09643e-12</wgt>
  <wgt id="207">4.12049e-12</wgt>
  <wgt id="208">4.07263e-12</wgt>
  <wgt id="209">4.1097e-12</wgt>
  <wgt id="210">4.0867e-12</wgt>
  <wgt id="211">4.09489e-12</wgt>
  <wgt id="212">4.09772e-12</wgt>
  <wgt id="213">4.09609e-12</wgt>
  <wgt id="214">4.097e-12</wgt>
  <wgt id="215">4.09952e-12</wgt>
  <wgt id="216">4.09411e-12</wgt>
  <wgt id="217">4.10841e-12</wgt>
  <wgt id="218">4.08709e-12</wgt>
  <wgt id="219">4.09272e-12</wgt>
  <wgt id="220">4.09871e-12</wgt>
  <wgt id="221">4.09459e-12</wgt>
  <wgt id="222">4.10057e-12</wgt>
  <wgt id="223">3.87717e-12</wgt>
  <wgt id="224">4.29625e-12</wgt>
  <wgt id="225">4.04633e-12</wgt>
  <wgt id="226">4.15936e-12</wgt>
  <wgt id="227">4.05722e-12</wgt>
  <wgt id="228">4.11365e-12</wgt>
  <wgt id="229">4.03883e-12</wgt>
  <wgt id="230">4.12511e-12</wgt>
  <wgt id="231">4.21495e-12</wgt>
  <wgt id="232">3.99908e-12</wgt>
  <wgt id="233">4.0747e-12</wgt>
  <wgt id="234">4.13068e-12</wgt>
  <wgt id="235">4.00843e-12</wgt>
  <wgt id="236">4.17724e-12</wgt>
  <wgt id="237">4.03759e-12</wgt>
  <wgt id="238">4.11654e-12</wgt>
  <wgt id="239">4.07098e-12</wgt>
  <wgt id="240">4.14234e-12</wgt>
  <wgt id="241">4.0542e-12</wgt>
  <wgt id="242">4.14752e-12</wgt>
  <wgt id="243">4.15072e-12</wgt>
  <wgt id="244">4.11612e-12</wgt>
  <wgt id="245">4.09377e-12</wgt>
  <wgt id="246">4.12604e-12</wgt>
  <wgt id="247">4.09643e-12</wgt>
  <wgt id="248">4.13204e-12</wgt>
  <wgt id="249">4.11838e-12</wgt>
  <wgt id="250">4.10585e-12</wgt>
  <wgt id="251">4.08673e-12</wgt>
  <wgt id="252">4.0779e-12</wgt>
  <wgt id="253">4.07144e-12</wgt>
  <wgt id="254">4.01437e-12</wgt>
  <wgt id="255">4.01813e-12</wgt>
  <wgt id="256">4.01006e-12</wgt>
  <wgt id="257">4.01725e-12</wgt>
  <wgt id="258">4.01213e-12</wgt>
  <wgt id="259">4.04118e-12</wgt>
  <wgt id="260">3.98839e-12</wgt>
  <wgt id="261">4.02049e-12</wgt>
  <wgt id="262">4.0069e-12</wgt>
  <wgt id="263">4.0124e-12</wgt>
  <wgt id="264">4.01648e-12</wgt>
  <wgt id="265">4.00946e-12</wgt>
  <wgt id="266">4.02392e-12</wgt>
  <wgt id="267">4.01567e-12</wgt>
  <wgt id="268">4.01243e-12</wgt>
  <wgt id="269">4.02768e-12</wgt>
  <wgt id="270">4.00528e-12</wgt>
  <wgt id="271">4.00751e-12</wgt>
  <wgt id="272">4.02195e-12</wgt>
  <wgt id="273">4.00158e-12</wgt>
  <wgt id="274">4.02397e-12</wgt>
  <wgt id="275">3.99746e-12</wgt>
  <wgt id="276">4.03173e-12</wgt>
  <wgt id="277">3.99119e-12</wgt>
  <wgt id="278">4.03556e-12</wgt>
  <wgt id="279">3.93585e-12</wgt>
  <wgt id="280">4.11259e-12</wgt>
  <wgt id="281">3.9962e-12</wgt>
  <wgt id="282">4.01522e-12</wgt>
  <wgt id="283">3.89836e-12</wgt>
  <wgt id="284">4.15708e-12</wgt>
  <wgt id="285">3.82219e-12</wgt>
  <wgt id="286">4.17325e-12</wgt>
  <wgt id="287">4.02693e-12</wgt>
  <wgt id="288">3.99816e-12</wgt>
  <wgt id="289">4.04251e-12</wgt>
  <wgt id="290">3.9486e-12</wgt>
  <wgt id="291">4.00328e-12</wgt>
  <wgt id="292">4.01687e-12</wgt>
  <wgt id="293">3.98322e-12</wgt>
  <wgt id="294">4.04508e-12</wgt>
  <wgt id="295">3.9381e-12</wgt>
  <wgt id="296">4.10722e-12</wgt>
  <wgt id="297">4.0137e-12</wgt>
  <wgt id="298">4.02984e-12</wgt>
  <wgt id="299">4.00116e-12</wgt>
  <wgt id="300">4.04876e-12</wgt>
  <wgt id="301">3.95632e-12</wgt>
  <wgt id="302">4.15878e-12</wgt>
  <wgt id="303">3.98291e-12</wgt>
  <wgt id="304">4.03228e-12</wgt>
  <wgt id="305">4.02616e-12</wgt>
  <wgt id="306">4.03048e-12</wgt>
  <wgt id="307">4.02177e-12</wgt>
  <wgt id="308">4.02954e-12</wgt>
  <wgt id="309">4.02409e-12</wgt>
  <wgt id="310">4.05418e-12</wgt>
  <wgt id="311">4.00042e-12</wgt>
  <wgt id="312">4.03148e-12</wgt>
  <wgt id="313">4.02093e-12</wgt>
  <wgt id="314">4.02451e-12</wgt>
  <wgt id="315">4.02809e-12</wgt>
  <wgt id="316">4.02159e-12</wgt>
  <wgt id="317">4.03639e-12</wgt>
  <wgt id="318">4.02937e-12</wgt>
  <wgt id="319">4.02113e-12</wgt>
  <wgt id="320">4.04025e-12</wgt>
  <wgt id="321">4.01856e-12</wgt>
  <wgt id="322">4.01745e-12</wgt>
  <wgt id="323">4.03671e-12</wgt>
  <wgt id="324">4.01573e-12</wgt>
  <wgt id="325">4.03558e-12</wgt>
  <wgt id="326">4.01277e-12</wgt>
  <wgt id="327">4.04355e-12</wgt>
  <wgt id="328">4.00556e-12</wgt>
  <wgt id="329">4.03804e-12</wgt>
  <wgt id="330">4.14661e-12</wgt>
  <wgt id="331">3.91154e-12</wgt>
  <wgt id="332">4.01114e-12</wgt>
  <wgt id="333">4.02655e-12</wgt>
  <wgt id="334">3.93514e-12</wgt>
  <wgt id="335">4.13951e-12</wgt>
  <wgt id="336">3.88657e-12</wgt>
  <wgt id="337">4.19607e-12</wgt>
  <wgt id="338">4.07095e-12</wgt>
  <wgt id="339">3.98491e-12</wgt>
  <wgt id="340">4.05306e-12</wgt>
  <wgt id="341">3.95748e-12</wgt>
  <wgt id="342">4.01842e-12</wgt>
  <wgt id="343">4.02243e-12</wgt>
  <wgt id="344">3.99809e-12</wgt>
  <wgt id="345">4.05895e-12</wgt>
  <wgt id="346">3.94708e-12</wgt>
  <wgt id="347">4.11753e-12</wgt>
  <wgt id="348">4.02717e-12</wgt>
  <wgt id="349">4.03921e-12</wgt>
  <wgt id="350">4.00981e-12</wgt>
  <wgt id="351">4.06791e-12</wgt>
  <wgt id="352">3.96199e-12</wgt>
  <wgt id="353">4.17752e-12</wgt>
  <wgt id="354">3.97819e-12</wgt>
  <wgt id="355">4.05553e-12</wgt>
  <wgt id="356">4.01437e-12</wgt>
  <wgt id="357">4.04272e-12</wgt>
  <wgt id="358">4.02616e-12</wgt>
  <wgt id="359">4.0283e-12</wgt>
  <wgt id="360">4.04191e-12</wgt>
  <wgt id="361">4.02722e-12</wgt>
  <wgt id="362">4.09779e-12</wgt>
  <wgt id="363">4.0877e-12</wgt>
  <wgt id="364">4.07365e-12</wgt>
  <wgt id="365">4.05973e-12</wgt>
  <wgt id="366">4.0443e-12</wgt>
  <wgt id="367">4.01239e-12</wgt>
  <wgt id="368">3.99496e-12</wgt>
  <wgt id="369">3.97611e-12</wgt>
  <wgt id="370">4.02722e-12</wgt>
  <wgt id="371">4.04539e-12</wgt>
  <wgt id="372">4.03536e-12</wgt>
  <wgt id="373">4.02056e-12</wgt>
  <wgt id="374">4.0192e-12</wgt>
  <wgt id="375">4.30043e-12</wgt>
  <wgt id="376">4.30099e-12</wgt>
  <wgt id="377">4.29963e-12</wgt>
  <wgt id="378">4.31596e-12</wgt>
  <wgt id="379">4.28477e-12</wgt>
  <wgt id="380">4.31176e-12</wgt>
  <wgt id="381">4.29579e-12</wgt>
  <wgt id="382">4.32321e-12</wgt>
  <wgt id="383">4.27775e-12</wgt>
  <wgt id="384">4.3032e-12</wgt>
  <wgt id="385">4.29772e-12</wgt>
  <wgt id="386">4.3181e-12</wgt>
  <wgt id="387">4.29263e-12</wgt>
  <wgt id="388">4.29614e-12</wgt>
  <wgt id="389">4.30535e-12</wgt>
  <wgt id="390">4.31236e-12</wgt>
  <wgt id="391">4.28777e-12</wgt>
  <wgt id="392">4.26656e-12</wgt>
  <wgt id="393">4.31955e-12</wgt>
  <wgt id="394">4.30652e-12</wgt>
  <wgt id="395">4.29195e-12</wgt>
  <wgt id="396">4.3035e-12</wgt>
  <wgt id="397">4.29824e-12</wgt>
  <wgt id="398">4.28086e-12</wgt>
  <wgt id="399">4.31929e-12</wgt>
  <wgt id="400">4.29281e-12</wgt>
  <wgt id="401">4.3173e-12</wgt>
  <wgt id="402">4.2648e-12</wgt>
  <wgt id="403">4.31612e-12</wgt>
  <wgt id="404">4.40065e-12</wgt>
  <wgt id="405">4.05892e-12</wgt>
  <wgt id="406">4.2286e-12</wgt>
  <wgt id="407">4.45615e-12</wgt>
  <wgt id="408">4.33727e-12</wgt>
  <wgt id="409">4.22984e-12</wgt>
  <wgt id="410">4.18264e-12</wgt>
  <wgt id="411">4.35489e-12</wgt>
  <wgt id="412">4.29276e-12</wgt>
  <wgt id="413">4.31175e-12</wgt>
  <wgt id="414">4.25326e-12</wgt>
  <wgt id="415">4.3369e-12</wgt>
  <wgt id="416">4.41554e-12</wgt>
  <wgt id="417">4.14134e-12</wgt>
  <wgt id="418">4.3062e-12</wgt>
  <wgt id="419">4.26951e-12</wgt>
  <wgt id="420">4.36701e-12</wgt>
  <wgt id="421">4.26201e-12</wgt>
  <wgt id="422">4.29281e-12</wgt>
  <wgt id="423">4.30476e-12</wgt>
  <wgt id="424">4.3896e-12</wgt>
  <wgt id="425">4.24419e-12</wgt>
  <wgt id="426">4.30043e-12</wgt>
  <wgt id="427">4.26174e-12</wgt>
  <wgt id="428">4.41447e-12</wgt>
  <wgt id="429">4.33988e-12</wgt>
  <wgt id="430">4.46201e-12</wgt>
  <wgt id="431">4.43757e-12</wgt>
  <wgt id="432">4.41453e-12</wgt>
  <wgt id="433">4.39212e-12</wgt>
  <wgt id="434">4.36495e-12</wgt>
  <wgt id="435">4.30843e-12</wgt>
  <wgt id="436">4.27946e-12</wgt>
  <wgt id="437">4.25181e-12</wgt>
  <wgt id="438">4.33988e-12</wgt>
  <wgt id="439">4.35424e-12</wgt>
  <wgt id="440">4.34573e-12</wgt>
  <wgt id="441">4.33552e-12</wgt>
  <wgt id="442">4.3317e-12</wgt>
  <wgt id="443">4.20213e-12</wgt>
  <wgt id="444">4.22574e-12</wgt>
  <wgt id="445">4.18329e-12</wgt>
  <wgt id="446">4.17526e-12</wgt>
  <wgt id="447">4.18632e-12</wgt>
  <wgt id="448">4.08982e-12</wgt>
  <wgt id="449">4.26738e-12</wgt>
  <wgt id="450">4.18551e-12</wgt>
  <wgt id="451">4.19526e-12</wgt>
  <wgt id="452">4.29814e-12</wgt>
  <wgt id="453">4.24342e-12</wgt>
  <wgt id="454">4.03534e-12</wgt>
  <wgt id="455">4.20669e-12</wgt>
  <wgt id="456">4.16081e-12</wgt>
  <wgt id="457">4.2201e-12</wgt>
  <wgt id="458">4.24981e-12</wgt>
  <wgt id="459">4.23001e-12</wgt>
  <wgt id="460">4.22436e-12</wgt>
  <wgt id="461">4.12393e-12</wgt>
  <wgt id="462">4.16652e-12</wgt>
  <wgt id="463">4.15658e-12</wgt>
  <wgt id="464">4.17735e-12</wgt>
  <wgt id="465">4.24719e-12</wgt>
  <wgt id="466">4.15394e-12</wgt>
  <wgt id="467">4.16045e-12</wgt>
  <wgt id="468">4.19035e-12</wgt>
  <wgt id="469">4.18959e-12</wgt>
  <wgt id="470">4.16522e-12</wgt>
  <wgt id="471">4.16452e-12</wgt>
  <wgt id="472">4.22204e-12</wgt>
  <wgt id="473">4.06282e-12</wgt>
  <wgt id="474">3.0282e-12</wgt>
  <wgt id="475">3.2184e-12</wgt>
  <wgt id="476">2.95733e-12</wgt>
  <wgt id="477">2.91918e-12</wgt>
  <wgt id="478">3.04234e-12</wgt>
  <wgt id="479">2.96746e-12</wgt>
  <wgt id="480">3.14032e-12</wgt>
  <wgt id="481">2.96559e-12</wgt>
  <wgt id="482">2.91573e-12</wgt>
  <wgt id="483">2.9472e-12</wgt>
  <wgt id="484">3.23517e-12</wgt>
  <wgt id="485">3.02834e-12</wgt>
  <wgt id="486">3.11093e-12</wgt>
  <wgt id="487">3.0925e-12</wgt>
  <wgt id="488">3.07238e-12</wgt>
  <wgt id="489">2.93185e-12</wgt>
  <wgt id="490">2.93205e-12</wgt>
  <wgt id="491">2.9934e-12</wgt>
  <wgt id="492">2.9343e-12</wgt>
  <wgt id="493">2.91459e-12</wgt>
  <wgt id="494">2.93726e-12</wgt>
  <wgt id="495">3.0989e-12</wgt>
  <wgt id="496">2.9283e-12</wgt>
  <wgt id="497">2.90817e-12</wgt>
  <wgt id="498">3.0722e-12</wgt>
  <wgt id="499">2.95234e-12</wgt>
  <wgt id="500">2.98203e-12</wgt>
  <wgt id="501">3.16975e-12</wgt>
  <wgt id="502">2.95139e-12</wgt>
  <wgt id="503">3.02607e-12</wgt>
  <wgt id="504">3.0548e-12</wgt>
  <wgt id="505">3.01196e-12</wgt>
  <wgt id="506">3.10467e-12</wgt>
  <wgt id="507">3e-12</wgt>
  <wgt id="508">3.06977e-12</wgt>
  <wgt id="509">2.95938e-12</wgt>
  <wgt id="510">3.11214e-12</wgt>
  <wgt id="511">2.96953e-12</wgt>
  <wgt id="512">3.07458e-12</wgt>
  <wgt id="513">3.16868e-12</wgt>
  <wgt id="514">3.00534e-12</wgt>
  <wgt id="515">2.98639e-12</wgt>
  <wgt id="516">3.11314e-12</wgt>
  <wgt id="517">3.09025e-12</wgt>
  <wgt id="518">3.09666e-12</wgt>
  <wgt id="519">2.939e-12</wgt>
  <wgt id="520">3.05893e-12</wgt>
  <wgt id="521">3.13256e-12</wgt>
  <wgt id="522">3.14512e-12</wgt>
  <wgt id="523">3.1035e-12</wgt>
  <wgt id="524">3.0754e-12</wgt>
  <wgt id="525">3.12705e-12</wgt>
  <wgt id="526">3.04062e-12</wgt>
  <wgt id="527">3.07333e-12</wgt>
  <wgt id="528">3.04596e-12</wgt>
  <wgt id="529">2.97226e-12</wgt>
  <wgt id="530">3.05865e-12</wgt>
  <wgt id="531">2.99814e-12</wgt>
  <wgt id="532">3.19991e-12</wgt>
  <wgt id="533">2.84676e-12</wgt>
  <wgt id="534">3.04397e-12</wgt>
  <wgt id="535">3.09401e-12</wgt>
  <wgt id="536">3.01212e-12</wgt>
  <wgt id="537">3.03948e-12</wgt>
  <wgt id="538">3.06182e-12</wgt>
  <wgt id="539">2.97295e-12</wgt>
  <wgt id="540">2.96502e-12</wgt>
  <wgt id="541">2.9428e-12</wgt>
  <wgt id="542">2.97749e-12</wgt>
  <wgt id="543">3.02396e-12</wgt>
  <wgt id="544">3.17813e-12</wgt>
  <wgt id="545">2.99037e-12</wgt>
  <wgt id="546">2.99083e-12</wgt>
  <wgt id="547">2.93472e-12</wgt>
  <wgt id="548">2.90428e-12</wgt>
  <wgt id="549">2.97389e-12</wgt>
  <wgt id="550">3.0076e-12</wgt>
  <wgt id="551">3.05623e-12</wgt>
  <wgt id="552">3.00301e-12</wgt>
  <wgt id="553">3.02022e-12</wgt>
  <wgt id="554">3.25145e-12</wgt>
  <wgt id="555">3.10347e-12</wgt>
  <wgt id="556">2.93205e-12</wgt>
  <wgt id="557">3.07819e-12</wgt>
  <wgt id="558">2.92923e-12</wgt>
  <wgt id="559">2.98794e-12</wgt>
  <wgt id="560">3.28262e-12</wgt>
  <wgt id="561">2.96909e-12</wgt>
  <wgt id="562">3.07716e-12</wgt>
  <wgt id="563">2.93553e-12</wgt>
  <wgt id="564">3.02802e-12</wgt>
  <wgt id="565">2.9104e-12</wgt>
  <wgt id="566">3.07958e-12</wgt>
  <wgt id="567">2.98544e-12</wgt>
  <wgt id="568">3.01524e-12</wgt>
  <wgt id="569">3.08994e-12</wgt>
  <wgt id="570">2.93165e-12</wgt>
  <wgt id="571">3.35748e-12</wgt>
  <wgt id="572">2.95643e-12</wgt>
  <wgt id="573">2.89282e-12</wgt>
  <wgt id="574">2.91941e-12</wgt>
  <wgt id="575">3.33706e-12</wgt>
  <wgt id="576">3.30845e-12</wgt>
  <wgt id="577">3.42479e-12</wgt>
  <wgt id="578">3.42727e-12</wgt>
  <wgt id="579">3.39517e-12</wgt>
  <wgt id="580">3.40144e-12</wgt>
  <wgt id="581">3.553e-12</wgt>
  <wgt id="582">3.30056e-12</wgt>
  <wgt id="583">3.3745e-12</wgt>
  <wgt id="584">3.34274e-12</wgt>
  <wgt id="585">3.36394e-12</wgt>
  <wgt id="586">3.26384e-12</wgt>
  <wgt id="587">3.38574e-12</wgt>
  <wgt id="588">3.31862e-12</wgt>
  <wgt id="589">3.40288e-12</wgt>
  <wgt id="590">3.3967e-12</wgt>
  <wgt id="591">3.46255e-12</wgt>
  <wgt id="592">3.26698e-12</wgt>
  <wgt id="593">3.32354e-12</wgt>
  <wgt id="594">3.43547e-12</wgt>
  <wgt id="595">3.32383e-12</wgt>
  <wgt id="596">3.36096e-12</wgt>
  <wgt id="597">3.23588e-12</wgt>
  <wgt id="598">3.24303e-12</wgt>
  <wgt id="599">3.51731e-12</wgt>
  <wgt id="600">3.30253e-12</wgt>
  <wgt id="601">3.24419e-12</wgt>
  <wgt id="602">3.26636e-12</wgt>
  <wgt id="603">3.27356e-12</wgt>
  <wgt id="604">3.38669e-12</wgt>
  <wgt id="605">3.4726e-12</wgt>
  <wgt id="606">3.26106e-12</wgt>
  <wgt id="607">3.2939e-12</wgt>
  <wgt id="608">3.36332e-12</wgt>
  <wgt id="609">3.15549e-12</wgt>
  <wgt id="610">3.2119e-12</wgt>
  <wgt id="611">3.36965e-12</wgt>
  <wgt id="612">3.5643e-12</wgt>
  <wgt id="613">3.33011e-12</wgt>
  <wgt id="614">3.38373e-12</wgt>
  <wgt id="615">3.26784e-12</wgt>
  <wgt id="616">3.52519e-12</wgt>
  <wgt id="617">3.46377e-12</wgt>
  <wgt id="618">3.3977e-12</wgt>
  <wgt id="619">3.29648e-12</wgt>
  <wgt id="620">3.48596e-12</wgt>
  <wgt id="621">3.3859e-12</wgt>
  <wgt id="622">3.38574e-12</wgt>
  <wgt id="623">3.43468e-12</wgt>
  <wgt id="624">3.32694e-12</wgt>
  <wgt id="625">3.29946e-12</wgt>
  <wgt id="626">3.25589e-12</wgt>
  <wgt id="627">3.20502e-12</wgt>
  <wgt id="628">3.53622e-12</wgt>
  <wgt id="629">3.25819e-12</wgt>
  <wgt id="630">3.20992e-12</wgt>
  <wgt id="631">3.35471e-12</wgt>
  <wgt id="632">3.22066e-12</wgt>
  <wgt id="633">3.29994e-12</wgt>
  <wgt id="634">3.32941e-12</wgt>
  <wgt id="635">3.26748e-12</wgt>
  <wgt id="636">3.35564e-12</wgt>
  <wgt id="637">3.32255e-12</wgt>
  <wgt id="638">3.20682e-12</wgt>
  <wgt id="639">3.29163e-12</wgt>
  <wgt id="640">3.33841e-12</wgt>
  <wgt id="641">3.3573e-12</wgt>
  <wgt id="642">3.19017e-12</wgt>
  <wgt id="643">3.31689e-12</wgt>
  <wgt id="644">3.20901e-12</wgt>
  <wgt id="645">3.3698e-12</wgt>
  <wgt id="646">3.38577e-12</wgt>
  <wgt id="647">3.29529e-12</wgt>
  <wgt id="648">3.35511e-12</wgt>
  <wgt id="649">3.38909e-12</wgt>
  <wgt id="650">3.27554e-12</wgt>
  <wgt id="651">3.34765e-12</wgt>
  <wgt id="652">3.3136e-12</wgt>
  <wgt id="653">3.24299e-12</wgt>
  <wgt id="654">3.31918e-12</wgt>
  <wgt id="655">3.28528e-12</wgt>
  <wgt id="656">3.36159e-12</wgt>
  <wgt id="657">3.45897e-12</wgt>
  <wgt id="658">3.34648e-12</wgt>
  <wgt id="659">3.20561e-12</wgt>
  <wgt id="660">3.40375e-12</wgt>
  <wgt id="661">3.28086e-12</wgt>
  <wgt id="662">3.3396e-12</wgt>
  <wgt id="663">3.33709e-12</wgt>
  <wgt id="664">3.28793e-12</wgt>
  <wgt id="665">3.32626e-12</wgt>
  <wgt id="666">3.30901e-12</wgt>
  <wgt id="667">3.44011e-12</wgt>
  <wgt id="668">3.33331e-12</wgt>
  <wgt id="669">3.41789e-12</wgt>
  <wgt id="670">3.40376e-12</wgt>
  <wgt id="671">3.3078e-12</wgt>
  <wgt id="672">3.19759e-12</wgt>
  <wgt id="673">3.3445e-12</wgt>
  <wgt id="674">3.2745e-12</wgt>
  <wgt id="675">3.29264e-12</wgt>
  <wgt id="676">4.21525e-12</wgt>
  <wgt id="677">4.26113e-12</wgt>
  <wgt id="678">4.4154e-12</wgt>
  <wgt id="679">3.94005e-12</wgt>
  <wgt id="680">4.11344e-12</wgt>
  <wgt id="681">4.31069e-12</wgt>
  <wgt id="682">4.34235e-12</wgt>
  <wgt id="683">4.15937e-12</wgt>
  <wgt id="684">4.40847e-12</wgt>
  <wgt id="685">3.98795e-12</wgt>
  <wgt id="686">4.13863e-12</wgt>
  <wgt id="687">4.42847e-12</wgt>
  <wgt id="688">4.20762e-12</wgt>
  <wgt id="689">4.57092e-12</wgt>
  <wgt id="690">4.43305e-12</wgt>
  <wgt id="691">4.48369e-12</wgt>
  <wgt id="692">4.16736e-12</wgt>
  <wgt id="693">4.94683e-12</wgt>
  <wgt id="694">4.4649e-12</wgt>
  <wgt id="695">4.08561e-12</wgt>
  <wgt id="696">3.9841e-12</wgt>
  <wgt id="697">4.11084e-12</wgt>
  <wgt id="698">3.87195e-12</wgt>
  <wgt id="699">3.84254e-12</wgt>
  <wgt id="700">3.67506e-12</wgt>
  <wgt id="701">4.23182e-12</wgt>
  <wgt id="702">4.07197e-12</wgt>
  <wgt id="703">4.83854e-12</wgt>
  <wgt id="704">4.60227e-12</wgt>
  <wgt id="705">4.3956e-12</wgt>
  <wgt id="706">3.92343e-12</wgt>
  <wgt id="707">4.04701e-12</wgt>
  <wgt id="708">4.16106e-12</wgt>
  <wgt id="709">4.14184e-12</wgt>
  <wgt id="710">3.78145e-12</wgt>
  <wgt id="711">4.18909e-12</wgt>
  <wgt id="712">4.1456e-12</wgt>
  <wgt id="713">4.56975e-12</wgt>
  <wgt id="714">4.15233e-12</wgt>
  <wgt id="715">4.17481e-12</wgt>
  <wgt id="716">4.05061e-12</wgt>
  <wgt id="717">4.02336e-12</wgt>
  <wgt id="718">4.20168e-12</wgt>
  <wgt id="719">3.82479e-12</wgt>
  <wgt id="720">3.95998e-12</wgt>
  <wgt id="721">3.88451e-12</wgt>
  <wgt id="722">3.74014e-12</wgt>
  <wgt id="723">4.49584e-12</wgt>
  <wgt id="724">4.41467e-12</wgt>
  <wgt id="725">4.45095e-12</wgt>
  <wgt id="726">4.25784e-12</wgt>
  <wgt id="727">4.11486e-12</wgt>
  <wgt id="728">4.12476e-12</wgt>
  <wgt id="729">3.82231e-12</wgt>
  <wgt id="730">4.55849e-12</wgt>
  <wgt id="731">4.16409e-12</wgt>
  <wgt id="732">4.63073e-12</wgt>
  <wgt id="733">4.21731e-12</wgt>
  <wgt id="734">4.31873e-12</wgt>
  <wgt id="735">4.19314e-12</wgt>
  <wgt id="736">4.13639e-12</wgt>
  <wgt id="737">4.28846e-12</wgt>
  <wgt id="738">3.99659e-12</wgt>
  <wgt id="739">4.27323e-12</wgt>
  <wgt id="740">4.68419e-12</wgt>
  <wgt id="741">3.7492e-12</wgt>
  <wgt id="742">4.14648e-12</wgt>
  <wgt id="743">4.02332e-12</wgt>
  <wgt id="744">4.12922e-12</wgt>
  <wgt id="745">4.41107e-12</wgt>
  <wgt id="746">4.48394e-12</wgt>
  <wgt id="747">3.81866e-12</wgt>
  <wgt id="748">4.16467e-12</wgt>
  <wgt id="749">4.4408e-12</wgt>
  <wgt id="750">4.27633e-12</wgt>
  <wgt id="751">4.35349e-12</wgt>
  <wgt id="752">3.85973e-12</wgt>
  <wgt id="753">4.0138e-12</wgt>
  <wgt id="754">4.42373e-12</wgt>
  <wgt id="755">4.23157e-12</wgt>
  <wgt id="756">4.24727e-12</wgt>
  <wgt id="757">3.87658e-12</wgt>
  <wgt id="758">4.25508e-12</wgt>
  <wgt id="759">4.29168e-12</wgt>
  <wgt id="760">4.26819e-12</wgt>
  <wgt id="761">4.4396e-12</wgt>
  <wgt id="762">4.46971e-12</wgt>
  <wgt id="763">4.19698e-12</wgt>
  <wgt id="764">4.3854e-12</wgt>
  <wgt id="765">4.30436e-12</wgt>
  <wgt id="766">4.20866e-12</wgt>
  <wgt id="767">4.32803e-12</wgt>
  <wgt id="768">3.97523e-12</wgt>
  <wgt id="769">4.47481e-12</wgt>
  <wgt id="770">4.08548e-12</wgt>
  <wgt id="771">4.99343e-12</wgt>
  <wgt id="772">3.97592e-12</wgt>
  <wgt id="773">4.18246e-12</wgt>
  <wgt id="774">3.74825e-12</wgt>
  <wgt id="775">4.45635e-12</wgt>
  <wgt id="776">4.60729e-12</wgt>
  <wgt id="777">4.00249e-12</wgt>
  <wgt id="778">3.09744e-12</wgt>
  <wgt id="779">2.56693e-12</wgt>
  <wgt id="780">2.0739e-12</wgt>
  <wgt id="781">3.15782e-12</wgt>
  <wgt id="782">3.28259e-12</wgt>
  <wgt id="783">2.59485e-12</wgt>
  <wgt id="784">2.69765e-12</wgt>
  <wgt id="785">3.77778e-12</wgt>
  <wgt id="786">2.37847e-12</wgt>
  <wgt id="787">3.54341e-12</wgt>
  <wgt id="788">1.9247e-12</wgt>
  <wgt id="789">2.46175e-12</wgt>
  <wgt id="790">2.34557e-12</wgt>
  <wgt id="791">2.89708e-12</wgt>
  <wgt id="792">4.03566e-12</wgt>
  <wgt id="793">3.02465e-12</wgt>
  <wgt id="794">2.34696e-12</wgt>
  <wgt id="795">3.6568e-12</wgt>
  <wgt id="796">4.09598e-12</wgt>
  <wgt id="797">3.60823e-12</wgt>
  <wgt id="798">2.84671e-12</wgt>
  <wgt id="799">3.5433e-12</wgt>
  <wgt id="800">2.49132e-12</wgt>
  <wgt id="801">2.88334e-12</wgt>
  <wgt id="802">2.36153e-12</wgt>
  <wgt id="803">4.01529e-12</wgt>
  <wgt id="804">3.62684e-12</wgt>
  <wgt id="805">3.69621e-12</wgt>
  <wgt id="806">3.46997e-12</wgt>
  <wgt id="807">2.94174e-12</wgt>
  <wgt id="808">3.01266e-12</wgt>
  <wgt id="809">2.84802e-12</wgt>
  <wgt id="810">3.52987e-12</wgt>
  <wgt id="811">3.39361e-12</wgt>
  <wgt id="812">2.32764e-12</wgt>
  <wgt id="813">2.38764e-12</wgt>
  <wgt id="814">2.6573e-12</wgt>
  <wgt id="815">2.57219e-12</wgt>
  <wgt id="816">2.24537e-12</wgt>
  <wgt id="817">3.25422e-12</wgt>
  <wgt id="818">3.07804e-12</wgt>
  <wgt id="819">2.56222e-12</wgt>
  <wgt id="820">3.10208e-12</wgt>
  <wgt id="821">3.58994e-12</wgt>
  <wgt id="822">2.5476e-12</wgt>
  <wgt id="823">3.61396e-12</wgt>
  <wgt id="824">4.18262e-12</wgt>
  <wgt id="825">2.26621e-12</wgt>
  <wgt id="826">3.2905e-12</wgt>
  <wgt id="827">1.85541e-12</wgt>
  <wgt id="828">3.98015e-12</wgt>
  <wgt id="829">3.23547e-12</wgt>
  <wgt id="830">2.1465e-12</wgt>
  <wgt id="831">3.34995e-12</wgt>
  <wgt id="832">5.13497e-12</wgt>
  <wgt id="833">2.87405e-12</wgt>
  <wgt id="834">4.7873e-12</wgt>
  <wgt id="835">2.49957e-12</wgt>
  <wgt id="836">3.07702e-12</wgt>
  <wgt id="837">3.54292e-12</wgt>
  <wgt id="838">2.95563e-12</wgt>
  <wgt id="839">3.32571e-12</wgt>
  <wgt id="840">2.88346e-12</wgt>
  <wgt id="841">3.8525e-12</wgt>
  <wgt id="842">2.78991e-12</wgt>
  <wgt id="843">3.05244e-12</wgt>
  <wgt id="844">3.24767e-12</wgt>
  <wgt id="845">4.38376e-12</wgt>
  <wgt id="846">2.87559e-12</wgt>
  <wgt id="847">3.14879e-12</wgt>
  <wgt id="848">2.65677e-12</wgt>
  <wgt id="849">3.18298e-12</wgt>
  <wgt id="850">4.0816e-12</wgt>
  <wgt id="851">3.40835e-12</wgt>
  <wgt id="852">2.64161e-12</wgt>
  <wgt id="853">3.41346e-12</wgt>
  <wgt id="854">3.79703e-12</wgt>
  <wgt id="855">3.63033e-12</wgt>
  <wgt id="856">2.20506e-12</wgt>
  <wgt id="857">3.09943e-12</wgt>
  <wgt id="858">3.08017e-12</wgt>
  <wgt id="859">2.87121e-12</wgt>
  <wgt id="860">3.35501e-12</wgt>
  <wgt id="861">2.70139e-12</wgt>
  <wgt id="862">3.16604e-12</wgt>
  <wgt id="863">3.29489e-12</wgt>
  <wgt id="864">3.3139e-12</wgt>
  <wgt id="865">4.50246e-12</wgt>
  <wgt id="866">4.92359e-12</wgt>
  <wgt id="867">3.17838e-12</wgt>
  <wgt id="868">3.08415e-12</wgt>
  <wgt id="869">2.38506e-12</wgt>
  <wgt id="870">2.50735e-12</wgt>
  <wgt id="871">2.43084e-12</wgt>
  <wgt id="872">3.73336e-12</wgt>
  <wgt id="873">2.52586e-12</wgt>
  <wgt id="874">3.27579e-12</wgt>
  <wgt id="875">2.68486e-12</wgt>
  <wgt id="876">3.74551e-12</wgt>
  <wgt id="877">3.58676e-12</wgt>
  <wgt id="878">2.63802e-12</wgt>
  <wgt id="879">4.21525e-12</wgt>
  <wgt id="880">4.26113e-12</wgt>
  <wgt id="881">4.4154e-12</wgt>
  <wgt id="882">3.94005e-12</wgt>
  <wgt id="883">4.11344e-12</wgt>
  <wgt id="884">4.31069e-12</wgt>
  <wgt id="885">4.34235e-12</wgt>
  <wgt id="886">4.15937e-12</wgt>
  <wgt id="887">4.40847e-12</wgt>
  <wgt id="888">3.98795e-12</wgt>
  <wgt id="889">4.13863e-12</wgt>
  <wgt id="890">4.42847e-12</wgt>
  <wgt id="891">4.20762e-12</wgt>
  <wgt id="892">4.57092e-12</wgt>
  <wgt id="893">4.43305e-12</wgt>
  <wgt id="894">4.48369e-12</wgt>
  <wgt id="895">4.16736e-12</wgt>
  <wgt id="896">4.94683e-12</wgt>
  <wgt id="897">4.4649e-12</wgt>
  <wgt id="898">4.08561e-12</wgt>
  <wgt id="899">3.9841e-12</wgt>
  <wgt id="900">4.11084e-12</wgt>
  <wgt id="901">3.87195e-12</wgt>
  <wgt id="902">3.84254e-12</wgt>
  <wgt id="903">3.67506e-12</wgt>
  <wgt id="904">4.23182e-12</wgt>
  <wgt id="905">4.07197e-12</wgt>
  <wgt id="906">4.83854e-12</wgt>
  <wgt id="907">4.60227e-12</wgt>
  <wgt id="908">4.3956e-12</wgt>
  <wgt id="909">3.92343e-12</wgt>
  <wgt id="910">4.04701e-12</wgt>
  <wgt id="911">4.16106e-12</wgt>
  <wgt id="912">4.14184e-12</wgt>
  <wgt id="913">3.78145e-12</wgt>
  <wgt id="914">4.18909e-12</wgt>
  <wgt id="915">4.1456e-12</wgt>
  <wgt id="916">4.56975e-12</wgt>
  <wgt id="917">4.15233e-12</wgt>
  <wgt id="918">4.17481e-12</wgt>
  <wgt id="919">4.05061e-12</wgt>
  <wgt id="920">4.02336e-12</wgt>
  <wgt id="921">4.20168e-12</wgt>
  <wgt id="922">3.82479e-12</wgt>
  <wgt id="923">3.95998e-12</wgt>
  <wgt id="924">3.88451e-12</wgt>
  <wgt id="925">3.74014e-12</wgt>
  <wgt id="926">4.49584e-12</wgt>
  <wgt id="927">4.41467e-12</wgt>
  <wgt id="928">4.45095e-12</wgt>
  <wgt id="929">4.25784e-12</wgt>
  <wgt id="930">4.11486e-12</wgt>
  <wgt id="931">4.12476e-12</wgt>
  <wgt id="932">3.82231e-12</wgt>
  <wgt id="933">4.55849e-12</wgt>
  <wgt id="934">4.16409e-12</wgt>
  <wgt id="935">4.63073e-12</wgt>
  <wgt id="936">4.21731e-12</wgt>
  <wgt id="937">4.31873e-12</wgt>
  <wgt id="938">4.19314e-12</wgt>
  <wgt id="939">4.13639e-12</wgt>
  <wgt id="940">4.28846e-12</wgt>
  <wgt id="941">3.99659e-12</wgt>
  <wgt id="942">4.27323e-12</wgt>
  <wgt id="943">4.68419e-12</wgt>
  <wgt id="944">3.7492e-12</wgt>
  <wgt id="945">4.14648e-12</wgt>
  <wgt id="946">4.02332e-12</wgt>
  <wgt id="947">4.12922e-12</wgt>
  <wgt id="948">4.41107e-12</wgt>
  <wgt id="949">4.48394e-12</wgt>
  <wgt id="950">3.81866e-12</wgt>
  <wgt id="951">4.16467e-12</wgt>
  <wgt id="952">4.4408e-12</wgt>
  <wgt id="953">4.27633e-12</wgt>
  <wgt id="954">4.35349e-12</wgt>
  <wgt id="955">3.85973e-12</wgt>
  <wgt id="956">4.0138e-12</wgt>
  <wgt id="957">4.42373e-12</wgt>
  <wgt id="958">4.23157e-12</wgt>
  <wgt id="959">4.24727e-12</wgt>
  <wgt id="960">3.87658e-12</wgt>
  <wgt id="961">4.25508e-12</wgt>
  <wgt id="962">4.29168e-12</wgt>
  <wgt id="963">4.26819e-12</wgt>
  <wgt id="964">4.4396e-12</wgt>
  <wgt id="965">4.46971e-12</wgt>
  <wgt id="966">4.19698e-12</wgt>
  <wgt id="967">4.3854e-12</wgt>
  <wgt id="968">4.30436e-12</wgt>
  <wgt id="969">4.20866e-12</wgt>
  <wgt id="970">4.32803e-12</wgt>
  <wgt id="971">3.97523e-12</wgt>
  <wgt id="972">4.47481e-12</wgt>
  <wgt id="973">4.08548e-12</wgt>
  <wgt id="974">4.99343e-12</wgt>
  <wgt id="975">3.97592e-12</wgt>
  <wgt id="976">4.18246e-12</wgt>
  <wgt id="977">3.74825e-12</wgt>
  <wgt id="978">4.45635e-12</wgt>
  <wgt id="979">4.60729e-12</wgt>
  <wgt id="980">4.21354e-12</wgt>
  <wgt id="981">4.24098e-12</wgt>
  <wgt id="982">4.09387e-12</wgt>
</rwgt>
</event>
<event>
 5   1  0.3028200E-11  0.2309892E+04  0.7818608E-02  0.7708701E-01
       21   -1    0    0  502  501  0.00000000000E+00  0.00000000000E+00  0.68556276990E+03  0.68556276990E+03  0.00000000000E+00 0. -1.
       21   -1    0    0  501  502 -0.00000000000E+00 -0.00000000000E+00 -0.19457008317E+04  0.19457008317E+04  0.00000000000E+00 0.  1.
       39    2    1    2    0    0  0.00000000000E+00  0.00000000000E+00 -0.12601380618E+04  0.26312636016E+04  0.23098918170E+04 0.  0.
       25    1    3    3    0    0  0.79297415242E+03 -0.17685696175E+03  0.29409256174E+03  0.87304170931E+03  0.12500000000E+03 0.  0.
       25    1    3    3    0    0 -0.79297415242E+03  0.17685696175E+03 -0.15542306235E+04  0.17582218923E+04  0.12500000000E+03 0.  0.
<mgrwt>
<rscale>  0 0.23098918E+04</rscale>
<asrwt>0</asrwt>
<pdfrwt beam="1">  1       21 0.10547120E+00 0.23098918E+04</pdfrwt>
<pdfrwt beam="2">  1       21 0.29933859E+00 0.23098918E+04</pdfrwt>
<totfact> 0.87133846E+00</totfact>
</mgrwt>
<rwgt>
  <wgt id="1">3.0282e-12</wgt>
  <wgt id="2">2.62168e-12</wgt>
  <wgt id="3">3.53577e-12</wgt>
  <wgt id="4">3.0282e-12</wgt>
  <wgt id="5">2.62168e-12</wgt>
  <wgt id="6">3.53577e-12</wgt>
  <wgt id="7">3.0282e-12</wgt>
  <wgt id="8">2.62168e-12</wgt>
  <wgt id="9">3.53577e-12</wgt>
  <wgt id="10">3.17302e-12</wgt>
  <wgt id="11">3.17148e-12</wgt>
  <wgt id="12">3.16665e-12</wgt>
  <wgt id="13">3.1654e-12</wgt>
  <wgt id="14">3.1841e-12</wgt>
  <wgt id="15">3.17844e-12</wgt>
  <wgt id="16">3.16699e-12</wgt>
  <wgt id="17">3.18745e-12</wgt>
  <wgt id="18">3.16894e-12</wgt>
  <wgt id="19">3.18379e-12</wgt>
  <wgt id="20">3.16992e-12</wgt>
  <wgt id="21">3.14799e-12</wgt>
  <wgt id="22">3.15152e-12</wgt>
  <wgt id="23">3.12802e-12</wgt>
  <wgt id="24">3.15036e-12</wgt>
  <wgt id="25">3.16102e-12</wgt>
  <wgt id="26">3.18251e-12</wgt>
  <wgt id="27">3.16786e-12</wgt>
  <wgt id="28">3.15312e-12</wgt>
  <wgt id="29">3.17446e-12</wgt>
  <wgt id="30">3.14942e-12</wgt>
  <wgt id="31">3.18747e-12</wgt>
  <wgt id="32">3.15314e-12</wgt>
  <wgt id="33">3.1779e-12</wgt>
  <wgt id="34">3.15371e-12</wgt>
  <wgt id="35">3.15594e-12</wgt>
  <wgt id="36">3.18745e-12</wgt>
  <wgt id="37">3.16279e-12</wgt>
  <wgt id="38">3.16052e-12</wgt>
  <wgt id="39">3.22524e-12</wgt>
  <wgt id="40">3.17575e-12</wgt>
  <wgt id="41">3.17092e-12</wgt>
  <wgt id="42">3.17914e-12</wgt>
  <wgt id="43">3.17409e-12</wgt>
  <wgt id="44">3.18408e-12</wgt>
  <wgt id="45">3.17748e-12</wgt>
  <wgt id="46">3.1638e-12</wgt>
  <wgt id="47">3.19374e-12</wgt>
  <wgt id="48">3.18491e-12</wgt>
  <wgt id="49">3.15749e-12</wgt>
  <wgt id="50">3.15403e-12</wgt>
  <wgt id="51">3.15898e-12</wgt>
  <wgt id="52">3.18089e-12</wgt>
  <wgt id="53">3.1875e-12</wgt>
  <wgt id="54">3.18387e-12</wgt>
  <wgt id="55">3.17248e-12</wgt>
  <wgt id="56">3.16941e-12</wgt>
  <wgt id="57">3.16325e-12</wgt>
  <wgt id="58">3.16814e-12</wgt>
  <wgt id="59">3.1741e-12</wgt>
  <wgt id="60">3.15802e-12</wgt>
  <wgt id="61">3.15335e-12</wgt>
  <wgt id="62">3.16282e-12</wgt>
  <wgt id="63">3.16909e-12</wgt>
  <wgt id="64">3.17142e-12</wgt>
  <wgt id="65">3.16687e-12</wgt>
  <wgt id="66">3.17301e-12</wgt>
  <wgt id="67">3.16225e-12</wgt>
  <wgt id="68">3.1725e-12</wgt>
  <wgt id="69">3.16948e-12</wgt>
  <wgt id="70">3.16851e-12</wgt>
  <wgt id="71">3.16985e-12</wgt>
  <wgt id="72">3.15599e-12</wgt>
  <wgt id="73">3.18477e-12</wgt>
  <wgt id="74">3.1807e-12</wgt>
  <wgt id="75">3.17344e-12</wgt>
  <wgt id="76">3.1902e-12</wgt>
  <wgt id="77">3.16847e-12</wgt>
  <wgt id="78">3.17021e-12</wgt>
  <wgt id="79">3.18168e-12</wgt>
  <wgt id="80">3.15061e-12</wgt>
  <wgt id="81">3.17279e-12</wgt>
  <wgt id="82">3.17518e-12</wgt>
  <wgt id="83">3.15622e-12</wgt>
  <wgt id="84">3.16595e-12</wgt>
  <wgt id="85">3.1625e-12</wgt>
  <wgt id="86">3.18345e-12</wgt>
  <wgt id="87">3.14824e-12</wgt>
  <wgt id="88">3.17954e-12</wgt>
  <wgt id="89">3.17675e-12</wgt>
  <wgt id="90">3.18339e-12</wgt>
  <wgt id="91">3.17669e-12</wgt>
  <wgt id="92">3.18055e-12</wgt>
  <wgt id="93">3.17723e-12</wgt>
  <wgt id="94">3.16668e-12</wgt>
  <wgt id="95">3.1835e-12</wgt>
  <wgt id="96">3.17918e-12</wgt>
  <wgt id="97">3.16257e-12</wgt>
  <wgt id="98">3.17301e-12</wgt>
  <wgt id="99">3.1665e-12</wgt>
  <wgt id="100">3.18068e-12</wgt>
  <wgt id="101">3.17159e-12</wgt>
  <wgt id="102">3.16944e-12</wgt>
  <wgt id="103">3.18272e-12</wgt>
  <wgt id="104">3.16765e-12</wgt>
  <wgt id="105">3.17859e-12</wgt>
  <wgt id="106">3.1659e-12</wgt>
  <wgt id="107">3.18916e-12</wgt>
  <wgt id="108">3.16748e-12</wgt>
  <wgt id="109">3.17686e-12</wgt>
  <wgt id="110">3.17142e-12</wgt>
  <wgt id="111">3.18582e-12</wgt>
  <wgt id="112">3.20383e-12</wgt>
  <wgt id="113">4.47493e-12</wgt>
  <wgt id="114">4.29553e-12</wgt>
  <wgt id="115">4.2193e-12</wgt>
  <wgt id="116">5.84193e-12</wgt>
  <wgt id="117">3.50813e-12</wgt>
  <wgt id="118">3.52098e-12</wgt>
  <wgt id="119">3.50084e-12</wgt>
  <wgt id="120">3.50832e-12</wgt>
  <wgt id="121">3.50803e-12</wgt>
  <wgt id="122">3.50243e-12</wgt>
  <wgt id="123">3.51605e-12</wgt>
  <wgt id="124">3.50337e-12</wgt>
  <wgt id="125">3.51121e-12</wgt>
  <wgt id="126">3.51361e-12</wgt>
  <wgt id="127">3.50449e-12</wgt>
  <wgt id="128">3.51891e-12</wgt>
  <wgt id="129">3.49741e-12</wgt>
  <wgt id="130">3.52637e-12</wgt>
  <wgt id="131">3.48929e-12</wgt>
  <wgt id="132">3.41271e-12</wgt>
  <wgt id="133">3.62157e-12</wgt>
  <wgt id="134">3.47032e-12</wgt>
  <wgt id="135">3.53779e-12</wgt>
  <wgt id="136">3.5593e-12</wgt>
  <wgt id="137">3.44655e-12</wgt>
  <wgt id="138">3.66068e-12</wgt>
  <wgt id="139">3.36266e-12</wgt>
  <wgt id="140">3.48938e-12</wgt>
  <wgt id="141">3.52246e-12</wgt>
  <wgt id="142">3.50763e-12</wgt>
  <wgt id="143">3.51744e-12</wgt>
  <wgt id="144">3.37652e-12</wgt>
  <wgt id="145">3.63452e-12</wgt>
  <wgt id="146">3.55008e-12</wgt>
  <wgt id="147">3.47411e-12</wgt>
  <wgt id="148">3.5205e-12</wgt>
  <wgt id="149">3.50723e-12</wgt>
  <wgt id="150">3.53798e-12</wgt>
  <wgt id="151">3.49421e-12</wgt>
  <wgt id="152">3.50932e-12</wgt>
  <wgt id="153">3.50771e-12</wgt>
  <wgt id="154">3.52225e-12</wgt>
  <wgt id="155">3.48655e-12</wgt>
  <wgt id="156">3.61203e-12</wgt>
  <wgt id="157">3.41023e-12</wgt>
  <wgt id="158">4.20988e-12</wgt>
  <wgt id="159">4.2277e-12</wgt>
  <wgt id="160">4.19553e-12</wgt>
  <wgt id="161">4.19918e-12</wgt>
  <wgt id="162">4.2218e-12</wgt>
  <wgt id="163">4.20512e-12</wgt>
  <wgt id="164">4.21686e-12</wgt>
  <wgt id="165">4.2115e-12</wgt>
  <wgt id="166">4.20861e-12</wgt>
  <wgt id="167">4.20688e-12</wgt>
  <wgt id="168">4.21402e-12</wgt>
  <wgt id="169">4.19242e-12</wgt>
  <wgt id="170">4.22076e-12</wgt>
  <wgt id="171">4.20624e-12</wgt>
  <wgt id="172">4.215e-12</wgt>
  <wgt id="173">4.20435e-12</wgt>
  <wgt id="174">4.2117e-12</wgt>
  <wgt id="175">4.08846e-12</wgt>
  <wgt id="176">4.36881e-12</wgt>
  <wgt id="177">4.23048e-12</wgt>
  <wgt id="178">4.19106e-12</wgt>
  <wgt id="179">4.41294e-12</wgt>
  <wgt id="180">3.89487e-12</wgt>
  <wgt id="181">4.07449e-12</wgt>
  <wgt id="182">4.29991e-12</wgt>
  <wgt id="183">4.12764e-12</wgt>
  <wgt id="184">4.2507e-12</wgt>
  <wgt id="185">4.16659e-12</wgt>
  <wgt id="186">4.26211e-12</wgt>
  <wgt id="187">4.1652e-12</wgt>
  <wgt id="188">4.28898e-12</wgt>
  <wgt id="189">4.17853e-12</wgt>
  <wgt id="190">4.22258e-12</wgt>
  <wgt id="191">4.22393e-12</wgt>
  <wgt id="192">4.2016e-12</wgt>
  <wgt id="193">4.27742e-12</wgt>
  <wgt id="194">4.176e-12</wgt>
  <wgt id="195">4.07255e-12</wgt>
  <wgt id="196">4.43911e-12</wgt>
  <wgt id="197">4.23211e-12</wgt>
  <wgt id="198">4.20453e-12</wgt>
  <wgt id="199">4.20988e-12</wgt>
  <wgt id="200">4.24943e-12</wgt>
  <wgt id="201">4.23572e-12</wgt>
  <wgt id="202">4.22242e-12</wgt>
  <wgt id="203">4.2031e-12</wgt>
  <wgt id="204">4.19348e-12</wgt>
  <wgt id="205">4.18562e-12</wgt>
  <wgt id="206">4.1083e-12</wgt>
  <wgt id="207">4.13279e-12</wgt>
  <wgt id="208">4.08408e-12</wgt>
  <wgt id="209">4.12067e-12</wgt>
  <wgt id="210">4.09922e-12</wgt>
  <wgt id="211">4.10684e-12</wgt>
  <wgt id="212">4.10941e-12</wgt>
  <wgt id="213">4.10793e-12</wgt>
  <wgt id="214">4.10885e-12</wgt>
  <wgt id="215">4.11134e-12</wgt>
  <wgt id="216">4.10613e-12</wgt>
  <wgt id="217">4.11845e-12</wgt>
  <wgt id="218">4.10048e-12</wgt>
  <wgt id="219">4.10339e-12</wgt>
  <wgt id="220">4.11127e-12</wgt>
  <wgt id="221">4.10883e-12</wgt>
  <wgt id="222">4.10622e-12</wgt>
  <wgt id="223">3.8794e-12</wgt>
  <wgt id="224">4.31784e-12</wgt>
  <wgt id="225">4.05767e-12</wgt>
  <wgt id="226">4.17244e-12</wgt>
  <wgt id="227">4.06893e-12</wgt>
  <wgt id="228">4.12555e-12</wgt>
  <wgt id="229">4.04991e-12</wgt>
  <wgt id="230">4.13728e-12</wgt>
  <wgt id="231">4.24127e-12</wgt>
  <wgt id="232">3.99943e-12</wgt>
  <wgt id="233">4.08378e-12</wgt>
  <wgt id="234">4.14875e-12</wgt>
  <wgt id="235">3.96503e-12</wgt>
  <wgt id="236">4.2279e-12</wgt>
  <wgt id="237">4.02238e-12</wgt>
  <wgt id="238">4.13701e-12</wgt>
  <wgt id="239">4.07306e-12</wgt>
  <wgt id="240">4.17151e-12</wgt>
  <wgt id="241">4.06068e-12</wgt>
  <wgt id="242">4.16495e-12</wgt>
  <wgt id="243">4.17323e-12</wgt>
  <wgt id="244">4.11492e-12</wgt>
  <wgt id="245">4.10622e-12</wgt>
  <wgt id="246">4.13337e-12</wgt>
  <wgt id="247">4.1083e-12</wgt>
  <wgt id="248">4.15002e-12</wgt>
  <wgt id="249">4.13531e-12</wgt>
  <wgt id="250">4.12036e-12</wgt>
  <wgt id="251">4.09963e-12</wgt>
  <wgt id="252">4.08929e-12</wgt>
  <wgt id="253">4.08203e-12</wgt>
  <wgt id="254">3.97876e-12</wgt>
  <wgt id="255">3.98237e-12</wgt>
  <wgt id="256">3.97488e-12</wgt>
  <wgt id="257">3.98186e-12</wgt>
  <wgt id="258">3.97647e-12</wgt>
  <wgt id="259">4.0054e-12</wgt>
  <wgt id="260">3.95303e-12</wgt>
  <wgt id="261">3.98488e-12</wgt>
  <wgt id="262">3.97153e-12</wgt>
  <wgt id="263">3.97615e-12</wgt>
  <wgt id="264">3.98179e-12</wgt>
  <wgt id="265">3.974e-12</wgt>
  <wgt id="266">3.98832e-12</wgt>
  <wgt id="267">3.98005e-12</wgt>
  <wgt id="268">3.97682e-12</wgt>
  <wgt id="269">3.9912e-12</wgt>
  <wgt id="270">3.97031e-12</wgt>
  <wgt id="271">3.96911e-12</wgt>
  <wgt id="272">3.9895e-12</wgt>
  <wgt id="273">3.96768e-12</wgt>
  <wgt id="274">3.9872e-12</wgt>
  <wgt id="275">3.95688e-12</wgt>
  <wgt id="276">4.00136e-12</wgt>
  <wgt id="277">3.95561e-12</wgt>
  <wgt id="278">3.99993e-12</wgt>
  <wgt id="279">3.90407e-12</wgt>
  <wgt id="280">4.07276e-12</wgt>
  <wgt id="281">3.96047e-12</wgt>
  <wgt id="282">3.98257e-12</wgt>
  <wgt id="283">3.8536e-12</wgt>
  <wgt id="284">4.1344e-12</wgt>
  <wgt id="285">3.77182e-12</wgt>
  <wgt id="286">4.15262e-12</wgt>
  <wgt id="287">3.99243e-12</wgt>
  <wgt id="288">3.96123e-12</wgt>
  <wgt id="289">4.00973e-12</wgt>
  <wgt id="290">3.9094e-12</wgt>
  <wgt id="291">3.9646e-12</wgt>
  <wgt id="292">3.97992e-12</wgt>
  <wgt id="293">3.94502e-12</wgt>
  <wgt id="294">4.01224e-12</wgt>
  <wgt id="295">3.89694e-12</wgt>
  <wgt id="296">4.07892e-12</wgt>
  <wgt id="297">3.97192e-12</wgt>
  <wgt id="298">3.9974e-12</wgt>
  <wgt id="299">3.96539e-12</wgt>
  <wgt id="300">4.01417e-12</wgt>
  <wgt id="301">3.90584e-12</wgt>
  <wgt id="302">4.1505e-12</wgt>
  <wgt id="303">3.93896e-12</wgt>
  <wgt id="304">4.00117e-12</wgt>
  <wgt id="305">3.95769e-12</wgt>
  <wgt id="306">3.96144e-12</wgt>
  <wgt id="307">3.95363e-12</wgt>
  <wgt id="308">3.96106e-12</wgt>
  <wgt id="309">3.95539e-12</wgt>
  <wgt id="310">3.98497e-12</wgt>
  <wgt id="311">3.93243e-12</wgt>
  <wgt id="312">3.96297e-12</wgt>
  <wgt id="313">3.95205e-12</wgt>
  <wgt id="314">3.95496e-12</wgt>
  <wgt id="315">3.96021e-12</wgt>
  <wgt id="316">3.95293e-12</wgt>
  <wgt id="317">3.96795e-12</wgt>
  <wgt id="318">3.96057e-12</wgt>
  <wgt id="319">3.95253e-12</wgt>
  <wgt id="320">3.97099e-12</wgt>
  <wgt id="321">3.95024e-12</wgt>
  <wgt id="322">3.94673e-12</wgt>
  <wgt id="323">3.97041e-12</wgt>
  <wgt id="324">3.94916e-12</wgt>
  <wgt id="325">3.96507e-12</wgt>
  <wgt id="326">3.93976e-12</wgt>
  <wgt id="327">3.98062e-12</wgt>
  <wgt id="328">3.93694e-12</wgt>
  <wgt id="329">3.96936e-12</wgt>
  <wgt id="330">4.07176e-12</wgt>
  <wgt id="331">3.84908e-12</wgt>
  <wgt id="332">3.94247e-12</wgt>
  <wgt id="333">3.95996e-12</wgt>
  <wgt id="334">3.86157e-12</wgt>
  <wgt id="335">4.07791e-12</wgt>
  <wgt id="336">3.81e-12</wgt>
  <wgt id="337">4.13984e-12</wgt>
  <wgt id="338">4.00533e-12</wgt>
  <wgt id="339">3.91368e-12</wgt>
  <wgt id="340">3.98602e-12</wgt>
  <wgt id="341">3.88713e-12</wgt>
  <wgt id="342">3.94754e-12</wgt>
  <wgt id="343">3.95143e-12</wgt>
  <wgt id="344">3.92791e-12</wgt>
  <wgt id="345">3.99231e-12</wgt>
  <wgt id="346">3.87364e-12</wgt>
  <wgt id="347">4.05419e-12</wgt>
  <wgt id="348">3.95187e-12</wgt>
  <wgt id="349">3.97406e-12</wgt>
  <wgt id="350">3.94112e-12</wgt>
  <wgt id="351">3.9997e-12</wgt>
  <wgt id="352">3.88213e-12</wgt>
  <wgt id="353">4.1284e-12</wgt>
  <wgt id="354">3.90016e-12</wgt>
  <wgt id="355">3.99212e-12</wgt>
  <wgt id="356">3.97876e-12</wgt>
  <wgt id="357">3.96464e-12</wgt>
  <wgt id="358">3.95769e-12</wgt>
  <wgt id="359">3.98256e-12</wgt>
  <wgt id="360">4.03506e-12</wgt>
  <wgt id="361">3.99707e-12</wgt>
  <wgt id="362">4.07387e-12</wgt>
  <wgt id="363">4.06368e-12</wgt>
  <wgt id="364">4.04548e-12</wgt>
  <wgt id="365">4.0306e-12</wgt>
  <wgt id="366">4.01496e-12</wgt>
  <wgt id="367">3.98469e-12</wgt>
  <wgt id="368">3.96612e-12</wgt>
  <wgt id="369">3.94611e-12</wgt>
  <wgt id="370">3.99707e-12</wgt>
  <wgt id="371">4.01409e-12</wgt>
  <wgt id="372">4.00458e-12</wgt>
  <wgt id="373">3.99102e-12</wgt>
  <wgt id="374">3.99418e-12</wgt>
  <wgt id="375">4.47305e-12</wgt>
  <wgt id="376">4.47349e-12</wgt>
  <wgt id="377">4.47258e-12</wgt>
  <wgt id="378">4.48987e-12</wgt>
  <wgt id="379">4.45645e-12</wgt>
  <wgt id="380">4.48578e-12</wgt>
  <wgt id="381">4.46802e-12</wgt>
  <wgt id="382">4.4946e-12</wgt>
  <wgt id="383">4.45181e-12</wgt>
  <wgt id="384">4.47599e-12</wgt>
  <wgt id="385">4.47037e-12</wgt>
  <wgt id="386">4.48873e-12</wgt>
  <wgt id="387">4.46638e-12</wgt>
  <wgt id="388">4.46913e-12</wgt>
  <wgt id="389">4.47802e-12</wgt>
  <wgt id="390">4.48384e-12</wgt>
  <wgt id="391">4.46161e-12</wgt>
  <wgt id="392">4.43464e-12</wgt>
  <wgt id="393">4.49489e-12</wgt>
  <wgt id="394">4.47715e-12</wgt>
  <wgt id="395">4.46738e-12</wgt>
  <wgt id="396">4.47964e-12</wgt>
  <wgt id="397">4.46837e-12</wgt>
  <wgt id="398">4.46206e-12</wgt>
  <wgt id="399">4.48379e-12</wgt>
  <wgt id="400">4.46616e-12</wgt>
  <wgt id="401">4.48861e-12</wgt>
  <wgt id="402">4.43331e-12</wgt>
  <wgt id="403">4.49604e-12</wgt>
  <wgt id="404">4.59499e-12</wgt>
  <wgt id="405">4.18242e-12</wgt>
  <wgt id="406">4.38533e-12</wgt>
  <wgt id="407">4.66707e-12</wgt>
  <wgt id="408">4.51882e-12</wgt>
  <wgt id="409">4.38815e-12</wgt>
  <wgt id="410">4.33048e-12</wgt>
  <wgt id="411">4.54121e-12</wgt>
  <wgt id="412">4.4633e-12</wgt>
  <wgt id="413">4.48768e-12</wgt>
  <wgt id="414">4.41613e-12</wgt>
  <wgt id="415">4.51739e-12</wgt>
  <wgt id="416">4.61609e-12</wgt>
  <wgt id="417">4.27646e-12</wgt>
  <wgt id="418">4.48133e-12</wgt>
  <wgt id="419">4.42884e-12</wgt>
  <wgt id="420">4.56979e-12</wgt>
  <wgt id="421">4.41064e-12</wgt>
  <wgt id="422">4.45193e-12</wgt>
  <wgt id="423">4.48327e-12</wgt>
  <wgt id="424">4.59399e-12</wgt>
  <wgt id="425">4.39229e-12</wgt>
  <wgt id="426">4.47305e-12</wgt>
  <wgt id="427">4.39861e-12</wgt>
  <wgt id="428">4.6514e-12</wgt>
  <wgt id="429">4.52813e-12</wgt>
  <wgt id="430">4.67062e-12</wgt>
  <wgt id="431">4.64183e-12</wgt>
  <wgt id="432">4.61539e-12</wgt>
  <wgt id="433">4.58953e-12</wgt>
  <wgt id="434">4.55689e-12</wgt>
  <wgt id="435">4.49212e-12</wgt>
  <wgt id="436">4.45925e-12</wgt>
  <wgt id="437">4.42747e-12</wgt>
  <wgt id="438">4.52813e-12</wgt>
  <wgt id="439">4.54224e-12</wgt>
  <wgt id="440">4.5336e-12</wgt>
  <wgt id="441">4.52421e-12</wgt>
  <wgt id="442">4.52106e-12</wgt>
  <wgt id="443">4.17486e-12</wgt>
  <wgt id="444">4.21364e-12</wgt>
  <wgt id="445">4.20237e-12</wgt>
  <wgt id="446">4.14432e-12</wgt>
  <wgt id="447">4.17329e-12</wgt>
  <wgt id="448">4.06998e-12</wgt>
  <wgt id="449">4.25569e-12</wgt>
  <wgt id="450">4.21211e-12</wgt>
  <wgt id="451">4.16397e-12</wgt>
  <wgt id="452">4.26853e-12</wgt>
  <wgt id="453">4.22263e-12</wgt>
  <wgt id="454">3.97017e-12</wgt>
  <wgt id="455">4.20204e-12</wgt>
  <wgt id="456">4.22604e-12</wgt>
  <wgt id="457">4.18943e-12</wgt>
  <wgt id="458">4.24391e-12</wgt>
  <wgt id="459">4.21178e-12</wgt>
  <wgt id="460">4.24377e-12</wgt>
  <wgt id="461">4.0787e-12</wgt>
  <wgt id="462">4.14415e-12</wgt>
  <wgt id="463">4.11188e-12</wgt>
  <wgt id="464">4.15369e-12</wgt>
  <wgt id="465">4.22076e-12</wgt>
  <wgt id="466">4.08906e-12</wgt>
  <wgt id="467">4.13905e-12</wgt>
  <wgt id="468">4.16865e-12</wgt>
  <wgt id="469">4.16459e-12</wgt>
  <wgt id="470">4.116e-12</wgt>
  <wgt id="471">4.12629e-12</wgt>
  <wgt id="472">4.20105e-12</wgt>
  <wgt id="473">4.03794e-12</wgt>
  <wgt id="474">3.0282e-12</wgt>
  <wgt id="475">3.04614e-12</wgt>
  <wgt id="476">2.99888e-12</wgt>
  <wgt id="477">3.04275e-12</wgt>
  <wgt id="478">3.06019e-12</wgt>
  <wgt id="479">2.90824e-12</wgt>
  <wgt id="480">3.17587e-12</wgt>
  <wgt id="481">3.03838e-12</wgt>
  <wgt id="482">3.01391e-12</wgt>
  <wgt id="483">3.00083e-12</wgt>
  <wgt id="484">3.15106e-12</wgt>
  <wgt id="485">2.83398e-12</wgt>
  <wgt id="486">3.17985e-12</wgt>
  <wgt id="487">2.97611e-12</wgt>
  <wgt id="488">3.072e-12</wgt>
  <wgt id="489">2.77567e-12</wgt>
  <wgt id="490">2.94989e-12</wgt>
  <wgt id="491">2.99827e-12</wgt>
  <wgt id="492">2.97801e-12</wgt>
  <wgt id="493">2.83484e-12</wgt>
  <wgt id="494">2.85509e-12</wgt>
  <wgt id="495">3.03374e-12</wgt>
  <wgt id="496">2.896e-12</wgt>
  <wgt id="497">2.85138e-12</wgt>
  <wgt id="498">3.11769e-12</wgt>
  <wgt id="499">3.03176e-12</wgt>
  <wgt id="500">2.96631e-12</wgt>
  <wgt id="501">3.14572e-12</wgt>
  <wgt id="502">3.09756e-12</wgt>
  <wgt id="503">2.99492e-12</wgt>
  <wgt id="504">3.11948e-12</wgt>
  <wgt id="505">3.10112e-12</wgt>
  <wgt id="506">2.88423e-12</wgt>
  <wgt id="507">3.0084e-12</wgt>
  <wgt id="508">3.17338e-12</wgt>
  <wgt id="509">2.88005e-12</wgt>
  <wgt id="510">3.0693e-12</wgt>
  <wgt id="511">2.88894e-12</wgt>
  <wgt id="512">3.19578e-12</wgt>
  <wgt id="513">3.14442e-12</wgt>
  <wgt id="514">3.1489e-12</wgt>
  <wgt id="515">3.07309e-12</wgt>
  <wgt id="516">3.29553e-12</wgt>
  <wgt id="517">3.10039e-12</wgt>
  <wgt id="518">3.12755e-12</wgt>
  <wgt id="519">2.91383e-12</wgt>
  <wgt id="520">3.08826e-12</wgt>
  <wgt id="521">3.00872e-12</wgt>
  <wgt id="522">3.15782e-12</wgt>
  <wgt id="523">2.91238e-12</wgt>
  <wgt id="524">3.04807e-12</wgt>
  <wgt id="525">3.0224e-12</wgt>
  <wgt id="526">3.14368e-12</wgt>
  <wgt id="527">3.00659e-12</wgt>
  <wgt id="528">3.03362e-12</wgt>
  <wgt id="529">2.93077e-12</wgt>
  <wgt id="530">3.15842e-12</wgt>
  <wgt id="531">2.9254e-12</wgt>
  <wgt id="532">3.26496e-12</wgt>
  <wgt id="533">2.97299e-12</wgt>
  <wgt id="534">2.94789e-12</wgt>
  <wgt id="535">3.03705e-12</wgt>
  <wgt id="536">3.0956e-12</wgt>
  <wgt id="537">2.92432e-12</wgt>
  <wgt id="538">3.02099e-12</wgt>
  <wgt id="539">2.96214e-12</wgt>
  <wgt id="540">3.16271e-12</wgt>
  <wgt id="541">3.00552e-12</wgt>
  <wgt id="542">2.9817e-12</wgt>
  <wgt id="543">2.95643e-12</wgt>
  <wgt id="544">3.0863e-12</wgt>
  <wgt id="545">2.8976e-12</wgt>
  <wgt id="546">2.83221e-12</wgt>
  <wgt id="547">2.93773e-12</wgt>
  <wgt id="548">2.91267e-12</wgt>
  <wgt id="549">2.97189e-12</wgt>
  <wgt id="550">2.96467e-12</wgt>
  <wgt id="551">3.0547e-12</wgt>
  <wgt id="552">2.81862e-12</wgt>
  <wgt id="553">2.89442e-12</wgt>
  <wgt id="554">3.20225e-12</wgt>
  <wgt id="555">3.10533e-12</wgt>
  <wgt id="556">2.94989e-12</wgt>
  <wgt id="557">3.10555e-12</wgt>
  <wgt id="558">2.98459e-12</wgt>
  <wgt id="559">3.022e-12</wgt>
  <wgt id="560">3.34826e-12</wgt>
  <wgt id="561">3.06485e-12</wgt>
  <wgt id="562">3.13801e-12</wgt>
  <wgt id="563">3.27065e-12</wgt>
  <wgt id="564">3.17827e-12</wgt>
  <wgt id="565">3.06712e-12</wgt>
  <wgt id="566">2.98587e-12</wgt>
  <wgt id="567">3.01804e-12</wgt>
  <wgt id="568">2.9525e-12</wgt>
  <wgt id="569">3.06026e-12</wgt>
  <wgt id="570">2.95083e-12</wgt>
  <wgt id="571">3.34982e-12</wgt>
  <wgt id="572">2.94705e-12</wgt>
  <wgt id="573">2.93776e-12</wgt>
  <wgt id="574">2.94974e-12</wgt>
  <wgt id="575">3.34527e-12</wgt>
  <wgt id="576">3.56835e-12</wgt>
  <wgt id="577">3.48863e-12</wgt>
  <wgt id="578">3.42214e-12</wgt>
  <wgt id="579">3.47064e-12</wgt>
  <wgt id="580">3.54234e-12</wgt>
  <wgt id="581">3.67277e-12</wgt>
  <wgt id="582">3.52472e-12</wgt>
  <wgt id="583">3.39468e-12</wgt>
  <wgt id="584">3.31326e-12</wgt>
  <wgt id="585">3.15002e-12</wgt>
  <wgt id="586">3.17173e-12</wgt>
  <wgt id="587">3.40739e-12</wgt>
  <wgt id="588">3.55627e-12</wgt>
  <wgt id="589">3.59373e-12</wgt>
  <wgt id="590">3.32095e-12</wgt>
  <wgt id="591">3.44713e-12</wgt>
  <wgt id="592">3.09971e-12</wgt>
  <wgt id="593">3.26426e-12</wgt>
  <wgt id="594">3.3174e-12</wgt>
  <wgt id="595">3.46405e-12</wgt>
  <wgt id="596">3.8299e-12</wgt>
  <wgt id="597">3.36684e-12</wgt>
  <wgt id="598">3.33571e-12</wgt>
  <wgt id="599">3.53841e-12</wgt>
  <wgt id="600">3.4939e-12</wgt>
  <wgt id="601">3.21807e-12</wgt>
  <wgt id="602">3.24688e-12</wgt>
  <wgt id="603">3.1686e-12</wgt>
  <wgt id="604">3.41915e-12</wgt>
  <wgt id="605">3.40636e-12</wgt>
  <wgt id="606">3.39726e-12</wgt>
  <wgt id="607">3.45054e-12</wgt>
  <wgt id="608">3.4606e-12</wgt>
  <wgt id="609">3.28168e-12</wgt>
  <wgt id="610">3.20959e-12</wgt>
  <wgt id="611">3.23063e-12</wgt>
  <wgt id="612">3.48524e-12</wgt>
  <wgt id="613">3.22357e-12</wgt>
  <wgt id="614">3.32244e-12</wgt>
  <wgt id="615">3.37105e-12</wgt>
  <wgt id="616">3.29061e-12</wgt>
  <wgt id="617">3.46338e-12</wgt>
  <wgt id="618">3.65811e-12</wgt>
  <wgt id="619">3.28296e-12</wgt>
  <wgt id="620">3.46148e-12</wgt>
  <wgt id="621">3.31553e-12</wgt>
  <wgt id="622">3.40739e-12</wgt>
  <wgt id="623">3.38047e-12</wgt>
  <wgt id="624">3.36614e-12</wgt>
  <wgt id="625">3.21247e-12</wgt>
  <wgt id="626">3.05273e-12</wgt>
  <wgt id="627">3.07346e-12</wgt>
  <wgt id="628">3.34539e-12</wgt>
  <wgt id="629">3.36074e-12</wgt>
  <wgt id="630">3.24084e-12</wgt>
  <wgt id="631">3.41103e-12</wgt>
  <wgt id="632">3.08586e-12</wgt>
  <wgt id="633">3.32858e-12</wgt>
  <wgt id="634">3.22294e-12</wgt>
  <wgt id="635">3.10293e-12</wgt>
  <wgt id="636">3.39105e-12</wgt>
  <wgt id="637">3.33096e-12</wgt>
  <wgt id="638">3.2038e-12</wgt>
  <wgt id="639">3.22812e-12</wgt>
  <wgt id="640">3.289e-12</wgt>
  <wgt id="641">3.48362e-12</wgt>
  <wgt id="642">3.10852e-12</wgt>
  <wgt id="643">3.27536e-12</wgt>
  <wgt id="644">3.00981e-12</wgt>
  <wgt id="645">3.34487e-12</wgt>
  <wgt id="646">3.13948e-12</wgt>
  <wgt id="647">3.36044e-12</wgt>
  <wgt id="648">3.47311e-12</wgt>
  <wgt id="649">3.36195e-12</wgt>
  <wgt id="650">3.20157e-12</wgt>
  <wgt id="651">3.55678e-12</wgt>
  <wgt id="652">3.22851e-12</wgt>
  <wgt id="653">3.21968e-12</wgt>
  <wgt id="654">3.34352e-12</wgt>
  <wgt id="655">3.24148e-12</wgt>
  <wgt id="656">3.35112e-12</wgt>
  <wgt id="657">3.64363e-12</wgt>
  <wgt id="658">3.36139e-12</wgt>
  <wgt id="659">3.20201e-12</wgt>
  <wgt id="660">3.2812e-12</wgt>
  <wgt id="661">3.27101e-12</wgt>
  <wgt id="662">3.29756e-12</wgt>
  <wgt id="663">3.39436e-12</wgt>
  <wgt id="664">3.36577e-12</wgt>
  <wgt id="665">3.32132e-12</wgt>
  <wgt id="666">3.27704e-12</wgt>
  <wgt id="667">3.514e-12</wgt>
  <wgt id="668">3.31502e-12</wgt>
  <wgt id="669">3.36279e-12</wgt>
  <wgt id="670">3.49399e-12</wgt>
  <wgt id="671">3.36915e-12</wgt>
  <wgt id="672">3.23463e-12</wgt>
  <wgt id="673">3.51092e-12</wgt>
  <wgt id="674">3.24735e-12</wgt>
  <wgt id="675">3.25121e-12</wgt>
  <wgt id="676">4.31663e-12</wgt>
  <wgt id="677">4.36642e-12</wgt>
  <wgt id="678">4.68159e-12</wgt>
  <wgt id="679">4.31217e-12</wgt>
  <wgt id="680">4.33078e-12</wgt>
  <wgt id="681">4.25407e-12</wgt>
  <wgt id="682">4.51486e-12</wgt>
  <wgt id="683">4.05264e-12</wgt>
  <wgt id="684">4.52975e-12</wgt>
  <wgt id="685">4.26935e-12</wgt>
  <wgt id="686">4.31211e-12</wgt>
  <wgt id="687">4.46965e-12</wgt>
  <wgt id="688">4.19604e-12</wgt>
  <wgt id="689">4.52092e-12</wgt>
  <wgt id="690">4.4393e-12</wgt>
  <wgt id="691">4.45022e-12</wgt>
  <wgt id="692">4.22789e-12</wgt>
  <wgt id="693">5.55092e-12</wgt>
  <wgt id="694">4.7128e-12</wgt>
  <wgt id="695">4.0867e-12</wgt>
  <wgt id="696">4.14856e-12</wgt>
  <wgt id="697">3.96922e-12</wgt>
  <wgt id="698">3.64797e-12</wgt>
  <wgt id="699">3.69575e-12</wgt>
  <wgt id="700">3.80256e-12</wgt>
  <wgt id="701">4.31346e-12</wgt>
  <wgt id="702">4.1923e-12</wgt>
  <wgt id="703">5.24656e-12</wgt>
  <wgt id="704">4.84261e-12</wgt>
  <wgt id="705">4.79939e-12</wgt>
  <wgt id="706">4.05472e-12</wgt>
  <wgt id="707">4.06602e-12</wgt>
  <wgt id="708">4.16415e-12</wgt>
  <wgt id="709">4.19203e-12</wgt>
  <wgt id="710">3.74314e-12</wgt>
  <wgt id="711">4.49083e-12</wgt>
  <wgt id="712">4.08163e-12</wgt>
  <wgt id="713">4.65526e-12</wgt>
  <wgt id="714">3.96159e-12</wgt>
  <wgt id="715">4.15898e-12</wgt>
  <wgt id="716">4.15826e-12</wgt>
  <wgt id="717">3.83762e-12</wgt>
  <wgt id="718">4.40793e-12</wgt>
  <wgt id="719">3.92192e-12</wgt>
  <wgt id="720">4.33323e-12</wgt>
  <wgt id="721">3.72471e-12</wgt>
  <wgt id="722">3.5079e-12</wgt>
  <wgt id="723">4.79079e-12</wgt>
  <wgt id="724">4.64645e-12</wgt>
  <wgt id="725">4.51525e-12</wgt>
  <wgt id="726">4.30249e-12</wgt>
  <wgt id="727">4.30548e-12</wgt>
  <wgt id="728">4.19904e-12</wgt>
  <wgt id="729">4.04992e-12</wgt>
  <wgt id="730">4.74483e-12</wgt>
  <wgt id="731">4.23959e-12</wgt>
  <wgt id="732">4.96338e-12</wgt>
  <wgt id="733">4.06897e-12</wgt>
  <wgt id="734">4.45016e-12</wgt>
  <wgt id="735">4.34562e-12</wgt>
  <wgt id="736">4.05038e-12</wgt>
  <wgt id="737">4.1446e-12</wgt>
  <wgt id="738">4.11225e-12</wgt>
  <wgt id="739">4.60077e-12</wgt>
  <wgt id="740">5.02407e-12</wgt>
  <wgt id="741">4.32476e-12</wgt>
  <wgt id="742">4.20134e-12</wgt>
  <wgt id="743">3.96675e-12</wgt>
  <wgt id="744">4.23255e-12</wgt>
  <wgt id="745">4.66044e-12</wgt>
  <wgt id="746">4.78468e-12</wgt>
  <wgt id="747">3.64799e-12</wgt>
  <wgt id="748">4.19483e-12</wgt>
  <wgt id="749">4.48525e-12</wgt>
  <wgt id="750">4.63751e-12</wgt>
  <wgt id="751">4.35695e-12</wgt>
  <wgt id="752">3.9011e-12</wgt>
  <wgt id="753">3.9129e-12</wgt>
  <wgt id="754">4.51111e-12</wgt>
  <wgt id="755">4.24487e-12</wgt>
  <wgt id="756">4.21753e-12</wgt>
  <wgt id="757">3.79065e-12</wgt>
  <wgt id="758">4.22277e-12</wgt>
  <wgt id="759">4.72113e-12</wgt>
  <wgt id="760">4.18787e-12</wgt>
  <wgt id="761">4.72033e-12</wgt>
  <wgt id="762">4.74188e-12</wgt>
  <wgt id="763">4.37076e-12</wgt>
  <wgt id="764">4.57825e-12</wgt>
  <wgt id="765">4.37022e-12</wgt>
  <wgt id="766">4.35403e-12</wgt>
  <wgt id="767">4.40253e-12</wgt>
  <wgt id="768">3.95737e-12</wgt>
  <wgt id="769">4.56117e-12</wgt>
  <wgt id="770">4.11683e-12</wgt>
  <wgt id="771">5.24809e-12</wgt>
  <wgt id="772">4.18296e-12</wgt>
  <wgt id="773">4.31081e-12</wgt>
  <wgt id="774">3.48757e-12</wgt>
  <wgt id="775">4.52468e-12</wgt>
  <wgt id="776">4.86804e-12</wgt>
  <wgt id="777">3.89755e-12</wgt>
  <wgt id="778">2.91796e-12</wgt>
  <wgt id="779">1.93869e-12</wgt>
  <wgt id="780">1.26396e-12</wgt>
  <wgt id="781">3.34524e-12</wgt>
  <wgt id="782">3.47982e-12</wgt>
  <wgt id="783">1.81794e-12</wgt>
  <wgt id="784">2.17475e-12</wgt>
  <wgt id="785">4.21877e-12</wgt>
  <wgt id="786">1.79878e-12</wgt>
  <wgt id="787">3.67284e-12</wgt>
  <wgt id="788">8.86531e-13</wgt>
  <wgt id="789">2.15457e-12</wgt>
  <wgt id="790">1.78573e-12</wgt>
  <wgt id="791">3.24977e-12</wgt>
  <wgt id="792">3.94566e-12</wgt>
  <wgt id="793">2.80204e-12</wgt>
  <wgt id="794">1.66358e-12</wgt>
  <wgt id="795">3.89847e-12</wgt>
  <wgt id="796">4.05936e-12</wgt>
  <wgt id="797">3.74918e-12</wgt>
  <wgt id="798">2.32073e-12</wgt>
  <wgt id="799">3.5991e-12</wgt>
  <wgt id="800">2.29272e-12</wgt>
  <wgt id="801">2.75697e-12</wgt>
  <wgt id="802">1.61401e-12</wgt>
  <wgt id="803">4.58953e-12</wgt>
  <wgt id="804">3.8961e-12</wgt>
  <wgt id="805">3.82092e-12</wgt>
  <wgt id="806">3.19285e-12</wgt>
  <wgt id="807">2.83319e-12</wgt>
  <wgt id="808">2.78582e-12</wgt>
  <wgt id="809">2.64761e-12</wgt>
  <wgt id="810">3.34677e-12</wgt>
  <wgt id="811">3.08649e-12</wgt>
  <wgt id="812">1.81119e-12</wgt>
  <wgt id="813">1.93279e-12</wgt>
  <wgt id="814">2.1104e-12</wgt>
  <wgt id="815">1.84578e-12</wgt>
  <wgt id="816">1.93471e-12</wgt>
  <wgt id="817">2.9604e-12</wgt>
  <wgt id="818">3.67295e-12</wgt>
  <wgt id="819">1.91911e-12</wgt>
  <wgt id="820">2.78595e-12</wgt>
  <wgt id="821">3.5136e-12</wgt>
  <wgt id="822">2.3435e-12</wgt>
  <wgt id="823">3.67243e-12</wgt>
  <wgt id="824">4.41031e-12</wgt>
  <wgt id="825">1.55449e-12</wgt>
  <wgt id="826">3.54975e-12</wgt>
  <wgt id="827">1.36219e-12</wgt>
  <wgt id="828">3.77291e-12</wgt>
  <wgt id="829">3.01647e-12</wgt>
  <wgt id="830">1.47114e-12</wgt>
  <wgt id="831">3.3926e-12</wgt>
  <wgt id="832">5.189e-12</wgt>
  <wgt id="833">2.39387e-12</wgt>
  <wgt id="834">5.04171e-12</wgt>
  <wgt id="835">2.11465e-12</wgt>
  <wgt id="836">2.47981e-12</wgt>
  <wgt id="837">3.43275e-12</wgt>
  <wgt id="838">2.41833e-12</wgt>
  <wgt id="839">3.37528e-12</wgt>
  <wgt id="840">2.51848e-12</wgt>
  <wgt id="841">4.05341e-12</wgt>
  <wgt id="842">2.84358e-12</wgt>
  <wgt id="843">3.12494e-12</wgt>
  <wgt id="844">3.21605e-12</wgt>
  <wgt id="845">5.03776e-12</wgt>
  <wgt id="846">2.98941e-12</wgt>
  <wgt id="847">3.09955e-12</wgt>
  <wgt id="848">1.92274e-12</wgt>
  <wgt id="849">3.15037e-12</wgt>
  <wgt id="850">4.38795e-12</wgt>
  <wgt id="851">3.42226e-12</wgt>
  <wgt id="852">1.68927e-12</wgt>
  <wgt id="853">3.55652e-12</wgt>
  <wgt id="854">4.00653e-12</wgt>
  <wgt id="855">3.5876e-12</wgt>
  <wgt id="856">1.46438e-12</wgt>
  <wgt id="857">2.61811e-12</wgt>
  <wgt id="858">2.72838e-12</wgt>
  <wgt id="859">2.79624e-12</wgt>
  <wgt id="860">3.67508e-12</wgt>
  <wgt id="861">2.44604e-12</wgt>
  <wgt id="862">2.98247e-12</wgt>
  <wgt id="863">3.34452e-12</wgt>
  <wgt id="864">3.03848e-12</wgt>
  <wgt id="865">4.66609e-12</wgt>
  <wgt id="866">5.16717e-12</wgt>
  <wgt id="867">2.97827e-12</wgt>
  <wgt id="868">3.00321e-12</wgt>
  <wgt id="869">1.77107e-12</wgt>
  <wgt id="870">2.04994e-12</wgt>
  <wgt id="871">2.0334e-12</wgt>
  <wgt id="872">4.09076e-12</wgt>
  <wgt id="873">2.33512e-12</wgt>
  <wgt id="874">3.22527e-12</wgt>
  <wgt id="875">2.30783e-12</wgt>
  <wgt id="876">3.94089e-12</wgt>
  <wgt id="877">3.35004e-12</wgt>
  <wgt id="878">2.33743e-12</wgt>
  <wgt id="879">4.31663e-12</wgt>
  <wgt id="880">4.36642e-12</wgt>
  <wgt id="881">4.68159e-12</wgt>
  <wgt id="882">4.31217e-12</wgt>
  <wgt id="883">4.33078e-12</wgt>
  <wgt id="884">4.25407e-12</wgt>
  <wgt id="885">4.51486e-12</wgt>
  <wgt id="886">4.05264e-12</wgt>
  <wgt id="887">4.52975e-12</wgt>
  <wgt id="888">4.26935e-12</wgt>
  <wgt id="889">4.31211e-12</wgt>
  <wgt id="890">4.46965e-12</wgt>
  <wgt id="891">4.19604e-12</wgt>
  <wgt id="892">4.52092e-12</wgt>
  <wgt id="893">4.4393e-12</wgt>
  <wgt id="894">4.45022e-12</wgt>
  <wgt id="895">4.22789e-12</wgt>
  <wgt id="896">5.55092e-12</wgt>
  <wgt id="897">4.7128e-12</wgt>
  <wgt id="898">4.0867e-12</wgt>
  <wgt id="899">4.14856e-12</wgt>
  <wgt id="900">3.96922e-12</wgt>
  <wgt id="901">3.64797e-12</wgt>
  <wgt id="902">3.69575e-12</wgt>
  <wgt id="903">3.80256e-12</wgt>
  <wgt id="904">4.31346e-12</wgt>
  <wgt id="905">4.1923e-12</wgt>
  <wgt id="906">5.24656e-12</wgt>
  <wgt id="907">4.84261e-12</wgt>
  <wgt id="908">4.79939e-12</wgt>
  <wgt id="909">4.05472e-12</wgt>
  <wgt id="910">4.06602e-12</wgt>
  <wgt id="911">4.16415e-12</wgt>
  <wgt id="912">4.19203e-12</wgt>
  <wgt id="913">3.74314e-12</wgt>
  <wgt id="914">4.49083e-12</wgt>
  <wgt id="915">4.08163e-12</wgt>
  <wgt id="916">4.65526e-12</wgt>
  <wgt id="917">3.96159e-12</wgt>
  <wgt id="918">4.15898e-12</wgt>
  <wgt id="919">4.15826e-12</wgt>
  <wgt id="920">3.83762e-12</wgt>
  <wgt id="921">4.40793e-12</wgt>
  <wgt id="922">3.92192e-12</wgt>
  <wgt id="923">4.33323e-12</wgt>
  <wgt id="924">3.72471e-12</wgt>
  <wgt id="925">3.5079e-12</wgt>
  <wgt id="926">4.79079e-12</wgt>
  <wgt id="927">4.64645e-12</wgt>
  <wgt id="928">4.51525e-12</wgt>
  <wgt id="929">4.30249e-12</wgt>
  <wgt id="930">4.30548e-12</wgt>
  <wgt id="931">4.19904e-12</wgt>
  <wgt id="932">4.04992e-12</wgt>
  <wgt id="933">4.74483e-12</wgt>
  <wgt id="934">4.23959e-12</wgt>
  <wgt id="935">4.96338e-12</wgt>
  <wgt id="936">4.06897e-12</wgt>
  <wgt id="937">4.45016e-12</wgt>
  <wgt id="938">4.34562e-12</wgt>
  <wgt id="939">4.05038e-12</wgt>
  <wgt id="940">4.1446e-12</wgt>
  <wgt id="941">4.11225e-12</wgt>
  <wgt id="942">4.60077e-12</wgt>
  <wgt id="943">5.02407e-12</wgt>
  <wgt id="944">4.32476e-12</wgt>
  <wgt id="945">4.20134e-12</wgt>
  <wgt id="946">3.96675e-12</wgt>
  <wgt id="947">4.23255e-12</wgt>
  <wgt id="948">4.66044e-12</wgt>
  <wgt id="949">4.78468e-12</wgt>
  <wgt id="950">3.64799e-12</wgt>
  <wgt id="951">4.19483e-12</wgt>
  <wgt id="952">4.48525e-12</wgt>
  <wgt id="953">4.63751e-12</wgt>
  <wgt id="954">4.35695e-12</wgt>
  <wgt id="955">3.9011e-12</wgt>
  <wgt id="956">3.9129e-12</wgt>
  <wgt id="957">4.51111e-12</wgt>
  <wgt id="958">4.24487e-12</wgt>
  <wgt id="959">4.21753e-12</wgt>
  <wgt id="960">3.79065e-12</wgt>
  <wgt id="961">4.22277e-12</wgt>
  <wgt id="962">4.72113e-12</wgt>
  <wgt id="963">4.18787e-12</wgt>
  <wgt id="964">4.72033e-12</wgt>
  <wgt id="965">4.74188e-12</wgt>
  <wgt id="966">4.37076e-12</wgt>
  <wgt id="967">4.57825e-12</wgt>
  <wgt id="968">4.37022e-12</wgt>
  <wgt id="969">4.35403e-12</wgt>
  <wgt id="970">4.40253e-12</wgt>
  <wgt id="971">3.95737e-12</wgt>
  <wgt id="972">4.56117e-12</wgt>
  <wgt id="973">4.11683e-12</wgt>
  <wgt id="974">5.24809e-12</wgt>
  <wgt id="975">4.18296e-12</wgt>
  <wgt id="976">4.31081e-12</wgt>
  <wgt id="977">3.48757e-12</wgt>
  <wgt id="978">4.52468e-12</wgt>
  <wgt id="979">4.86804e-12</wgt>
  <wgt id="980">4.29028e-12</wgt>
  <wgt id="981">4.39225e-12</wgt>
  <wgt id="982">4.18033e-12</wgt>
</rwgt>
</event>
<event>
 5   1  0.3028200E-11  0.2152811E+04  0.7818608E-02  0.7766881E-01
       21   -1    0    0  502  501  0.00000000000E+00  0.00000000000E+00  0.14516688747E+04  0.14516688747E+04  0.00000000000E+00 0. -1.
       21   -1    0    0  501  502 -0.00000000000E+00 -0.00000000000E+00 -0.79814983759E+03  0.79814983759E+03  0.00000000000E+00 0.  1.
       39    2    1    2    0    0  0.00000000000E+00  0.00000000000E+00  0.65351903709E+03  0.22498187123E+04  0.21528114423E+04 0.  0.
       25    1    3    3    0    0  0.58033341839E+03  0.89587688889E+03  0.26369116366E+03  0.11065894931E+04  0.12500000000E+03 0.  0.
       25    1    3    3    0    0 -0.58033341839E+03 -0.89587688889E+03  0.38982787342E+03  0.11432292191E+04  0.12500000000E+03 0.  0.
<mgrwt>
<rscale>  0 0.21528114E+04</rscale>
<asrwt>0</asrwt>
<pdfrwt beam="1">  1       21 0.22333367E+00 0.21528114E+04</pdfrwt>
<pdfrwt beam="2">  1       21 0.12279228E+00 0.21528114E+04</pdfrwt>
<totfact> 0.19323822E+01</totfact>
</mgrwt>
<rwgt>
  <wgt id="1">3.0282e-12</wgt>
  <wgt id="2">2.64392e-12</wgt>
  <wgt id="3">3.50364e-12</wgt>
  <wgt id="4">3.0282e-12</wgt>
  <wgt id="5">2.64392e-12</wgt>
  <wgt id="6">3.50364e-12</wgt>
  <wgt id="7">3.0282e-12</wgt>
  <wgt id="8">2.64392e-12</wgt>
  <wgt id="9">3.50364e-12</wgt>
  <wgt id="10">3.12289e-12</wgt>
  <wgt id="11">3.12058e-12</wgt>
  <wgt id="12">3.11773e-12</wgt>
  <wgt id="13">3.11287e-12</wgt>
  <wgt id="14">3.13411e-12</wgt>
  <wgt id="15">3.12795e-12</wgt>
  <wgt id="16">3.1176e-12</wgt>
  <wgt id="17">3.13065e-12</wgt>
  <wgt id="18">3.1184e-12</wgt>
  <wgt id="19">3.12924e-12</wgt>
  <wgt id="20">3.11489e-12</wgt>
  <wgt id="21">3.10323e-12</wgt>
  <wgt id="22">3.10977e-12</wgt>
  <wgt id="23">3.09335e-12</wgt>
  <wgt id="24">3.10717e-12</wgt>
  <wgt id="25">3.11482e-12</wgt>
  <wgt id="26">3.1338e-12</wgt>
  <wgt id="27">3.12173e-12</wgt>
  <wgt id="28">3.10757e-12</wgt>
  <wgt id="29">3.12532e-12</wgt>
  <wgt id="30">3.11098e-12</wgt>
  <wgt id="31">3.13324e-12</wgt>
  <wgt id="32">3.11423e-12</wgt>
  <wgt id="33">3.12913e-12</wgt>
  <wgt id="34">3.11158e-12</wgt>
  <wgt id="35">3.11685e-12</wgt>
  <wgt id="36">3.13157e-12</wgt>
  <wgt id="37">3.11472e-12</wgt>
  <wgt id="38">3.11468e-12</wgt>
  <wgt id="39">3.15819e-12</wgt>
  <wgt id="40">3.12808e-12</wgt>
  <wgt id="41">3.12179e-12</wgt>
  <wgt id="42">3.1298e-12</wgt>
  <wgt id="43">3.12359e-12</wgt>
  <wgt id="44">3.11656e-12</wgt>
  <wgt id="45">3.12789e-12</wgt>
  <wgt id="46">3.12435e-12</wgt>
  <wgt id="47">3.11686e-12</wgt>
  <wgt id="48">3.12287e-12</wgt>
  <wgt id="49">3.12415e-12</wgt>
  <wgt id="50">3.13234e-12</wgt>
  <wgt id="51">3.12969e-12</wgt>
  <wgt id="52">3.12053e-12</wgt>
  <wgt id="53">3.10728e-12</wgt>
  <wgt id="54">3.11933e-12</wgt>
  <wgt id="55">3.12228e-12</wgt>
  <wgt id="56">3.13496e-12</wgt>
  <wgt id="57">3.13182e-12</wgt>
  <wgt id="58">3.10648e-12</wgt>
  <wgt id="59">3.11432e-12</wgt>
  <wgt id="60">3.12568e-12</wgt>
  <wgt id="61">3.11222e-12</wgt>
  <wgt id="62">3.11705e-12</wgt>
  <wgt id="63">3.12201e-12</wgt>
  <wgt id="64">3.12538e-12</wgt>
  <wgt id="65">3.12742e-12</wgt>
  <wgt id="66">3.1192e-12</wgt>
  <wgt id="67">3.11232e-12</wgt>
  <wgt id="68">3.12083e-12</wgt>
  <wgt id="69">3.12348e-12</wgt>
  <wgt id="70">3.12291e-12</wgt>
  <wgt id="71">3.1223e-12</wgt>
  <wgt id="72">3.1175e-12</wgt>
  <wgt id="73">3.12487e-12</wgt>
  <wgt id="74">3.12382e-12</wgt>
  <wgt id="75">3.11932e-12</wgt>
  <wgt id="76">3.1294e-12</wgt>
  <wgt id="77">3.12221e-12</wgt>
  <wgt id="78">3.12324e-12</wgt>
  <wgt id="79">3.12946e-12</wgt>
  <wgt id="80">3.11192e-12</wgt>
  <wgt id="81">3.12007e-12</wgt>
  <wgt id="82">3.12293e-12</wgt>
  <wgt id="83">3.11218e-12</wgt>
  <wgt id="84">3.11881e-12</wgt>
  <wgt id="85">3.11635e-12</wgt>
  <wgt id="86">3.13148e-12</wgt>
  <wgt id="87">3.10761e-12</wgt>
  <wgt id="88">3.1259e-12</wgt>
  <wgt id="89">3.12553e-12</wgt>
  <wgt id="90">3.12864e-12</wgt>
  <wgt id="91">3.12586e-12</wgt>
  <wgt id="92">3.12862e-12</wgt>
  <wgt id="93">3.12381e-12</wgt>
  <wgt id="94">3.12025e-12</wgt>
  <wgt id="95">3.12645e-12</wgt>
  <wgt id="96">3.12475e-12</wgt>
  <wgt id="97">3.11787e-12</wgt>
  <wgt id="98">3.12411e-12</wgt>
  <wgt id="99">3.11909e-12</wgt>
  <wgt id="100">3.12539e-12</wgt>
  <wgt id="101">3.12304e-12</wgt>
  <wgt id="102">3.12043e-12</wgt>
  <wgt id="103">3.12671e-12</wgt>
  <wgt id="104">3.12191e-12</wgt>
  <wgt id="105">3.12684e-12</wgt>
  <wgt id="106">3.11857e-12</wgt>
  <wgt id="107">3.13099e-12</wgt>
  <wgt id="108">3.12002e-12</wgt>
  <wgt id="109">3.1227e-12</wgt>
  <wgt id="110">3.12326e-12</wgt>
  <wgt id="111">3.15313e-12</wgt>
  <wgt id="112">3.12531e-12</wgt>
  <wgt id="113">4.15394e-12</wgt>
  <wgt id="114">4.2552e-12</wgt>
  <wgt id="115">4.19227e-12</wgt>
  <wgt id="116">5.69917e-12</wgt>
  <wgt id="117">3.4358e-12</wgt>
  <wgt id="118">3.44687e-12</wgt>
  <wgt id="119">3.42937e-12</wgt>
  <wgt id="120">3.43618e-12</wgt>
  <wgt id="121">3.43565e-12</wgt>
  <wgt id="122">3.4296e-12</wgt>
  <wgt id="123">3.44415e-12</wgt>
  <wgt id="124">3.43077e-12</wgt>
  <wgt id="125">3.43889e-12</wgt>
  <wgt id="126">3.44123e-12</wgt>
  <wgt id="127">3.4321e-12</wgt>
  <wgt id="128">3.4465e-12</wgt>
  <wgt id="129">3.42519e-12</wgt>
  <wgt id="130">3.45504e-12</wgt>
  <wgt id="131">3.41609e-12</wgt>
  <wgt id="132">3.34875e-12</wgt>
  <wgt id="133">3.5383e-12</wgt>
  <wgt id="134">3.40052e-12</wgt>
  <wgt id="135">3.46334e-12</wgt>
  <wgt id="136">3.47802e-12</wgt>
  <wgt id="137">3.38451e-12</wgt>
  <wgt id="138">3.56379e-12</wgt>
  <wgt id="139">3.31176e-12</wgt>
  <wgt id="140">3.41313e-12</wgt>
  <wgt id="141">3.45339e-12</wgt>
  <wgt id="142">3.43612e-12</wgt>
  <wgt id="143">3.44071e-12</wgt>
  <wgt id="144">3.3465e-12</wgt>
  <wgt id="145">3.51801e-12</wgt>
  <wgt id="146">3.46375e-12</wgt>
  <wgt id="147">3.41363e-12</wgt>
  <wgt id="148">3.44588e-12</wgt>
  <wgt id="149">3.43502e-12</wgt>
  <wgt id="150">3.46454e-12</wgt>
  <wgt id="151">3.4224e-12</wgt>
  <wgt id="152">3.43713e-12</wgt>
  <wgt id="153">3.43526e-12</wgt>
  <wgt id="154">3.46343e-12</wgt>
  <wgt id="155">3.40249e-12</wgt>
  <wgt id="156">3.49775e-12</wgt>
  <wgt id="157">3.36869e-12</wgt>
  <wgt id="158">4.13453e-12</wgt>
  <wgt id="159">4.15185e-12</wgt>
  <wgt id="160">4.12067e-12</wgt>
  <wgt id="161">4.12502e-12</wgt>
  <wgt id="162">4.14536e-12</wgt>
  <wgt id="163">4.13034e-12</wgt>
  <wgt id="164">4.14076e-12</wgt>
  <wgt id="165">4.13628e-12</wgt>
  <wgt id="166">4.13325e-12</wgt>
  <wgt id="167">4.13146e-12</wgt>
  <wgt id="168">4.13891e-12</wgt>
  <wgt id="169">4.1167e-12</wgt>
  <wgt id="170">4.14557e-12</wgt>
  <wgt id="171">4.13047e-12</wgt>
  <wgt id="172">4.1402e-12</wgt>
  <wgt id="173">4.13421e-12</wgt>
  <wgt id="174">4.13464e-12</wgt>
  <wgt id="175">4.02336e-12</wgt>
  <wgt id="176">4.27921e-12</wgt>
  <wgt id="177">4.1549e-12</wgt>
  <wgt id="178">4.11581e-12</wgt>
  <wgt id="179">4.30046e-12</wgt>
  <wgt id="180">3.8721e-12</wgt>
  <wgt id="181">4.01925e-12</wgt>
  <wgt id="182">4.21051e-12</wgt>
  <wgt id="183">4.06404e-12</wgt>
  <wgt id="184">4.16943e-12</wgt>
  <wgt id="185">4.10134e-12</wgt>
  <wgt id="186">4.17378e-12</wgt>
  <wgt id="187">4.09762e-12</wgt>
  <wgt id="188">4.20047e-12</wgt>
  <wgt id="189">4.10904e-12</wgt>
  <wgt id="190">4.1449e-12</wgt>
  <wgt id="191">4.14538e-12</wgt>
  <wgt id="192">4.12804e-12</wgt>
  <wgt id="193">4.1903e-12</wgt>
  <wgt id="194">4.10689e-12</wgt>
  <wgt id="195">4.04477e-12</wgt>
  <wgt id="196">4.30015e-12</wgt>
  <wgt id="197">4.15417e-12</wgt>
  <wgt id="198">4.12988e-12</wgt>
  <wgt id="199">4.13453e-12</wgt>
  <wgt id="200">4.16875e-12</wgt>
  <wgt id="201">4.15631e-12</wgt>
  <wgt id="202">4.1441e-12</wgt>
  <wgt id="203">4.12585e-12</wgt>
  <wgt id="204">4.11723e-12</wgt>
  <wgt id="205">4.11003e-12</wgt>
  <wgt id="206">4.03124e-12</wgt>
  <wgt id="207">4.05455e-12</wgt>
  <wgt id="208">4.00836e-12</wgt>
  <wgt id="209">4.04226e-12</wgt>
  <wgt id="210">4.02355e-12</wgt>
  <wgt id="211">4.03027e-12</wgt>
  <wgt id="212">4.03215e-12</wgt>
  <wgt id="213">4.031e-12</wgt>
  <wgt id="214">4.03179e-12</wgt>
  <wgt id="215">4.03394e-12</wgt>
  <wgt id="216">4.02956e-12</wgt>
  <wgt id="217">4.04188e-12</wgt>
  <wgt id="218">4.02312e-12</wgt>
  <wgt id="219">4.02602e-12</wgt>
  <wgt id="220">4.03465e-12</wgt>
  <wgt id="221">4.02994e-12</wgt>
  <wgt id="222">4.03457e-12</wgt>
  <wgt id="223">3.82668e-12</wgt>
  <wgt id="224">4.21728e-12</wgt>
  <wgt id="225">3.98585e-12</wgt>
  <wgt id="226">4.08849e-12</wgt>
  <wgt id="227">3.99505e-12</wgt>
  <wgt id="228">4.04728e-12</wgt>
  <wgt id="229">3.97777e-12</wgt>
  <wgt id="230">4.05801e-12</wgt>
  <wgt id="231">4.14265e-12</wgt>
  <wgt id="232">3.93955e-12</wgt>
  <wgt id="233">4.01131e-12</wgt>
  <wgt id="234">4.0626e-12</wgt>
  <wgt id="235">3.9552e-12</wgt>
  <wgt id="236">4.10372e-12</wgt>
  <wgt id="237">3.97907e-12</wgt>
  <wgt id="238">4.04927e-12</wgt>
  <wgt id="239">4.00861e-12</wgt>
  <wgt id="240">4.07288e-12</wgt>
  <wgt id="241">3.99222e-12</wgt>
  <wgt id="242">4.07817e-12</wgt>
  <wgt id="243">4.07242e-12</wgt>
  <wgt id="244">4.05438e-12</wgt>
  <wgt id="245">4.0282e-12</wgt>
  <wgt id="246">4.06122e-12</wgt>
  <wgt id="247">4.03124e-12</wgt>
  <wgt id="248">4.06559e-12</wgt>
  <wgt id="249">4.05253e-12</wgt>
  <wgt id="250">4.04032e-12</wgt>
  <wgt id="251">4.0222e-12</wgt>
  <wgt id="252">4.0136e-12</wgt>
  <wgt id="253">4.0074e-12</wgt>
  <wgt id="254">3.94018e-12</wgt>
  <wgt id="255">3.94369e-12</wgt>
  <wgt id="256">3.93616e-12</wgt>
  <wgt id="257">3.94316e-12</wgt>
  <wgt id="258">3.93786e-12</wgt>
  <wgt id="259">3.96615e-12</wgt>
  <wgt id="260">3.91487e-12</wgt>
  <wgt id="261">3.94434e-12</wgt>
  <wgt id="262">3.93502e-12</wgt>
  <wgt id="263">3.93847e-12</wgt>
  <wgt id="264">3.94188e-12</wgt>
  <wgt id="265">3.93603e-12</wgt>
  <wgt id="266">3.94842e-12</wgt>
  <wgt id="267">3.94121e-12</wgt>
  <wgt id="268">3.93845e-12</wgt>
  <wgt id="269">3.95147e-12</wgt>
  <wgt id="270">3.93235e-12</wgt>
  <wgt id="271">3.93321e-12</wgt>
  <wgt id="272">3.94797e-12</wgt>
  <wgt id="273">3.92867e-12</wgt>
  <wgt id="274">3.94875e-12</wgt>
  <wgt id="275">3.92451e-12</wgt>
  <wgt id="276">3.95625e-12</wgt>
  <wgt id="277">3.91851e-12</wgt>
  <wgt id="278">3.96008e-12</wgt>
  <wgt id="279">3.86935e-12</wgt>
  <wgt id="280">4.02877e-12</wgt>
  <wgt id="281">3.92421e-12</wgt>
  <wgt id="282">3.94073e-12</wgt>
  <wgt id="283">3.83327e-12</wgt>
  <wgt id="284">4.07139e-12</wgt>
  <wgt id="285">3.76176e-12</wgt>
  <wgt id="286">4.08705e-12</wgt>
  <wgt id="287">3.95196e-12</wgt>
  <wgt id="288">3.92494e-12</wgt>
  <wgt id="289">3.9663e-12</wgt>
  <wgt id="290">3.87886e-12</wgt>
  <wgt id="291">3.93008e-12</wgt>
  <wgt id="292">3.94237e-12</wgt>
  <wgt id="293">3.91144e-12</wgt>
  <wgt id="294">3.96865e-12</wgt>
  <wgt id="295">3.86907e-12</wgt>
  <wgt id="296">4.02661e-12</wgt>
  <wgt id="297">3.94094e-12</wgt>
  <wgt id="298">3.9528e-12</wgt>
  <wgt id="299">3.92832e-12</wgt>
  <wgt id="300">3.97128e-12</wgt>
  <wgt id="301">3.8946e-12</wgt>
  <wgt id="302">4.06118e-12</wgt>
  <wgt id="303">3.91389e-12</wgt>
  <wgt id="304">3.95522e-12</wgt>
  <wgt id="305">3.95444e-12</wgt>
  <wgt id="306">3.95837e-12</wgt>
  <wgt id="307">3.95001e-12</wgt>
  <wgt id="308">3.95796e-12</wgt>
  <wgt id="309">3.95214e-12</wgt>
  <wgt id="310">3.98165e-12</wgt>
  <wgt id="311">3.92914e-12</wgt>
  <wgt id="312">3.95749e-12</wgt>
  <wgt id="313">3.95132e-12</wgt>
  <wgt id="314">3.95273e-12</wgt>
  <wgt id="315">3.95581e-12</wgt>
  <wgt id="316">3.95037e-12</wgt>
  <wgt id="317">3.96287e-12</wgt>
  <wgt id="318">3.95695e-12</wgt>
  <wgt id="319">3.94982e-12</wgt>
  <wgt id="320">3.96631e-12</wgt>
  <wgt id="321">3.94764e-12</wgt>
  <wgt id="322">3.94532e-12</wgt>
  <wgt id="323">3.96471e-12</wgt>
  <wgt id="324">3.94501e-12</wgt>
  <wgt id="325">3.96246e-12</wgt>
  <wgt id="326">3.9417e-12</wgt>
  <wgt id="327">3.97061e-12</wgt>
  <wgt id="328">3.93427e-12</wgt>
  <wgt id="329">3.96576e-12</wgt>
  <wgt id="330">4.06452e-12</wgt>
  <wgt id="331">3.8491e-12</wgt>
  <wgt id="332">3.94108e-12</wgt>
  <wgt id="333">3.95444e-12</wgt>
  <wgt id="334">3.87045e-12</wgt>
  <wgt id="335">4.05841e-12</wgt>
  <wgt id="336">3.82465e-12</wgt>
  <wgt id="337">4.11157e-12</wgt>
  <wgt id="338">3.9962e-12</wgt>
  <wgt id="339">3.91553e-12</wgt>
  <wgt id="340">3.97903e-12</wgt>
  <wgt id="341">3.89022e-12</wgt>
  <wgt id="342">3.94764e-12</wgt>
  <wgt id="343">3.95058e-12</wgt>
  <wgt id="344">3.9283e-12</wgt>
  <wgt id="345">3.98459e-12</wgt>
  <wgt id="346">3.88052e-12</wgt>
  <wgt id="347">4.03919e-12</wgt>
  <wgt id="348">3.95717e-12</wgt>
  <wgt id="349">3.96458e-12</wgt>
  <wgt id="350">3.93942e-12</wgt>
  <wgt id="351">3.9922e-12</wgt>
  <wgt id="352">3.90443e-12</wgt>
  <wgt id="353">4.08118e-12</wgt>
  <wgt id="354">3.91464e-12</wgt>
  <wgt id="355">3.97907e-12</wgt>
  <wgt id="356">3.94018e-12</wgt>
  <wgt id="357">3.9711e-12</wgt>
  <wgt id="358">3.95444e-12</wgt>
  <wgt id="359">3.95443e-12</wgt>
  <wgt id="360">3.96346e-12</wgt>
  <wgt id="361">3.9516e-12</wgt>
  <wgt id="362">4.01627e-12</wgt>
  <wgt id="363">4.00729e-12</wgt>
  <wgt id="364">3.99441e-12</wgt>
  <wgt id="365">3.98184e-12</wgt>
  <wgt id="366">3.96745e-12</wgt>
  <wgt id="367">3.93827e-12</wgt>
  <wgt id="368">3.92188e-12</wgt>
  <wgt id="369">3.90417e-12</wgt>
  <wgt id="370">3.9516e-12</wgt>
  <wgt id="371">3.96901e-12</wgt>
  <wgt id="372">3.95951e-12</wgt>
  <wgt id="373">3.94524e-12</wgt>
  <wgt id="374">3.94398e-12</wgt>
  <wgt id="375">4.20822e-12</wgt>
  <wgt id="376">4.20871e-12</wgt>
  <wgt id="377">4.2076e-12</wgt>
  <wgt id="378">4.22343e-12</wgt>
  <wgt id="379">4.19317e-12</wgt>
  <wgt id="380">4.21973e-12</wgt>
  <wgt id="381">4.20373e-12</wgt>
  <wgt id="382">4.22825e-12</wgt>
  <wgt id="383">4.18836e-12</wgt>
  <wgt id="384">4.21093e-12</wgt>
  <wgt id="385">4.20566e-12</wgt>
  <wgt id="386">4.22343e-12</wgt>
  <wgt id="387">4.20165e-12</wgt>
  <wgt id="388">4.20443e-12</wgt>
  <wgt id="389">4.21268e-12</wgt>
  <wgt id="390">4.21873e-12</wgt>
  <wgt id="391">4.19717e-12</wgt>
  <wgt id="392">4.17903e-12</wgt>
  <wgt id="393">4.22487e-12</wgt>
  <wgt id="394">4.21383e-12</wgt>
  <wgt id="395">4.20061e-12</wgt>
  <wgt id="396">4.21019e-12</wgt>
  <wgt id="397">4.20683e-12</wgt>
  <wgt id="398">4.19336e-12</wgt>
  <wgt id="399">4.22268e-12</wgt>
  <wgt id="400">4.20214e-12</wgt>
  <wgt id="401">4.22188e-12</wgt>
  <wgt id="402">4.17635e-12</wgt>
  <wgt id="403">4.22193e-12</wgt>
  <wgt id="404">4.29983e-12</wgt>
  <wgt id="405">3.98667e-12</wgt>
  <wgt id="406">4.14186e-12</wgt>
  <wgt id="407">4.35183e-12</wgt>
  <wgt id="408">4.24212e-12</wgt>
  <wgt id="409">4.14315e-12</wgt>
  <wgt id="410">4.09936e-12</wgt>
  <wgt id="411">4.25853e-12</wgt>
  <wgt id="412">4.201e-12</wgt>
  <wgt id="413">4.2182e-12</wgt>
  <wgt id="414">4.16469e-12</wgt>
  <wgt id="415">4.24216e-12</wgt>
  <wgt id="416">4.31109e-12</wgt>
  <wgt id="417">4.06584e-12</wgt>
  <wgt id="418">4.21366e-12</wgt>
  <wgt id="419">4.17855e-12</wgt>
  <wgt id="420">4.26087e-12</wgt>
  <wgt id="421">4.17957e-12</wgt>
  <wgt id="422">4.20468e-12</wgt>
  <wgt id="423">4.21082e-12</wgt>
  <wgt id="424">4.28354e-12</wgt>
  <wgt id="425">4.16132e-12</wgt>
  <wgt id="426">4.20822e-12</wgt>
  <wgt id="427">4.17382e-12</wgt>
  <wgt id="428">4.30807e-12</wgt>
  <wgt id="429">4.24247e-12</wgt>
  <wgt id="430">4.35466e-12</wgt>
  <wgt id="431">4.33239e-12</wgt>
  <wgt id="432">4.31123e-12</wgt>
  <wgt id="433">4.2907e-12</wgt>
  <wgt id="434">4.26583e-12</wgt>
  <wgt id="435">4.21342e-12</wgt>
  <wgt id="436">4.18638e-12</wgt>
  <wgt id="437">4.16075e-12</wgt>
  <wgt id="438">4.24247e-12</wgt>
  <wgt id="439">4.25629e-12</wgt>
  <wgt id="440">4.24825e-12</wgt>
  <wgt id="441">4.2382e-12</wgt>
  <wgt id="442">4.2346e-12</wgt>
  <wgt id="443">4.10989e-12</wgt>
  <wgt id="444">4.13183e-12</wgt>
  <wgt id="445">4.10372e-12</wgt>
  <wgt id="446">4.08383e-12</wgt>
  <wgt id="447">4.10016e-12</wgt>
  <wgt id="448">4.00999e-12</wgt>
  <wgt id="449">4.17041e-12</wgt>
  <wgt id="450">4.10442e-12</wgt>
  <wgt id="451">4.1034e-12</wgt>
  <wgt id="452">4.19355e-12</wgt>
  <wgt id="453">4.14276e-12</wgt>
  <wgt id="454">3.94931e-12</wgt>
  <wgt id="455">4.11875e-12</wgt>
  <wgt id="456">4.07711e-12</wgt>
  <wgt id="457">4.12347e-12</wgt>
  <wgt id="458">4.15796e-12</wgt>
  <wgt id="459">4.13767e-12</wgt>
  <wgt id="460">4.14016e-12</wgt>
  <wgt id="461">4.04014e-12</wgt>
  <wgt id="462">4.08284e-12</wgt>
  <wgt id="463">4.06626e-12</wgt>
  <wgt id="464">4.09106e-12</wgt>
  <wgt id="465">4.1478e-12</wgt>
  <wgt id="466">4.06378e-12</wgt>
  <wgt id="467">4.07558e-12</wgt>
  <wgt id="468">4.10055e-12</wgt>
  <wgt id="469">4.10188e-12</wgt>
  <wgt id="470">4.07282e-12</wgt>
  <wgt id="471">4.07707e-12</wgt>
  <wgt id="472">4.12656e-12</wgt>
  <wgt id="473">3.99759e-12</wgt>
  <wgt id="474">3.0282e-12</wgt>
  <wgt id="475">3.16711e-12</wgt>
  <wgt id="476">2.97485e-12</wgt>
  <wgt id="477">2.94569e-12</wgt>
  <wgt id="478">3.05133e-12</wgt>
  <wgt id="479">2.98276e-12</wgt>
  <wgt id="480">3.13424e-12</wgt>
  <wgt id="481">2.98145e-12</wgt>
  <wgt id="482">2.94396e-12</wgt>
  <wgt id="483">2.95463e-12</wgt>
  <wgt id="484">3.17717e-12</wgt>
  <wgt id="485">3.00137e-12</wgt>
  <wgt id="486">3.11886e-12</wgt>
  <wgt id="487">3.05048e-12</wgt>
  <wgt id="488">3.07806e-12</wgt>
  <wgt id="489">2.8947e-12</wgt>
  <wgt id="490">2.93231e-12</wgt>
  <wgt id="491">3.0095e-12</wgt>
  <wgt id="492">2.95694e-12</wgt>
  <wgt id="493">2.91812e-12</wgt>
  <wgt id="494">2.93732e-12</wgt>
  <wgt id="495">3.05138e-12</wgt>
  <wgt id="496">2.931e-12</wgt>
  <wgt id="497">2.91617e-12</wgt>
  <wgt id="498">3.08693e-12</wgt>
  <wgt id="499">2.9737e-12</wgt>
  <wgt id="500">2.96911e-12</wgt>
  <wgt id="501">3.14825e-12</wgt>
  <wgt id="502">2.97757e-12</wgt>
  <wgt id="503">3.02892e-12</wgt>
  <wgt id="504">3.05794e-12</wgt>
  <wgt id="505">2.98307e-12</wgt>
  <wgt id="506">3.04141e-12</wgt>
  <wgt id="507">3.01487e-12</wgt>
  <wgt id="508">3.10433e-12</wgt>
  <wgt id="509">2.90337e-12</wgt>
  <wgt id="510">3.09335e-12</wgt>
  <wgt id="511">2.94786e-12</wgt>
  <wgt id="512">3.08844e-12</wgt>
  <wgt id="513">3.1233e-12</wgt>
  <wgt id="514">3.03409e-12</wgt>
  <wgt id="515">3.00606e-12</wgt>
  <wgt id="516">3.14639e-12</wgt>
  <wgt id="517">3.09885e-12</wgt>
  <wgt id="518">3.11145e-12</wgt>
  <wgt id="519">2.95593e-12</wgt>
  <wgt id="520">3.06716e-12</wgt>
  <wgt id="521">3.12093e-12</wgt>
  <wgt id="522">3.15184e-12</wgt>
  <wgt id="523">3.04183e-12</wgt>
  <wgt id="524">3.04082e-12</wgt>
  <wgt id="525">3.10511e-12</wgt>
  <wgt id="526">3.04575e-12</wgt>
  <wgt id="527">3.06822e-12</wgt>
  <wgt id="528">3.03573e-12</wgt>
  <wgt id="529">2.99596e-12</wgt>
  <wgt id="530">3.07483e-12</wgt>
  <wgt id="531">2.98324e-12</wgt>
  <wgt id="532">3.19944e-12</wgt>
  <wgt id="533">2.87795e-12</wgt>
  <wgt id="534">3.02329e-12</wgt>
  <wgt id="535">3.05198e-12</wgt>
  <wgt id="536">3.01169e-12</wgt>
  <wgt id="537">3.03078e-12</wgt>
  <wgt id="538">3.07222e-12</wgt>
  <wgt id="539">2.97046e-12</wgt>
  <wgt id="540">3.0046e-12</wgt>
  <wgt id="541">2.95228e-12</wgt>
  <wgt id="542">2.9813e-12</wgt>
  <wgt id="543">3.02317e-12</wgt>
  <wgt id="544">3.16567e-12</wgt>
  <wgt id="545">2.97735e-12</wgt>
  <wgt id="546">2.96359e-12</wgt>
  <wgt id="547">2.95312e-12</wgt>
  <wgt id="548">2.90739e-12</wgt>
  <wgt id="549">2.98412e-12</wgt>
  <wgt id="550">2.99062e-12</wgt>
  <wgt id="551">3.07104e-12</wgt>
  <wgt id="552">2.96172e-12</wgt>
  <wgt id="553">3.00872e-12</wgt>
  <wgt id="554">3.24376e-12</wgt>
  <wgt id="555">3.11419e-12</wgt>
  <wgt id="556">2.93231e-12</wgt>
  <wgt id="557">3.09191e-12</wgt>
  <wgt id="558">2.94829e-12</wgt>
  <wgt id="559">2.97381e-12</wgt>
  <wgt id="560">3.2932e-12</wgt>
  <wgt id="561">2.97883e-12</wgt>
  <wgt id="562">3.09489e-12</wgt>
  <wgt id="563">2.99486e-12</wgt>
  <wgt id="564">3.07226e-12</wgt>
  <wgt id="565">2.95104e-12</wgt>
  <wgt id="566">3.06513e-12</wgt>
  <wgt id="567">2.99591e-12</wgt>
  <wgt id="568">3.02539e-12</wgt>
  <wgt id="569">3.06876e-12</wgt>
  <wgt id="570">2.93199e-12</wgt>
  <wgt id="571">3.34385e-12</wgt>
  <wgt id="572">2.97614e-12</wgt>
  <wgt id="573">2.91395e-12</wgt>
  <wgt id="574">2.93505e-12</wgt>
  <wgt id="575">3.31967e-12</wgt>
  <wgt id="576">3.32042e-12</wgt>
  <wgt id="577">3.43045e-12</wgt>
  <wgt id="578">3.40485e-12</wgt>
  <wgt id="579">3.38124e-12</wgt>
  <wgt id="580">3.40433e-12</wgt>
  <wgt id="581">3.54688e-12</wgt>
  <wgt id="582">3.31694e-12</wgt>
  <wgt id="583">3.34686e-12</wgt>
  <wgt id="584">3.31351e-12</wgt>
  <wgt id="585">3.29327e-12</wgt>
  <wgt id="586">3.22851e-12</wgt>
  <wgt id="587">3.364e-12</wgt>
  <wgt id="588">3.31806e-12</wgt>
  <wgt id="589">3.39448e-12</wgt>
  <wgt id="590">3.34465e-12</wgt>
  <wgt id="591">3.44751e-12</wgt>
  <wgt id="592">3.20265e-12</wgt>
  <wgt id="593">3.29585e-12</wgt>
  <wgt id="594">3.4286e-12</wgt>
  <wgt id="595">3.32102e-12</wgt>
  <wgt id="596">3.40127e-12</wgt>
  <wgt id="597">3.23566e-12</wgt>
  <wgt id="598">3.23376e-12</wgt>
  <wgt id="599">3.44849e-12</wgt>
  <wgt id="600">3.31275e-12</wgt>
  <wgt id="601">3.22556e-12</wgt>
  <wgt id="602">3.23696e-12</wgt>
  <wgt id="603">3.25454e-12</wgt>
  <wgt id="604">3.36792e-12</wgt>
  <wgt id="605">3.44634e-12</wgt>
  <wgt id="606">3.28077e-12</wgt>
  <wgt id="607">3.30148e-12</wgt>
  <wgt id="608">3.34607e-12</wgt>
  <wgt id="609">3.16096e-12</wgt>
  <wgt id="610">3.20099e-12</wgt>
  <wgt id="611">3.33976e-12</wgt>
  <wgt id="612">3.56268e-12</wgt>
  <wgt id="613">3.30921e-12</wgt>
  <wgt id="614">3.34141e-12</wgt>
  <wgt id="615">3.27281e-12</wgt>
  <wgt id="616">3.49182e-12</wgt>
  <wgt id="617">3.40125e-12</wgt>
  <wgt id="618">3.45123e-12</wgt>
  <wgt id="619">3.29515e-12</wgt>
  <wgt id="620">3.42443e-12</wgt>
  <wgt id="621">3.34106e-12</wgt>
  <wgt id="622">3.364e-12</wgt>
  <wgt id="623">3.40189e-12</wgt>
  <wgt id="624">3.30797e-12</wgt>
  <wgt id="625">3.26821e-12</wgt>
  <wgt id="626">3.21723e-12</wgt>
  <wgt id="627">3.18706e-12</wgt>
  <wgt id="628">3.41111e-12</wgt>
  <wgt id="629">3.27072e-12</wgt>
  <wgt id="630">3.2185e-12</wgt>
  <wgt id="631">3.3317e-12</wgt>
  <wgt id="632">3.19378e-12</wgt>
  <wgt id="633">3.29275e-12</wgt>
  <wgt id="634">3.30226e-12</wgt>
  <wgt id="635">3.23482e-12</wgt>
  <wgt id="636">3.35389e-12</wgt>
  <wgt id="637">3.32996e-12</wgt>
  <wgt id="638">3.21344e-12</wgt>
  <wgt id="639">3.27897e-12</wgt>
  <wgt id="640">3.32443e-12</wgt>
  <wgt id="641">3.35893e-12</wgt>
  <wgt id="642">3.19363e-12</wgt>
  <wgt id="643">3.30384e-12</wgt>
  <wgt id="644">3.14689e-12</wgt>
  <wgt id="645">3.3372e-12</wgt>
  <wgt id="646">3.33292e-12</wgt>
  <wgt id="647">3.27744e-12</wgt>
  <wgt id="648">3.35665e-12</wgt>
  <wgt id="649">3.35557e-12</wgt>
  <wgt id="650">3.2457e-12</wgt>
  <wgt id="651">3.38679e-12</wgt>
  <wgt id="652">3.29602e-12</wgt>
  <wgt id="653">3.2281e-12</wgt>
  <wgt id="654">3.27975e-12</wgt>
  <wgt id="655">3.26456e-12</wgt>
  <wgt id="656">3.30929e-12</wgt>
  <wgt id="657">3.46425e-12</wgt>
  <wgt id="658">3.33924e-12</wgt>
  <wgt id="659">3.18985e-12</wgt>
  <wgt id="660">3.3666e-12</wgt>
  <wgt id="661">3.27618e-12</wgt>
  <wgt id="662">3.30457e-12</wgt>
  <wgt id="663">3.32493e-12</wgt>
  <wgt id="664">3.28413e-12</wgt>
  <wgt id="665">3.31618e-12</wgt>
  <wgt id="666">3.29993e-12</wgt>
  <wgt id="667">3.43596e-12</wgt>
  <wgt id="668">3.31203e-12</wgt>
  <wgt id="669">3.39652e-12</wgt>
  <wgt id="670">3.38703e-12</wgt>
  <wgt id="671">3.28832e-12</wgt>
  <wgt id="672">3.18665e-12</wgt>
  <wgt id="673">3.34143e-12</wgt>
  <wgt id="674">3.24752e-12</wgt>
  <wgt id="675">3.26771e-12</wgt>
  <wgt id="676">4.15481e-12</wgt>
  <wgt id="677">4.21017e-12</wgt>
  <wgt id="678">4.3601e-12</wgt>
  <wgt id="679">3.96353e-12</wgt>
  <wgt id="680">4.05585e-12</wgt>
  <wgt id="681">4.23551e-12</wgt>
  <wgt id="682">4.24842e-12</wgt>
  <wgt id="683">4.09184e-12</wgt>
  <wgt id="684">4.32317e-12</wgt>
  <wgt id="685">3.99024e-12</wgt>
  <wgt id="686">4.09716e-12</wgt>
  <wgt id="687">4.31564e-12</wgt>
  <wgt id="688">4.10765e-12</wgt>
  <wgt id="689">4.38918e-12</wgt>
  <wgt id="690">4.34718e-12</wgt>
  <wgt id="691">4.35492e-12</wgt>
  <wgt id="692">4.12869e-12</wgt>
  <wgt id="693">4.84605e-12</wgt>
  <wgt id="694">4.4057e-12</wgt>
  <wgt id="695">4.02421e-12</wgt>
  <wgt id="696">4.00096e-12</wgt>
  <wgt id="697">4.00311e-12</wgt>
  <wgt id="698">3.82938e-12</wgt>
  <wgt id="699">3.78623e-12</wgt>
  <wgt id="700">3.69413e-12</wgt>
  <wgt id="701">4.15645e-12</wgt>
  <wgt id="702">4.04664e-12</wgt>
  <wgt id="703">4.72892e-12</wgt>
  <wgt id="704">4.52054e-12</wgt>
  <wgt id="705">4.38221e-12</wgt>
  <wgt id="706">3.92605e-12</wgt>
  <wgt id="707">3.9918e-12</wgt>
  <wgt id="708">4.08973e-12</wgt>
  <wgt id="709">4.07546e-12</wgt>
  <wgt id="710">3.79318e-12</wgt>
  <wgt id="711">4.14327e-12</wgt>
  <wgt id="712">4.06445e-12</wgt>
  <wgt id="713">4.44243e-12</wgt>
  <wgt id="714">4.07226e-12</wgt>
  <wgt id="715">4.10293e-12</wgt>
  <wgt id="716">4.00886e-12</wgt>
  <wgt id="717">3.94535e-12</wgt>
  <wgt id="718">4.14991e-12</wgt>
  <wgt id="719">3.80065e-12</wgt>
  <wgt id="720">3.97754e-12</wgt>
  <wgt id="721">3.8508e-12</wgt>
  <wgt id="722">3.71137e-12</wgt>
  <wgt id="723">4.41195e-12</wgt>
  <wgt id="724">4.3397e-12</wgt>
  <wgt id="725">4.36488e-12</wgt>
  <wgt id="726">4.18074e-12</wgt>
  <wgt id="727">4.07402e-12</wgt>
  <wgt id="728">4.07747e-12</wgt>
  <wgt id="729">3.92179e-12</wgt>
  <wgt id="730">4.41134e-12</wgt>
  <wgt id="731">4.09678e-12</wgt>
  <wgt id="732">4.55364e-12</wgt>
  <wgt id="733">4.09968e-12</wgt>
  <wgt id="734">4.24446e-12</wgt>
  <wgt id="735">4.17629e-12</wgt>
  <wgt id="736">4.06586e-12</wgt>
  <wgt id="737">4.20182e-12</wgt>
  <wgt id="738">3.9984e-12</wgt>
  <wgt id="739">4.21543e-12</wgt>
  <wgt id="740">4.60168e-12</wgt>
  <wgt id="741">3.75715e-12</wgt>
  <wgt id="742">4.10444e-12</wgt>
  <wgt id="743">3.98693e-12</wgt>
  <wgt id="744">4.06892e-12</wgt>
  <wgt id="745">4.31775e-12</wgt>
  <wgt id="746">4.3847e-12</wgt>
  <wgt id="747">3.77507e-12</wgt>
  <wgt id="748">4.09827e-12</wgt>
  <wgt id="749">4.35113e-12</wgt>
  <wgt id="750">4.27814e-12</wgt>
  <wgt id="751">4.26175e-12</wgt>
  <wgt id="752">3.83536e-12</wgt>
  <wgt id="753">3.93177e-12</wgt>
  <wgt id="754">4.2825e-12</wgt>
  <wgt id="755">4.16091e-12</wgt>
  <wgt id="756">4.14918e-12</wgt>
  <wgt id="757">3.83867e-12</wgt>
  <wgt id="758">4.16741e-12</wgt>
  <wgt id="759">4.29606e-12</wgt>
  <wgt id="760">4.18817e-12</wgt>
  <wgt id="761">4.38143e-12</wgt>
  <wgt id="762">4.38767e-12</wgt>
  <wgt id="763">4.15368e-12</wgt>
  <wgt id="764">4.30593e-12</wgt>
  <wgt id="765">4.19237e-12</wgt>
  <wgt id="766">4.14599e-12</wgt>
  <wgt id="767">4.23608e-12</wgt>
  <wgt id="768">3.92829e-12</wgt>
  <wgt id="769">4.38774e-12</wgt>
  <wgt id="770">4.08629e-12</wgt>
  <wgt id="771">4.85318e-12</wgt>
  <wgt id="772">3.94331e-12</wgt>
  <wgt id="773">4.12968e-12</wgt>
  <wgt id="774">3.68555e-12</wgt>
  <wgt id="775">4.33398e-12</wgt>
  <wgt id="776">4.49156e-12</wgt>
  <wgt id="777">3.97137e-12</wgt>
  <wgt id="778">3.08017e-12</wgt>
  <wgt id="779">2.53722e-12</wgt>
  <wgt id="780">2.07986e-12</wgt>
  <wgt id="781">3.27526e-12</wgt>
  <wgt id="782">3.28643e-12</wgt>
  <wgt id="783">2.5677e-12</wgt>
  <wgt id="784">2.68483e-12</wgt>
  <wgt id="785">3.77247e-12</wgt>
  <wgt id="786">2.38349e-12</wgt>
  <wgt id="787">3.49119e-12</wgt>
  <wgt id="788">1.91792e-12</wgt>
  <wgt id="789">2.56688e-12</wgt>
  <wgt id="790">2.35137e-12</wgt>
  <wgt id="791">2.966e-12</wgt>
  <wgt id="792">4.0629e-12</wgt>
  <wgt id="793">3.02912e-12</wgt>
  <wgt id="794">2.3524e-12</wgt>
  <wgt id="795">3.58284e-12</wgt>
  <wgt id="796">3.99775e-12</wgt>
  <wgt id="797">3.5818e-12</wgt>
  <wgt id="798">2.80384e-12</wgt>
  <wgt id="799">3.47995e-12</wgt>
  <wgt id="800">2.56602e-12</wgt>
  <wgt id="801">2.87774e-12</wgt>
  <wgt id="802">2.36283e-12</wgt>
  <wgt id="803">4.12878e-12</wgt>
  <wgt id="804">3.56412e-12</wgt>
  <wgt id="805">3.59922e-12</wgt>
  <wgt id="806">3.41185e-12</wgt>
  <wgt id="807">2.95246e-12</wgt>
  <wgt id="808">2.98238e-12</wgt>
  <wgt id="809">2.86356e-12</wgt>
  <wgt id="810">3.4547e-12</wgt>
  <wgt id="811">3.32003e-12</wgt>
  <wgt id="812">2.35815e-12</wgt>
  <wgt id="813">2.39953e-12</wgt>
  <wgt id="814">2.55599e-12</wgt>
  <wgt id="815">2.54174e-12</wgt>
  <wgt id="816">2.31032e-12</wgt>
  <wgt id="817">3.20353e-12</wgt>
  <wgt id="818">3.1165e-12</wgt>
  <wgt id="819">2.54913e-12</wgt>
  <wgt id="820">3.06733e-12</wgt>
  <wgt id="821">3.49304e-12</wgt>
  <wgt id="822">2.58529e-12</wgt>
  <wgt id="823">3.53283e-12</wgt>
  <wgt id="824">4.10321e-12</wgt>
  <wgt id="825">2.27656e-12</wgt>
  <wgt id="826">3.26519e-12</wgt>
  <wgt id="827">1.91594e-12</wgt>
  <wgt id="828">3.92662e-12</wgt>
  <wgt id="829">3.17108e-12</wgt>
  <wgt id="830">2.16541e-12</wgt>
  <wgt id="831">3.31137e-12</wgt>
  <wgt id="832">4.96726e-12</wgt>
  <wgt id="833">2.85474e-12</wgt>
  <wgt id="834">4.70647e-12</wgt>
  <wgt id="835">2.52911e-12</wgt>
  <wgt id="836">3.00085e-12</wgt>
  <wgt id="837">3.45124e-12</wgt>
  <wgt id="838">2.88284e-12</wgt>
  <wgt id="839">3.29414e-12</wgt>
  <wgt id="840">2.87778e-12</wgt>
  <wgt id="841">3.76275e-12</wgt>
  <wgt id="842">2.84242e-12</wgt>
  <wgt id="843">3.05556e-12</wgt>
  <wgt id="844">3.20333e-12</wgt>
  <wgt id="845">4.37491e-12</wgt>
  <wgt id="846">3.02354e-12</wgt>
  <wgt id="847">3.11e-12</wgt>
  <wgt id="848">2.63845e-12</wgt>
  <wgt id="849">3.15994e-12</wgt>
  <wgt id="850">3.97713e-12</wgt>
  <wgt id="851">3.37466e-12</wgt>
  <wgt id="852">2.55798e-12</wgt>
  <wgt id="853">3.38555e-12</wgt>
  <wgt id="854">3.74193e-12</wgt>
  <wgt id="855">3.51095e-12</wgt>
  <wgt id="856">2.20725e-12</wgt>
  <wgt id="857">3.05402e-12</wgt>
  <wgt id="858">2.97667e-12</wgt>
  <wgt id="859">2.89813e-12</wgt>
  <wgt id="860">3.33539e-12</wgt>
  <wgt id="861">2.73564e-12</wgt>
  <wgt id="862">3.11407e-12</wgt>
  <wgt id="863">3.25757e-12</wgt>
  <wgt id="864">3.23666e-12</wgt>
  <wgt id="865">4.32731e-12</wgt>
  <wgt id="866">4.75684e-12</wgt>
  <wgt id="867">3.11083e-12</wgt>
  <wgt id="868">3.02619e-12</wgt>
  <wgt id="869">2.38777e-12</wgt>
  <wgt id="870">2.52146e-12</wgt>
  <wgt id="871">2.45102e-12</wgt>
  <wgt id="872">3.66588e-12</wgt>
  <wgt id="873">2.59394e-12</wgt>
  <wgt id="874">3.23499e-12</wgt>
  <wgt id="875">2.67465e-12</wgt>
  <wgt id="876">3.64402e-12</wgt>
  <wgt id="877">3.46688e-12</wgt>
  <wgt id="878">2.64678e-12</wgt>
  <wgt id="879">4.15481e-12</wgt>
  <wgt id="880">4.21017e-12</wgt>
  <wgt id="881">4.3601e-12</wgt>
  <wgt id="882">3.96353e-12</wgt>
  <wgt id="883">4.05585e-12</wgt>
  <wgt id="884">4.23551e-12</wgt>
  <wgt id="885">4.24842e-12</wgt>
  <wgt id="886">4.09184e-12</wgt>
  <wgt id="887">4.32317e-12</wgt>
  <wgt id="888">3.99024e-12</wgt>
  <wgt id="889">4.09716e-12</wgt>
  <wgt id="890">4.31564e-12</wgt>
  <wgt id="891">4.10765e-12</wgt>
  <wgt id="892">4.38918e-12</wgt>
  <wgt id="893">4.34718e-12</wgt>
  <wgt id="894">4.35492e-12</wgt>
  <wgt id="895">4.12869e-12</wgt>
  <wgt id="896">4.84605e-12</wgt>
  <wgt id="897">4.4057e-12</wgt>
  <wgt id="898">4.02421e-12</wgt>
  <wgt id="899">4.00096e-12</wgt>
  <wgt id="900">4.00311e-12</wgt>
  <wgt id="901">3.82938e-12</wgt>
  <wgt id="902">3.78623e-12</wgt>
  <wgt id="903">3.69413e-12</wgt>
  <wgt id="904">4.15645e-12</wgt>
  <wgt id="905">4.04664e-12</wgt>
  <wgt id="906">4.72892e-12</wgt>
  <wgt id="907">4.52054e-12</wgt>
  <wgt id="908">4.38221e-12</wgt>
  <wgt id="909">3.92605e-12</wgt>
  <wgt id="910">3.9918e-12</wgt>
  <wgt id="911">4.08973e-12</wgt>
  <wgt id="912">4.07546e-12</wgt>
  <wgt id="913">3.79318e-12</wgt>
  <wgt id="914">4.14327e-12</wgt>
  <wgt id="915">4.06445e-12</wgt>
  <wgt id="916">4.44243e-12</wgt>
  <wgt id="917">4.07226e-12</wgt>
  <wgt id="918">4.10293e-12</wgt>
  <wgt id="919">4.00886e-12</wgt>
  <wgt id="920">3.94535e-12</wgt>
  <wgt id="921">4.14991e-12</wgt>
  <wgt id="922">3.80065e-12</wgt>
  <wgt id="923">3.97754e-12</wgt>
  <wgt id="924">3.8508e-12</wgt>
  <wgt id="925">3.71137e-12</wgt>
  <wgt id="926">4.41195e-12</wgt>
  <wgt id="927">4.3397e-12</wgt>
  <wgt id="928">4.36488e-12</wgt>
  <wgt id="929">4.18074e-12</wgt>
  <wgt id="930">4.07402e-12</wgt>
  <wgt id="931">4.07747e-12</wgt>
  <wgt id="932">3.92179e-12</wgt>
  <wgt id="933">4.41134e-12</wgt>
  <wgt id="934">4.09678e-12</wgt>
  <wgt id="935">4.55364e-12</wgt>
  <wgt id="936">4.09968e-12</wgt>
  <wgt id="937">4.24446e-12</wgt>
  <wgt id="938">4.17629e-12</wgt>
  <wgt id="939">4.06586e-12</wgt>
  <wgt id="940">4.20182e-12</wgt>
  <wgt id="941">3.9984e-12</wgt>
  <wgt id="942">4.21543e-12</wgt>
  <wgt id="943">4.60168e-12</wgt>
  <wgt id="944">3.75715e-12</wgt>
  <wgt id="945">4.10444e-12</wgt>
  <wgt id="946">3.98693e-12</wgt>
  <wgt id="947">4.06892e-12</wgt>
  <wgt id="948">4.31775e-12</wgt>
  <wgt id="949">4.3847e-12</wgt>
  <wgt id="950">3.77507e-12</wgt>
  <wgt id="951">4.09827e-12</wgt>
  <wgt id="952">4.35113e-12</wgt>
  <wgt id="953">4.27814e-12</wgt>
  <wgt id="954">4.26175e-12</wgt>
  <wgt id="955">3.83536e-12</wgt>
  <wgt id="956">3.93177e-12</wgt>
  <wgt id="957">4.2825e-12</wgt>
  <wgt id="958">4.16091e-12</wgt>
  <wgt id="959">4.14918e-12</wgt>
  <wgt id="960">3.83867e-12</wgt>
  <wgt id="961">4.16741e-12</wgt>
  <wgt id="962">4.29606e-12</wgt>
  <wgt id="963">4.18817e-12</wgt>
  <wgt id="964">4.38143e-12</wgt>
  <wgt id="965">4.38767e-12</wgt>
  <wgt id="966">4.15368e-12</wgt>
  <wgt id="967">4.30593e-12</wgt>
  <wgt id="968">4.19237e-12</wgt>
  <wgt id="969">4.14599e-12</wgt>
  <wgt id="970">4.23608e-12</wgt>
  <wgt id="971">3.92829e-12</wgt>
  <wgt id="972">4.38774e-12</wgt>
  <wgt id="973">4.08629e-12</wgt>
  <wgt id="974">4.85318e-12</wgt>
  <wgt id="975">3.94331e-12</wgt>
  <wgt id="976">4.12968e-12</wgt>
  <wgt id="977">3.68555e-12</wgt>
  <wgt id="978">4.33398e-12</wgt>
  <wgt id="979">4.49156e-12</wgt>
  <wgt id="980">4.15355e-12</wgt>
  <wgt id="981">4.17245e-12</wgt>
  <wgt id="982">4.03256e-12</wgt>
</rwgt>
</event>
<event>
 5   1  0.3028200E-11  0.2464977E+04  0.7818608E-02  0.7655829E-01
       21   -1    0    0  502  501  0.00000000000E+00  0.00000000000E+00  0.21867570987E+04  0.21867570987E+04  0.00000000000E+00 0.  1.
       21   -1    0    0  501  502 -0.00000000000E+00 -0.00000000000E+00 -0.69464892094E+03  0.69464892094E+03  0.00000000000E+00 0. -1.
       39    2    1    2    0    0  0.00000000000E+00  0.00000000000E+00  0.14921081777E+04  0.28814060196E+04  0.24649774514E+04 0.  0.
       25    1    3    3    0    0 -0.11229358282E+04  0.49081204905E+03  0.79165941346E+03  0.14643192851E+04  0.12500000000E+03 0.  0.
       25    1    3    3    0    0  0.11229358282E+04 -0.49081204905E+03  0.70044876428E+03  0.14170867345E+04  0.12500000000E+03 0.  0.
<mgrwt>
<rscale>  0 0.24649775E+04</rscale>
<asrwt>0</asrwt>
<pdfrwt beam="1">  1       21 0.33642417E+00 0.24649775E+04</pdfrwt>
<pdfrwt beam="2">  1       21 0.10686907E+00 0.24649775E+04</pdfrwt>
<totfact> 0.47439703E+00</totfact>
</mgrwt>
<rwgt>
  <wgt id="1">3.0282e-12</wgt>
  <wgt id="2">2.60431e-12</wgt>
  <wgt id="3">3.56182e-12</wgt>
  <wgt id="4">3.0282e-12</wgt>
  <wgt id="5">2.60431e-12</wgt>
  <wgt id="6">3.56182e-12</wgt>
  <wgt id="7">3.0282e-12</wgt>
  <wgt id="8">2.60431e-12</wgt>
  <wgt id="9">3.56182e-12</wgt>
  <wgt id="10">3.20759e-12</wgt>
  <wgt id="11">3.20699e-12</wgt>
  <wgt id="12">3.19893e-12</wgt>
  <wgt id="13">3.20138e-12</wgt>
  <wgt id="14">3.21717e-12</wgt>
  <wgt id="15">3.21274e-12</wgt>
  <wgt id="16">3.19828e-12</wgt>
  <wgt id="17">3.22697e-12</wgt>
  <wgt id="18">3.20547e-12</wgt>
  <wgt id="19">3.22202e-12</wgt>
  <wgt id="20">3.20732e-12</wgt>
  <wgt id="21">3.18085e-12</wgt>
  <wgt id="22">3.18306e-12</wgt>
  <wgt id="23">3.15475e-12</wgt>
  <wgt id="24">3.18085e-12</wgt>
  <wgt id="25">3.19493e-12</wgt>
  <wgt id="26">3.21605e-12</wgt>
  <wgt id="27">3.20051e-12</wgt>
  <wgt id="28">3.18579e-12</wgt>
  <wgt id="29">3.2084e-12</wgt>
  <wgt id="30">3.17852e-12</wgt>
  <wgt id="31">3.22221e-12</wgt>
  <wgt id="32">3.17913e-12</wgt>
  <wgt id="33">3.21135e-12</wgt>
  <wgt id="34">3.18478e-12</wgt>
  <wgt id="35">3.18091e-12</wgt>
  <wgt id="36">3.22333e-12</wgt>
  <wgt id="37">3.19602e-12</wgt>
  <wgt id="38">3.19309e-12</wgt>
  <wgt id="39">3.27018e-12</wgt>
  <wgt id="40">3.21304e-12</wgt>
  <wgt id="41">3.20497e-12</wgt>
  <wgt id="42">3.21682e-12</wgt>
  <wgt id="43">3.21195e-12</wgt>
  <wgt id="44">3.22468e-12</wgt>
  <wgt id="45">3.21122e-12</wgt>
  <wgt id="46">3.19141e-12</wgt>
  <wgt id="47">3.24349e-12</wgt>
  <wgt id="48">3.2313e-12</wgt>
  <wgt id="49">3.19186e-12</wgt>
  <wgt id="50">3.1767e-12</wgt>
  <wgt id="51">3.1838e-12</wgt>
  <wgt id="52">3.21273e-12</wgt>
  <wgt id="53">3.24873e-12</wgt>
  <wgt id="54">3.2268e-12</wgt>
  <wgt id="55">3.20448e-12</wgt>
  <wgt id="56">3.18393e-12</wgt>
  <wgt id="57">3.18234e-12</wgt>
  <wgt id="58">3.20595e-12</wgt>
  <wgt id="59">3.21574e-12</wgt>
  <wgt id="60">3.17478e-12</wgt>
  <wgt id="61">3.19205e-12</wgt>
  <wgt id="62">3.2044e-12</wgt>
  <wgt id="63">3.20505e-12</wgt>
  <wgt id="64">3.20401e-12</wgt>
  <wgt id="65">3.1904e-12</wgt>
  <wgt id="66">3.21373e-12</wgt>
  <wgt id="67">3.20894e-12</wgt>
  <wgt id="68">3.20619e-12</wgt>
  <wgt id="69">3.20045e-12</wgt>
  <wgt id="70">3.19419e-12</wgt>
  <wgt id="71">3.20846e-12</wgt>
  <wgt id="72">3.1914e-12</wgt>
  <wgt id="73">3.21885e-12</wgt>
  <wgt id="74">3.22268e-12</wgt>
  <wgt id="75">3.20276e-12</wgt>
  <wgt id="76">3.23114e-12</wgt>
  <wgt id="77">3.20063e-12</wgt>
  <wgt id="78">3.20469e-12</wgt>
  <wgt id="79">3.21596e-12</wgt>
  <wgt id="80">3.17841e-12</wgt>
  <wgt id="81">3.20583e-12</wgt>
  <wgt id="82">3.21101e-12</wgt>
  <wgt id="83">3.18447e-12</wgt>
  <wgt id="84">3.19441e-12</wgt>
  <wgt id="85">3.19223e-12</wgt>
  <wgt id="86">3.22387e-12</wgt>
  <wgt id="87">3.17303e-12</wgt>
  <wgt id="88">3.21856e-12</wgt>
  <wgt id="89">3.21501e-12</wgt>
  <wgt id="90">3.22061e-12</wgt>
  <wgt id="91">3.212e-12</wgt>
  <wgt id="92">3.21837e-12</wgt>
  <wgt id="93">3.21136e-12</wgt>
  <wgt id="94">3.19702e-12</wgt>
  <wgt id="95">3.2191e-12</wgt>
  <wgt id="96">3.21739e-12</wgt>
  <wgt id="97">3.19255e-12</wgt>
  <wgt id="98">3.20759e-12</wgt>
  <wgt id="99">3.20375e-12</wgt>
  <wgt id="100">3.21471e-12</wgt>
  <wgt id="101">3.20176e-12</wgt>
  <wgt id="102">3.20026e-12</wgt>
  <wgt id="103">3.22065e-12</wgt>
  <wgt id="104">3.20143e-12</wgt>
  <wgt id="105">3.21693e-12</wgt>
  <wgt id="106">3.19773e-12</wgt>
  <wgt id="107">3.22913e-12</wgt>
  <wgt id="108">3.20083e-12</wgt>
  <wgt id="109">3.20887e-12</wgt>
  <wgt id="110">3.20697e-12</wgt>
  <wgt id="111">3.20638e-12</wgt>
  <wgt id="112">3.25289e-12</wgt>
  <wgt id="113">4.69886e-12</wgt>
  <wgt id="114">4.3002e-12</wgt>
  <wgt id="115">4.22073e-12</wgt>
  <wgt id="116">5.94797e-12</wgt>
  <wgt id="117">3.55914e-12</wgt>
  <wgt id="118">3.57328e-12</wgt>
  <wgt id="119">3.55104e-12</wgt>
  <wgt id="120">3.55913e-12</wgt>
  <wgt id="121">3.55909e-12</wgt>
  <wgt id="122">3.55372e-12</wgt>
  <wgt id="123">3.56669e-12</wgt>
  <wgt id="124">3.55457e-12</wgt>
  <wgt id="125">3.56208e-12</wgt>
  <wgt id="126">3.5647e-12</wgt>
  <wgt id="127">3.5554e-12</wgt>
  <wgt id="128">3.56993e-12</wgt>
  <wgt id="129">3.5484e-12</wgt>
  <wgt id="130">3.57683e-12</wgt>
  <wgt id="131">3.54075e-12</wgt>
  <wgt id="132">3.45761e-12</wgt>
  <wgt id="133">3.6805e-12</wgt>
  <wgt id="134">3.5197e-12</wgt>
  <wgt id="135">3.59012e-12</wgt>
  <wgt id="136">3.61644e-12</wgt>
  <wgt id="137">3.49033e-12</wgt>
  <wgt id="138">3.72885e-12</wgt>
  <wgt id="139">3.39878e-12</wgt>
  <wgt id="140">3.54307e-12</wgt>
  <wgt id="141">3.5712e-12</wgt>
  <wgt id="142">3.55812e-12</wgt>
  <wgt id="143">3.57107e-12</wgt>
  <wgt id="144">3.39951e-12</wgt>
  <wgt id="145">3.71575e-12</wgt>
  <wgt id="146">3.61099e-12</wgt>
  <wgt id="147">3.51659e-12</wgt>
  <wgt id="148">3.57278e-12</wgt>
  <wgt id="149">3.55813e-12</wgt>
  <wgt id="150">3.58966e-12</wgt>
  <wgt id="151">3.54483e-12</wgt>
  <wgt id="152">3.56015e-12</wgt>
  <wgt id="153">3.55876e-12</wgt>
  <wgt id="154">3.56431e-12</wgt>
  <wgt id="155">3.54546e-12</wgt>
  <wgt id="156">3.69197e-12</wgt>
  <wgt id="157">3.44061e-12</wgt>
  <wgt id="158">4.25915e-12</wgt>
  <wgt id="159">4.27734e-12</wgt>
  <wgt id="160">4.24441e-12</wgt>
  <wgt id="161">4.24757e-12</wgt>
  <wgt id="162">4.27199e-12</wgt>
  <wgt id="163">4.25398e-12</wgt>
  <wgt id="164">4.26673e-12</wgt>
  <wgt id="165">4.26063e-12</wgt>
  <wgt id="166">4.25791e-12</wgt>
  <wgt id="167">4.25621e-12</wgt>
  <wgt id="168">4.26313e-12</wgt>
  <wgt id="169">4.24205e-12</wgt>
  <wgt id="170">4.26973e-12</wgt>
  <wgt id="171">4.25563e-12</wgt>
  <wgt id="172">4.26398e-12</wgt>
  <wgt id="173">4.25038e-12</wgt>
  <wgt id="174">4.26204e-12</wgt>
  <wgt id="175">4.12994e-12</wgt>
  <wgt id="176">4.42875e-12</wgt>
  <wgt id="177">4.27962e-12</wgt>
  <wgt id="178">4.24059e-12</wgt>
  <wgt id="179">4.48781e-12</wgt>
  <wgt id="180">3.90855e-12</wgt>
  <wgt id="181">4.10996e-12</wgt>
  <wgt id="182">4.35882e-12</wgt>
  <wgt id="183">4.16871e-12</wgt>
  <wgt id="184">4.30403e-12</wgt>
  <wgt id="185">4.20933e-12</wgt>
  <wgt id="186">4.31965e-12</wgt>
  <wgt id="187">4.20929e-12</wgt>
  <wgt id="188">4.34694e-12</wgt>
  <wgt id="189">4.22391e-12</wgt>
  <wgt id="190">4.27336e-12</wgt>
  <wgt id="191">4.27506e-12</wgt>
  <wgt id="192">4.24966e-12</wgt>
  <wgt id="193">4.33473e-12</wgt>
  <wgt id="194">4.22109e-12</wgt>
  <wgt id="195">4.08976e-12</wgt>
  <wgt id="196">4.53358e-12</wgt>
  <wgt id="197">4.28304e-12</wgt>
  <wgt id="198">4.25333e-12</wgt>
  <wgt id="199">4.25915e-12</wgt>
  <wgt id="200">4.30209e-12</wgt>
  <wgt id="201">4.28763e-12</wgt>
  <wgt id="202">4.27352e-12</wgt>
  <wgt id="203">4.25333e-12</wgt>
  <wgt id="204">4.2431e-12</wgt>
  <wgt id="205">4.2348e-12</wgt>
  <wgt id="206">4.15954e-12</wgt>
  <wgt id="207">4.1848e-12</wgt>
  <wgt id="208">4.13454e-12</wgt>
  <wgt id="209">4.17333e-12</wgt>
  <wgt id="210">4.14954e-12</wgt>
  <wgt id="211">4.15783e-12</wgt>
  <wgt id="212">4.16085e-12</wgt>
  <wgt id="213">4.15917e-12</wgt>
  <wgt id="214">4.16009e-12</wgt>
  <wgt id="215">4.16298e-12</wgt>
  <wgt id="216">4.15707e-12</wgt>
  <wgt id="217">4.16947e-12</wgt>
  <wgt id="218">4.1519e-12</wgt>
  <wgt id="219">4.15528e-12</wgt>
  <wgt id="220">4.16207e-12</wgt>
  <wgt id="221">4.16127e-12</wgt>
  <wgt id="222">4.1545e-12</wgt>
  <wgt id="223">3.91232e-12</wgt>
  <wgt id="224">4.38684e-12</wgt>
  <wgt id="225">4.10566e-12</wgt>
  <wgt id="226">4.22825e-12</wgt>
  <wgt id="227">4.11797e-12</wgt>
  <wgt id="228">4.17778e-12</wgt>
  <wgt id="229">4.09737e-12</wgt>
  <wgt id="230">4.19049e-12</wgt>
  <wgt id="231">4.30779e-12</wgt>
  <wgt id="232">4.03867e-12</wgt>
  <wgt id="233">4.13183e-12</wgt>
  <wgt id="234">4.20626e-12</wgt>
  <wgt id="235">3.972e-12</wgt>
  <wgt id="236">4.31204e-12</wgt>
  <wgt id="237">4.05098e-12</wgt>
  <wgt id="238">4.19572e-12</wgt>
  <wgt id="239">4.116e-12</wgt>
  <wgt id="240">4.23756e-12</wgt>
  <wgt id="241">4.10592e-12</wgt>
  <wgt id="242">4.22307e-12</wgt>
  <wgt id="243">4.24081e-12</wgt>
  <wgt id="244">4.15729e-12</wgt>
  <wgt id="245">4.15813e-12</wgt>
  <wgt id="246">4.1826e-12</wgt>
  <wgt id="247">4.15954e-12</wgt>
  <wgt id="248">4.20618e-12</wgt>
  <wgt id="249">4.19035e-12</wgt>
  <wgt id="250">4.1733e-12</wgt>
  <wgt id="251">4.15089e-12</wgt>
  <wgt id="252">4.13908e-12</wgt>
  <wgt id="253">4.13119e-12</wgt>
  <wgt id="254">4.00607e-12</wgt>
  <wgt id="255">4.00969e-12</wgt>
  <wgt id="256">4.00216e-12</wgt>
  <wgt id="257">4.00913e-12</wgt>
  <wgt id="258">4.00388e-12</wgt>
  <wgt id="259">4.03313e-12</wgt>
  <wgt id="260">3.98001e-12</wgt>
  <wgt id="261">4.01351e-12</wgt>
  <wgt id="262">3.99722e-12</wgt>
  <wgt id="263">4.00284e-12</wgt>
  <wgt id="264">4.0099e-12</wgt>
  <wgt id="265">4.00082e-12</wgt>
  <wgt id="266">4.01661e-12</wgt>
  <wgt id="267">4.00753e-12</wgt>
  <wgt id="268">4.00407e-12</wgt>
  <wgt id="269">4.01933e-12</wgt>
  <wgt id="270">3.99706e-12</wgt>
  <wgt id="271">3.99483e-12</wgt>
  <wgt id="272">4.01868e-12</wgt>
  <wgt id="273">3.99493e-12</wgt>
  <wgt id="274">4.01461e-12</wgt>
  <wgt id="275">3.9801e-12</wgt>
  <wgt id="276">4.033e-12</wgt>
  <wgt id="277">3.98242e-12</wgt>
  <wgt id="278">4.02763e-12</wgt>
  <wgt id="279">3.92748e-12</wgt>
  <wgt id="280">4.10521e-12</wgt>
  <wgt id="281">3.98554e-12</wgt>
  <wgt id="282">4.01294e-12</wgt>
  <wgt id="283">3.86797e-12</wgt>
  <wgt id="284">4.17916e-12</wgt>
  <wgt id="285">3.7796e-12</wgt>
  <wgt id="286">4.19863e-12</wgt>
  <wgt id="287">4.02087e-12</wgt>
  <wgt id="288">3.98726e-12</wgt>
  <wgt id="289">4.04021e-12</wgt>
  <wgt id="290">3.93122e-12</wgt>
  <wgt id="291">3.98974e-12</wgt>
  <wgt id="292">4.00578e-12</wgt>
  <wgt id="293">3.96902e-12</wgt>
  <wgt id="294">4.04294e-12</wgt>
  <wgt id="295">3.9169e-12</wgt>
  <wgt id="296">4.11555e-12</wgt>
  <wgt id="297">3.99378e-12</wgt>
  <wgt id="298">4.02861e-12</wgt>
  <wgt id="299">3.99174e-12</wgt>
  <wgt id="300">4.04441e-12</wgt>
  <wgt id="301">3.91467e-12</wgt>
  <wgt id="302">4.21377e-12</wgt>
  <wgt id="303">3.95693e-12</wgt>
  <wgt id="304">4.03348e-12</wgt>
  <wgt id="305">3.96217e-12</wgt>
  <wgt id="306">3.96592e-12</wgt>
  <wgt id="307">3.95816e-12</wgt>
  <wgt id="308">3.96555e-12</wgt>
  <wgt id="309">3.95991e-12</wgt>
  <wgt id="310">3.98965e-12</wgt>
  <wgt id="311">3.93676e-12</wgt>
  <wgt id="312">3.96909e-12</wgt>
  <wgt id="313">3.95479e-12</wgt>
  <wgt id="314">3.9588e-12</wgt>
  <wgt id="315">3.96538e-12</wgt>
  <wgt id="316">3.95688e-12</wgt>
  <wgt id="317">3.9737e-12</wgt>
  <wgt id="318">3.96535e-12</wgt>
  <wgt id="319">3.95662e-12</wgt>
  <wgt id="320">3.97641e-12</wgt>
  <wgt id="321">3.95422e-12</wgt>
  <wgt id="322">3.94994e-12</wgt>
  <wgt id="323">3.97638e-12</wgt>
  <wgt id="324">3.95392e-12</wgt>
  <wgt id="325">3.96939e-12</wgt>
  <wgt id="326">3.94084e-12</wgt>
  <wgt id="327">3.98956e-12</wgt>
  <wgt id="328">3.9418e-12</wgt>
  <wgt id="329">3.97337e-12</wgt>
  <wgt id="330">4.08029e-12</wgt>
  <wgt id="331">3.8501e-12</wgt>
  <wgt id="332">3.94506e-12</wgt>
  <wgt id="333">3.96652e-12</wgt>
  <wgt id="334">3.85763e-12</wgt>
  <wgt id="335">4.09377e-12</wgt>
  <wgt id="336">3.80235e-12</wgt>
  <wgt id="337">4.16139e-12</wgt>
  <wgt id="338">4.01336e-12</wgt>
  <wgt id="339">3.91513e-12</wgt>
  <wgt id="340">3.99273e-12</wgt>
  <wgt id="341">3.88742e-12</wgt>
  <wgt id="342">3.95047e-12</wgt>
  <wgt id="343">3.95335e-12</wgt>
  <wgt id="344">3.92999e-12</wgt>
  <wgt id="345">3.99957e-12</wgt>
  <wgt id="346">3.87137e-12</wgt>
  <wgt id="347">4.06634e-12</wgt>
  <wgt id="348">3.9502e-12</wgt>
  <wgt id="349">3.98275e-12</wgt>
  <wgt id="350">3.94452e-12</wgt>
  <wgt id="351">4.0071e-12</wgt>
  <wgt id="352">3.86947e-12</wgt>
  <wgt id="353">4.16358e-12</wgt>
  <wgt id="354">3.89274e-12</wgt>
  <wgt id="355">4.00321e-12</wgt>
  <wgt id="356">4.00607e-12</wgt>
  <wgt id="357">3.96307e-12</wgt>
  <wgt id="358">3.96217e-12</wgt>
  <wgt id="359">4.00282e-12</wgt>
  <wgt id="360">4.08449e-12</wgt>
  <wgt id="361">4.02888e-12</wgt>
  <wgt id="362">4.11466e-12</wgt>
  <wgt id="363">4.10345e-12</wgt>
  <wgt id="364">4.08154e-12</wgt>
  <wgt id="365">4.06494e-12</wgt>
  <wgt id="366">4.04824e-12</wgt>
  <wgt id="367">4.01691e-12</wgt>
  <wgt id="368">3.99669e-12</wgt>
  <wgt id="369">3.97488e-12</wgt>
  <wgt id="370">4.02888e-12</wgt>
  <wgt id="371">4.04578e-12</wgt>
  <wgt id="372">4.03627e-12</wgt>
  <wgt id="373">4.02294e-12</wgt>
  <wgt id="374">4.02898e-12</wgt>
  <wgt id="375">4.66834e-12</wgt>
  <wgt id="376">4.66881e-12</wgt>
  <wgt id="377">4.6678e-12</wgt>
  <wgt id="378">4.68644e-12</wgt>
  <wgt id="379">4.65044e-12</wgt>
  <wgt id="380">4.68176e-12</wgt>
  <wgt id="381">4.66302e-12</wgt>
  <wgt id="382">4.69111e-12</wgt>
  <wgt id="383">4.64591e-12</wgt>
  <wgt id="384">4.67145e-12</wgt>
  <wgt id="385">4.66545e-12</wgt>
  <wgt id="386">4.68427e-12</wgt>
  <wgt id="387">4.66154e-12</wgt>
  <wgt id="388">4.6642e-12</wgt>
  <wgt id="389">4.67357e-12</wgt>
  <wgt id="390">4.67929e-12</wgt>
  <wgt id="391">4.65675e-12</wgt>
  <wgt id="392">4.62334e-12</wgt>
  <wgt id="393">4.69386e-12</wgt>
  <wgt id="394">4.6715e-12</wgt>
  <wgt id="395">4.66383e-12</wgt>
  <wgt id="396">4.67778e-12</wgt>
  <wgt id="397">4.6617e-12</wgt>
  <wgt id="398">4.65869e-12</wgt>
  <wgt id="399">4.67766e-12</wgt>
  <wgt id="400">4.66026e-12</wgt>
  <wgt id="401">4.68672e-12</wgt>
  <wgt id="402">4.62157e-12</wgt>
  <wgt id="403">4.6993e-12</wgt>
  <wgt id="404">4.814e-12</wgt>
  <wgt id="405">4.32382e-12</wgt>
  <wgt id="406">4.56399e-12</wgt>
  <wgt id="407">4.90132e-12</wgt>
  <wgt id="408">4.72314e-12</wgt>
  <wgt id="409">4.56786e-12</wgt>
  <wgt id="410">4.49962e-12</wgt>
  <wgt id="411">4.75019e-12</wgt>
  <wgt id="412">4.65676e-12</wgt>
  <wgt id="413">4.68562e-12</wgt>
  <wgt id="414">4.60132e-12</wgt>
  <wgt id="415">4.72057e-12</wgt>
  <wgt id="416">4.84221e-12</wgt>
  <wgt id="417">4.43098e-12</wgt>
  <wgt id="418">4.67854e-12</wgt>
  <wgt id="419">4.61365e-12</wgt>
  <wgt id="420">4.79916e-12</wgt>
  <wgt id="421">4.58089e-12</wgt>
  <wgt id="422">4.63362e-12</wgt>
  <wgt id="423">4.68448e-12</wgt>
  <wgt id="424">4.8248e-12</wgt>
  <wgt id="425">4.56204e-12</wgt>
  <wgt id="426">4.66834e-12</wgt>
  <wgt id="427">4.56246e-12</wgt>
  <wgt id="428">4.90807e-12</wgt>
  <wgt id="429">4.73924e-12</wgt>
  <wgt id="430">4.90714e-12</wgt>
  <wgt id="431">4.87259e-12</wgt>
  <wgt id="432">4.84179e-12</wgt>
  <wgt id="433">4.81153e-12</wgt>
  <wgt id="434">4.77242e-12</wgt>
  <wgt id="435">4.69775e-12</wgt>
  <wgt id="436">4.66025e-12</wgt>
  <wgt id="437">4.62346e-12</wgt>
  <wgt id="438">4.73924e-12</wgt>
  <wgt id="439">4.75368e-12</wgt>
  <wgt id="440">4.74461e-12</wgt>
  <wgt id="441">4.73561e-12</wgt>
  <wgt id="442">4.73284e-12</wgt>
  <wgt id="443">4.20719e-12</wgt>
  <wgt id="444">4.25576e-12</wgt>
  <wgt id="445">4.2555e-12</wgt>
  <wgt id="446">4.17656e-12</wgt>
  <wgt id="447">4.20607e-12</wgt>
  <wgt id="448">4.10146e-12</wgt>
  <wgt id="449">4.30436e-12</wgt>
  <wgt id="450">4.26659e-12</wgt>
  <wgt id="451">4.19452e-12</wgt>
  <wgt id="452">4.30491e-12</wgt>
  <wgt id="453">4.26938e-12</wgt>
  <wgt id="454">3.97278e-12</wgt>
  <wgt id="455">4.24652e-12</wgt>
  <wgt id="456">4.29299e-12</wgt>
  <wgt id="457">4.22284e-12</wgt>
  <wgt id="458">4.28613e-12</wgt>
  <wgt id="459">4.24666e-12</wgt>
  <wgt id="460">4.30138e-12</wgt>
  <wgt id="461">4.09691e-12</wgt>
  <wgt id="462">4.17263e-12</wgt>
  <wgt id="463">4.13484e-12</wgt>
  <wgt id="464">4.18459e-12</wgt>
  <wgt id="465">4.25564e-12</wgt>
  <wgt id="466">4.09104e-12</wgt>
  <wgt id="467">4.17291e-12</wgt>
  <wgt id="468">4.20503e-12</wgt>
  <wgt id="469">4.19317e-12</wgt>
  <wgt id="470">4.13451e-12</wgt>
  <wgt id="471">4.1477e-12</wgt>
  <wgt id="472">4.24091e-12</wgt>
  <wgt id="473">4.05349e-12</wgt>
  <wgt id="474">3.0282e-12</wgt>
  <wgt id="475">3.03388e-12</wgt>
  <wgt id="476">3.02593e-12</wgt>
  <wgt id="477">3.11967e-12</wgt>
  <wgt id="478">3.08238e-12</wgt>
  <wgt id="479">2.85141e-12</wgt>
  <wgt id="480">3.20222e-12</wgt>
  <wgt id="481">3.04939e-12</wgt>
  <wgt id="482">3.04395e-12</wgt>
  <wgt id="483">3.08525e-12</wgt>
  <wgt id="484">3.17667e-12</wgt>
  <wgt id="485">2.74356e-12</wgt>
  <wgt id="486">3.18038e-12</wgt>
  <wgt id="487">2.92324e-12</wgt>
  <wgt id="488">3.0423e-12</wgt>
  <wgt id="489">2.6732e-12</wgt>
  <wgt id="490">2.99418e-12</wgt>
  <wgt id="491">2.97675e-12</wgt>
  <wgt id="492">2.9725e-12</wgt>
  <wgt id="493">2.76407e-12</wgt>
  <wgt id="494">2.7695e-12</wgt>
  <wgt id="495">3.05266e-12</wgt>
  <wgt id="496">2.84661e-12</wgt>
  <wgt id="497">2.81024e-12</wgt>
  <wgt id="498">3.11379e-12</wgt>
  <wgt id="499">3.06747e-12</wgt>
  <wgt id="500">3.02066e-12</wgt>
  <wgt id="501">3.17024e-12</wgt>
  <wgt id="502">3.19048e-12</wgt>
  <wgt id="503">2.95709e-12</wgt>
  <wgt id="504">3.13585e-12</wgt>
  <wgt id="505">3.18343e-12</wgt>
  <wgt id="506">2.76122e-12</wgt>
  <wgt id="507">2.9378e-12</wgt>
  <wgt id="508">3.20217e-12</wgt>
  <wgt id="509">2.94182e-12</wgt>
  <wgt id="510">3.04253e-12</wgt>
  <wgt id="511">2.85716e-12</wgt>
  <wgt id="512">3.27186e-12</wgt>
  <wgt id="513">3.18067e-12</wgt>
  <wgt id="514">3.23677e-12</wgt>
  <wgt id="515">3.14778e-12</wgt>
  <wgt id="516">3.3887e-12</wgt>
  <wgt id="517">3.10737e-12</wgt>
  <wgt id="518">3.16314e-12</wgt>
  <wgt id="519">2.90037e-12</wgt>
  <wgt id="520">3.05413e-12</wgt>
  <wgt id="521">2.92951e-12</wgt>
  <wgt id="522">3.147e-12</wgt>
  <wgt id="523">2.87016e-12</wgt>
  <wgt id="524">3.13345e-12</wgt>
  <wgt id="525">2.93207e-12</wgt>
  <wgt id="526">3.22134e-12</wgt>
  <wgt id="527">2.98805e-12</wgt>
  <wgt id="528">3.003e-12</wgt>
  <wgt id="529">2.84838e-12</wgt>
  <wgt id="530">3.2048e-12</wgt>
  <wgt id="531">2.88217e-12</wgt>
  <wgt id="532">3.30866e-12</wgt>
  <wgt id="533">3.0396e-12</wgt>
  <wgt id="534">2.87679e-12</wgt>
  <wgt id="535">3.09591e-12</wgt>
  <wgt id="536">3.16084e-12</wgt>
  <wgt id="537">2.84021e-12</wgt>
  <wgt id="538">2.99889e-12</wgt>
  <wgt id="539">2.94829e-12</wgt>
  <wgt id="540">3.20413e-12</wgt>
  <wgt id="541">3.01691e-12</wgt>
  <wgt id="542">2.93863e-12</wgt>
  <wgt id="543">2.89064e-12</wgt>
  <wgt id="544">3.04819e-12</wgt>
  <wgt id="545">2.83747e-12</wgt>
  <wgt id="546">2.7659e-12</wgt>
  <wgt id="547">2.89992e-12</wgt>
  <wgt id="548">2.93883e-12</wgt>
  <wgt id="549">2.96544e-12</wgt>
  <wgt id="550">2.90719e-12</wgt>
  <wgt id="551">3.02608e-12</wgt>
  <wgt id="552">2.78364e-12</wgt>
  <wgt id="553">2.79914e-12</wgt>
  <wgt id="554">3.17641e-12</wgt>
  <wgt id="555">3.10106e-12</wgt>
  <wgt id="556">2.99418e-12</wgt>
  <wgt id="557">3.0792e-12</wgt>
  <wgt id="558">3.00208e-12</wgt>
  <wgt id="559">3.08161e-12</wgt>
  <wgt id="560">3.36207e-12</wgt>
  <wgt id="561">3.14071e-12</wgt>
  <wgt id="562">3.14491e-12</wgt>
  <wgt id="563">3.35433e-12</wgt>
  <wgt id="564">3.22691e-12</wgt>
  <wgt id="565">3.18951e-12</wgt>
  <wgt id="566">2.88418e-12</wgt>
  <wgt id="567">3.03698e-12</wgt>
  <wgt id="568">2.8866e-12</wgt>
  <wgt id="569">3.05752e-12</wgt>
  <wgt id="570">3.08616e-12</wgt>
  <wgt id="571">3.37633e-12</wgt>
  <wgt id="572">2.89793e-12</wgt>
  <wgt id="573">2.93846e-12</wgt>
  <wgt id="574">2.9644e-12</wgt>
  <wgt id="575">3.35495e-12</wgt>
  <wgt id="576">3.71089e-12</wgt>
  <wgt id="577">3.48589e-12</wgt>
  <wgt id="578">3.36163e-12</wgt>
  <wgt id="579">3.48834e-12</wgt>
  <wgt id="580">3.58056e-12</wgt>
  <wgt id="581">3.71844e-12</wgt>
  <wgt id="582">3.61904e-12</wgt>
  <wgt id="583">3.44511e-12</wgt>
  <wgt id="584">3.31914e-12</wgt>
  <wgt id="585">3.07149e-12</wgt>
  <wgt id="586">3.13116e-12</wgt>
  <wgt id="587">3.42205e-12</wgt>
  <wgt id="588">3.76788e-12</wgt>
  <wgt id="589">3.73133e-12</wgt>
  <wgt id="590">3.34118e-12</wgt>
  <wgt id="591">3.45107e-12</wgt>
  <wgt id="592">3.15987e-12</wgt>
  <wgt id="593">3.23494e-12</wgt>
  <wgt id="594">3.23738e-12</wgt>
  <wgt id="595">3.57877e-12</wgt>
  <wgt id="596">4.00911e-12</wgt>
  <wgt id="597">3.41705e-12</wgt>
  <wgt id="598">3.4605e-12</wgt>
  <wgt id="599">3.60732e-12</wgt>
  <wgt id="600">3.66993e-12</wgt>
  <wgt id="601">3.20103e-12</wgt>
  <wgt id="602">3.22496e-12</wgt>
  <wgt id="603">3.10365e-12</wgt>
  <wgt id="604">3.46333e-12</wgt>
  <wgt id="605">3.36032e-12</wgt>
  <wgt id="606">3.40128e-12</wgt>
  <wgt id="607">3.55463e-12</wgt>
  <wgt id="608">3.48733e-12</wgt>
  <wgt id="609">3.31233e-12</wgt>
  <wgt id="610">3.18168e-12</wgt>
  <wgt id="611">3.171e-12</wgt>
  <wgt id="612">3.44928e-12</wgt>
  <wgt id="613">3.16433e-12</wgt>
  <wgt id="614">3.32566e-12</wgt>
  <wgt id="615">3.44627e-12</wgt>
  <wgt id="616">3.14638e-12</wgt>
  <wgt id="617">3.50117e-12</wgt>
  <wgt id="618">3.69583e-12</wgt>
  <wgt id="619">3.2847e-12</wgt>
  <wgt id="620">3.45053e-12</wgt>
  <wgt id="621">3.30556e-12</wgt>
  <wgt id="622">3.42205e-12</wgt>
  <wgt id="623">3.34171e-12</wgt>
  <wgt id="624">3.36279e-12</wgt>
  <wgt id="625">3.17079e-12</wgt>
  <wgt id="626">2.89304e-12</wgt>
  <wgt id="627">2.98253e-12</wgt>
  <wgt id="628">3.32748e-12</wgt>
  <wgt id="629">3.51603e-12</wgt>
  <wgt id="630">3.27892e-12</wgt>
  <wgt id="631">3.4709e-12</wgt>
  <wgt id="632">3.03667e-12</wgt>
  <wgt id="633">3.32798e-12</wgt>
  <wgt id="634">3.18791e-12</wgt>
  <wgt id="635">3.08352e-12</wgt>
  <wgt id="636">3.37541e-12</wgt>
  <wgt id="637">3.35477e-12</wgt>
  <wgt id="638">3.17379e-12</wgt>
  <wgt id="639">3.17201e-12</wgt>
  <wgt id="640">3.23948e-12</wgt>
  <wgt id="641">3.54032e-12</wgt>
  <wgt id="642">2.99445e-12</wgt>
  <wgt id="643">3.24598e-12</wgt>
  <wgt id="644">3.01102e-12</wgt>
  <wgt id="645">3.34907e-12</wgt>
  <wgt id="646">3.01282e-12</wgt>
  <wgt id="647">3.42873e-12</wgt>
  <wgt id="648">3.55127e-12</wgt>
  <wgt id="649">3.37919e-12</wgt>
  <wgt id="650">3.20741e-12</wgt>
  <wgt id="651">3.60273e-12</wgt>
  <wgt id="652">3.18915e-12</wgt>
  <wgt id="653">3.20888e-12</wgt>
  <wgt id="654">3.43767e-12</wgt>
  <wgt id="655">3.16445e-12</wgt>
  <wgt id="656">3.36867e-12</wgt>
  <wgt id="657">3.69562e-12</wgt>
  <wgt id="658">3.36176e-12</wgt>
  <wgt id="659">3.2083e-12</wgt>
  <wgt id="660">3.19413e-12</wgt>
  <wgt id="661">3.24608e-12</wgt>
  <wgt id="662">3.29277e-12</wgt>
  <wgt id="663">3.42984e-12</wgt>
  <wgt id="664">3.42534e-12</wgt>
  <wgt id="665">3.29313e-12</wgt>
  <wgt id="666">3.26228e-12</wgt>
  <wgt id="667">3.55728e-12</wgt>
  <wgt id="668">3.29143e-12</wgt>
  <wgt id="669">3.3191e-12</wgt>
  <wgt id="670">3.54165e-12</wgt>
  <wgt id="671">3.40469e-12</wgt>
  <wgt id="672">3.30523e-12</wgt>
  <wgt id="673">3.62017e-12</wgt>
  <wgt id="674">3.2362e-12</wgt>
  <wgt id="675">3.18646e-12</wgt>
  <wgt id="676">4.39494e-12</wgt>
  <wgt id="677">4.42944e-12</wgt>
  <wgt id="678">4.89519e-12</wgt>
  <wgt id="679">4.62586e-12</wgt>
  <wgt id="680">4.44041e-12</wgt>
  <wgt id="681">4.25354e-12</wgt>
  <wgt id="682">4.63286e-12</wgt>
  <wgt id="683">3.95291e-12</wgt>
  <wgt id="684">4.6823e-12</wgt>
  <wgt id="685">4.40331e-12</wgt>
  <wgt id="686">4.57864e-12</wgt>
  <wgt id="687">4.5382e-12</wgt>
  <wgt id="688">4.24122e-12</wgt>
  <wgt id="689">4.64136e-12</wgt>
  <wgt id="690">4.53448e-12</wgt>
  <wgt id="691">4.48994e-12</wgt>
  <wgt id="692">4.26045e-12</wgt>
  <wgt id="693">6.07022e-12</wgt>
  <wgt id="694">4.90745e-12</wgt>
  <wgt id="695">4.04114e-12</wgt>
  <wgt id="696">4.14457e-12</wgt>
  <wgt id="697">3.86183e-12</wgt>
  <wgt id="698">3.51577e-12</wgt>
  <wgt id="699">3.64911e-12</wgt>
  <wgt id="700">3.85679e-12</wgt>
  <wgt id="701">4.39414e-12</wgt>
  <wgt id="702">4.15178e-12</wgt>
  <wgt id="703">5.64462e-12</wgt>
  <wgt id="704">5.0057e-12</wgt>
  <wgt id="705">4.98047e-12</wgt>
  <wgt id="706">4.02453e-12</wgt>
  <wgt id="707">4.07057e-12</wgt>
  <wgt id="708">4.14087e-12</wgt>
  <wgt id="709">4.22914e-12</wgt>
  <wgt id="710">3.50397e-12</wgt>
  <wgt id="711">4.7985e-12</wgt>
  <wgt id="712">4.08707e-12</wgt>
  <wgt id="713">4.74495e-12</wgt>
  <wgt id="714">3.86813e-12</wgt>
  <wgt id="715">4.13815e-12</wgt>
  <wgt id="716">4.2068e-12</wgt>
  <wgt id="717">3.71102e-12</wgt>
  <wgt id="718">4.4968e-12</wgt>
  <wgt id="719">4.003e-12</wgt>
  <wgt id="720">4.56439e-12</wgt>
  <wgt id="721">3.70872e-12</wgt>
  <wgt id="722">3.30249e-12</wgt>
  <wgt id="723">5.05432e-12</wgt>
  <wgt id="724">4.827e-12</wgt>
  <wgt id="725">4.62703e-12</wgt>
  <wgt id="726">4.36833e-12</wgt>
  <wgt id="727">4.43938e-12</wgt>
  <wgt id="728">4.36458e-12</wgt>
  <wgt id="729">3.87883e-12</wgt>
  <wgt id="730">4.95248e-12</wgt>
  <wgt id="731">4.34067e-12</wgt>
  <wgt id="732">5.21782e-12</wgt>
  <wgt id="733">4.02603e-12</wgt>
  <wgt id="734">4.57938e-12</wgt>
  <wgt id="735">4.34467e-12</wgt>
  <wgt id="736">4.01335e-12</wgt>
  <wgt id="737">3.93388e-12</wgt>
  <wgt id="738">4.15261e-12</wgt>
  <wgt id="739">4.65301e-12</wgt>
  <wgt id="740">5.35349e-12</wgt>
  <wgt id="741">4.72654e-12</wgt>
  <wgt id="742">4.11971e-12</wgt>
  <wgt id="743">3.95281e-12</wgt>
  <wgt id="744">4.29598e-12</wgt>
  <wgt id="745">4.91023e-12</wgt>
  <wgt id="746">5.05548e-12</wgt>
  <wgt id="747">3.57196e-12</wgt>
  <wgt id="748">4.18832e-12</wgt>
  <wgt id="749">4.61328e-12</wgt>
  <wgt id="750">4.77191e-12</wgt>
  <wgt id="751">4.44498e-12</wgt>
  <wgt id="752">3.90845e-12</wgt>
  <wgt id="753">3.86572e-12</wgt>
  <wgt id="754">4.59723e-12</wgt>
  <wgt id="755">4.26334e-12</wgt>
  <wgt id="756">4.22984e-12</wgt>
  <wgt id="757">3.7076e-12</wgt>
  <wgt id="758">4.26828e-12</wgt>
  <wgt id="759">4.80434e-12</wgt>
  <wgt id="760">4.15982e-12</wgt>
  <wgt id="761">4.97779e-12</wgt>
  <wgt id="762">5.00502e-12</wgt>
  <wgt id="763">4.58263e-12</wgt>
  <wgt id="764">4.76942e-12</wgt>
  <wgt id="765">4.4479e-12</wgt>
  <wgt id="766">4.48703e-12</wgt>
  <wgt id="767">4.50497e-12</wgt>
  <wgt id="768">3.94272e-12</wgt>
  <wgt id="769">4.62522e-12</wgt>
  <wgt id="770">4.01916e-12</wgt>
  <wgt id="771">5.55138e-12</wgt>
  <wgt id="772">4.26549e-12</wgt>
  <wgt id="773">4.44645e-12</wgt>
  <wgt id="774">3.39622e-12</wgt>
  <wgt id="775">4.6269e-12</wgt>
  <wgt id="776">5.24686e-12</wgt>
  <wgt id="777">3.77574e-12</wgt>
  <wgt id="778">2.73972e-12</wgt>
  <wgt id="779">1.49869e-12</wgt>
  <wgt id="780">7.20183e-13</wgt>
  <wgt id="781">3.06741e-12</wgt>
  <wgt id="782">3.43353e-12</wgt>
  <wgt id="783">1.22305e-12</wgt>
  <wgt id="784">1.72678e-12</wgt>
  <wgt id="785">4.31278e-12</wgt>
  <wgt id="786">1.17636e-12</wgt>
  <wgt id="787">3.76219e-12</wgt>
  <wgt id="788">4.39365e-14</wgt>
  <wgt id="789">1.67351e-12</wgt>
  <wgt id="790">1.26676e-12</wgt>
  <wgt id="791">3.29254e-12</wgt>
  <wgt id="792">3.78631e-12</wgt>
  <wgt id="793">2.46903e-12</wgt>
  <wgt id="794">1.10273e-12</wgt>
  <wgt id="795">4.06379e-12</wgt>
  <wgt id="796">4.08936e-12</wgt>
  <wgt id="797">3.65808e-12</wgt>
  <wgt id="798">1.94962e-12</wgt>
  <wgt id="799">3.71928e-12</wgt>
  <wgt id="800">1.96082e-12</wgt>
  <wgt id="801">2.82027e-12</wgt>
  <wgt id="802">1.05436e-12</wgt>
  <wgt id="803">4.60888e-12</wgt>
  <wgt id="804">4.06339e-12</wgt>
  <wgt id="805">3.9514e-12</wgt>
  <wgt id="806">3.11116e-12</wgt>
  <wgt id="807">2.73582e-12</wgt>
  <wgt id="808">2.68511e-12</wgt>
  <wgt id="809">2.39256e-12</wgt>
  <wgt id="810">3.7148e-12</wgt>
  <wgt id="811">2.92048e-12</wgt>
  <wgt id="812">1.30464e-12</wgt>
  <wgt id="813">1.43772e-12</wgt>
  <wgt id="814">1.72857e-12</wgt>
  <wgt id="815">1.2878e-12</wgt>
  <wgt id="816">1.57033e-12</wgt>
  <wgt id="817">2.83594e-12</wgt>
  <wgt id="818">3.98003e-12</wgt>
  <wgt id="819">1.45517e-12</wgt>
  <wgt id="820">2.52222e-12</wgt>
  <wgt id="821">3.50258e-12</wgt>
  <wgt id="822">2.15387e-12</wgt>
  <wgt id="823">3.74611e-12</wgt>
  <wgt id="824">4.31586e-12</wgt>
  <wgt id="825">9.06009e-13</wgt>
  <wgt id="826">3.74222e-12</wgt>
  <wgt id="827">8.83379e-13</wgt>
  <wgt id="828">3.65321e-12</wgt>
  <wgt id="829">2.86648e-12</wgt>
  <wgt id="830">8.76219e-13</wgt>
  <wgt id="831">3.43397e-12</wgt>
  <wgt id="832">5.31669e-12</wgt>
  <wgt id="833">2.0633e-12</wgt>
  <wgt id="834">5.24077e-12</wgt>
  <wgt id="835">1.69142e-12</wgt>
  <wgt id="836">2.06587e-12</wgt>
  <wgt id="837">3.3953e-12</wgt>
  <wgt id="838">2.02e-12</wgt>
  <wgt id="839">3.45732e-12</wgt>
  <wgt id="840">2.27125e-12</wgt>
  <wgt id="841">4.13867e-12</wgt>
  <wgt id="842">2.84824e-12</wgt>
  <wgt id="843">3.00423e-12</wgt>
  <wgt id="844">3.21339e-12</wgt>
  <wgt id="845">5.34435e-12</wgt>
  <wgt id="846">2.58762e-12</wgt>
  <wgt id="847">3.03154e-12</wgt>
  <wgt id="848">1.34214e-12</wgt>
  <wgt id="849">3.15545e-12</wgt>
  <wgt id="850">4.67084e-12</wgt>
  <wgt id="851">3.43729e-12</wgt>
  <wgt id="852">9.9232e-13</wgt>
  <wgt id="853">3.62752e-12</wgt>
  <wgt id="854">4.19566e-12</wgt>
  <wgt id="855">3.59503e-12</wgt>
  <wgt id="856">8.56823e-13</wgt>
  <wgt id="857">2.2487e-12</wgt>
  <wgt id="858">2.66191e-12</wgt>
  <wgt id="859">2.65505e-12</wgt>
  <wgt id="860">3.75034e-12</wgt>
  <wgt id="861">2.13494e-12</wgt>
  <wgt id="862">2.89394e-12</wgt>
  <wgt id="863">3.3544e-12</wgt>
  <wgt id="864">2.82558e-12</wgt>
  <wgt id="865">4.89722e-12</wgt>
  <wgt id="866">5.35882e-12</wgt>
  <wgt id="867">2.80152e-12</wgt>
  <wgt id="868">3.01475e-12</wgt>
  <wgt id="869">1.24146e-12</wgt>
  <wgt id="870">1.7006e-12</wgt>
  <wgt id="871">1.81291e-12</wgt>
  <wgt id="872">4.39724e-12</wgt>
  <wgt id="873">2.05821e-12</wgt>
  <wgt id="874">3.19109e-12</wgt>
  <wgt id="875">1.93668e-12</wgt>
  <wgt id="876">4.14669e-12</wgt>
  <wgt id="877">3.27194e-12</wgt>
  <wgt id="878">2.16312e-12</wgt>
  <wgt id="879">4.39494e-12</wgt>
  <wgt id="880">4.42944e-12</wgt>
  <wgt id="881">4.89519e-12</wgt>
  <wgt id="882">4.62586e-12</wgt>
  <wgt id="883">4.44041e-12</wgt>
  <wgt id="884">4.25354e-12</wgt>
  <wgt id="885">4.63286e-12</wgt>
  <wgt id="886">3.95291e-12</wgt>
  <wgt id="887">4.6823e-12</wgt>
  <wgt id="888">4.40331e-12</wgt>
  <wgt id="889">4.57864e-12</wgt>
  <wgt id="890">4.5382e-12</wgt>
  <wgt id="891">4.24122e-12</wgt>
  <wgt id="892">4.64136e-12</wgt>
  <wgt id="893">4.53448e-12</wgt>
  <wgt id="894">4.48994e-12</wgt>
  <wgt id="895">4.26045e-12</wgt>
  <wgt id="896">6.07022e-12</wgt>
  <wgt id="897">4.90745e-12</wgt>
  <wgt id="898">4.04114e-12</wgt>
  <wgt id="899">4.14457e-12</wgt>
  <wgt id="900">3.86183e-12</wgt>
  <wgt id="901">3.51577e-12</wgt>
  <wgt id="902">3.64911e-12</wgt>
  <wgt id="903">3.85679e-12</wgt>
  <wgt id="904">4.39414e-12</wgt>
  <wgt id="905">4.15178e-12</wgt>
  <wgt id="906">5.64462e-12</wgt>
  <wgt id="907">5.0057e-12</wgt>
  <wgt id="908">4.98047e-12</wgt>
  <wgt id="909">4.02453e-12</wgt>
  <wgt id="910">4.07057e-12</wgt>
  <wgt id="911">4.14087e-12</wgt>
  <wgt id="912">4.22914e-12</wgt>
  <wgt id="913">3.50397e-12</wgt>
  <wgt id="914">4.7985e-12</wgt>
  <wgt id="915">4.08707e-12</wgt>
  <wgt id="916">4.74495e-12</wgt>
  <wgt id="917">3.86813e-12</wgt>
  <wgt id="918">4.13815e-12</wgt>
  <wgt id="919">4.2068e-12</wgt>
  <wgt id="920">3.71102e-12</wgt>
  <wgt id="921">4.4968e-12</wgt>
  <wgt id="922">4.003e-12</wgt>
  <wgt id="923">4.56439e-12</wgt>
  <wgt id="924">3.70872e-12</wgt>
  <wgt id="925">3.30249e-12</wgt>
  <wgt id="926">5.05432e-12</wgt>
  <wgt id="927">4.827e-12</wgt>
  <wgt id="928">4.62703e-12</wgt>
  <wgt id="929">4.36833e-12</wgt>
  <wgt id="930">4.43938e-12</wgt>
  <wgt id="931">4.36458e-12</wgt>
  <wgt id="932">3.87883e-12</wgt>
  <wgt id="933">4.95248e-12</wgt>
  <wgt id="934">4.34067e-12</wgt>
  <wgt id="935">5.21782e-12</wgt>
  <wgt id="936">4.02603e-12</wgt>
  <wgt id="937">4.57938e-12</wgt>
  <wgt id="938">4.34467e-12</wgt>
  <wgt id="939">4.01335e-12</wgt>
  <wgt id="940">3.93388e-12</wgt>
  <wgt id="941">4.15261e-12</wgt>
  <wgt id="942">4.65301e-12</wgt>
  <wgt id="943">5.35349e-12</wgt>
  <wgt id="944">4.72654e-12</wgt>
  <wgt id="945">4.11971e-12</wgt>
  <wgt id="946">3.95281e-12</wgt>
  <wgt id="947">4.29598e-12</wgt>
  <wgt id="948">4.91023e-12</wgt>
  <wgt id="949">5.05548e-12</wgt>
  <wgt id="950">3.57196e-12</wgt>
  <wgt id="951">4.18832e-12</wgt>
  <wgt id="952">4.61328e-12</wgt>
  <wgt id="953">4.77191e-12</wgt>
  <wgt id="954">4.44498e-12</wgt>
  <wgt id="955">3.90845e-12</wgt>
  <wgt id="956">3.86572e-12</wgt>
  <wgt id="957">4.59723e-12</wgt>
  <wgt id="958">4.26334e-12</wgt>
  <wgt id="959">4.22984e-12</wgt>
  <wgt id="960">3.7076e-12</wgt>
  <wgt id="961">4.26828e-12</wgt>
  <wgt id="962">4.80434e-12</wgt>
  <wgt id="963">4.15982e-12</wgt>
  <wgt id="964">4.97779e-12</wgt>
  <wgt id="965">5.00502e-12</wgt>
  <wgt id="966">4.58263e-12</wgt>
  <wgt id="967">4.76942e-12</wgt>
  <wgt id="968">4.4479e-12</wgt>
  <wgt id="969">4.48703e-12</wgt>
  <wgt id="970">4.50497e-12</wgt>
  <wgt id="971">3.94272e-12</wgt>
  <wgt id="972">4.62522e-12</wgt>
  <wgt id="973">4.01916e-12</wgt>
  <wgt id="974">5.55138e-12</wgt>
  <wgt id="975">4.26549e-12</wgt>
  <wgt id="976">4.44645e-12</wgt>
  <wgt id="977">3.39622e-12</wgt>
  <wgt id="978">4.6269e-12</wgt>
  <wgt id="979">5.24686e-12</wgt>
  <wgt id="980">4.36068e-12</wgt>
  <wgt id="981">4.52323e-12</wgt>
  <wgt id="982">4.26745e-12</wgt>
</rwgt>
</event>
<event>
 5   1  0.3028200E-11  0.2376628E+04  0.7818608E-02  0.7685433E-01
       21   -1    0    0  502  501  0.00000000000E+00  0.00000000000E+00  0.52927370925E+03  0.52927370925E+03  0.00000000000E+00 0.  1.
       21   -1    0    0  501  502 -0.00000000000E+00 -0.00000000000E+00 -0.26679780927E+04  0.26679780927E+04  0.00000000000E+00 0. -1.
       39    2    1    2    0    0  0.00000000000E+00  0.00000000000E+00 -0.21387043834E+04  0.31972518020E+04  0.23766284197E+04 0.  0.
       25    1    3    3    0    0 -0.83199676384E+03  0.66362665178E+03 -0.37833094776E+03  0.11363882497E+04  0.12500000000E+03 0.  0.
       25    1    3    3    0    0  0.83199676384E+03 -0.66362665178E+03 -0.17603734357E+04  0.20608635523E+04  0.12500000000E+03 0.  0.
<mgrwt>
<rscale>  0 0.23766284E+04</rscale>
<asrwt>0</asrwt>
<pdfrwt beam="1">  1       21 0.81426722E-01 0.23766284E+04</pdfrwt>
<pdfrwt beam="2">  1       21 0.41045818E+00 0.23766284E+04</pdfrwt>
<totfact> 0.32710879E+00</totfact>
</mgrwt>
<rwgt>
  <wgt id="1">3.0282e-12</wgt>
  <wgt id="2">2.57976e-12</wgt>
  <wgt id="3">3.60077e-12</wgt>
  <wgt id="4">3.0282e-12</wgt>
  <wgt id="5">2.57976e-12</wgt>
  <wgt id="6">3.60077e-12</wgt>
  <wgt id="7">3.0282e-12</wgt>
  <wgt id="8">2.57976e-12</wgt>
  <wgt id="9">3.60077e-12</wgt>
  <wgt id="10">3.25226e-12</wgt>
  <wgt id="11">3.25597e-12</wgt>
  <wgt id="12">3.24041e-12</wgt>
  <wgt id="13">3.2509e-12</wgt>
  <wgt id="14">3.25151e-12</wgt>
  <wgt id="15">3.25417e-12</wgt>
  <wgt id="16">3.23276e-12</wgt>
  <wgt id="17">3.28232e-12</wgt>
  <wgt id="18">3.25296e-12</wgt>
  <wgt id="19">3.27153e-12</wgt>
  <wgt id="20">3.25916e-12</wgt>
  <wgt id="21">3.21436e-12</wgt>
  <wgt id="22">3.22068e-12</wgt>
  <wgt id="23">3.19122e-12</wgt>
  <wgt id="24">3.22306e-12</wgt>
  <wgt id="25">3.24522e-12</wgt>
  <wgt id="26">3.2595e-12</wgt>
  <wgt id="27">3.24501e-12</wgt>
  <wgt id="28">3.23035e-12</wgt>
  <wgt id="29">3.25184e-12</wgt>
  <wgt id="30">3.2167e-12</wgt>
  <wgt id="31">3.26577e-12</wgt>
  <wgt id="32">3.20963e-12</wgt>
  <wgt id="33">3.25393e-12</wgt>
  <wgt id="34">3.22028e-12</wgt>
  <wgt id="35">3.21018e-12</wgt>
  <wgt id="36">3.27016e-12</wgt>
  <wgt id="37">3.24232e-12</wgt>
  <wgt id="38">3.23322e-12</wgt>
  <wgt id="39">3.33133e-12</wgt>
  <wgt id="40">3.26489e-12</wgt>
  <wgt id="41">3.24722e-12</wgt>
  <wgt id="42">3.25754e-12</wgt>
  <wgt id="43">3.2594e-12</wgt>
  <wgt id="44">3.2804e-12</wgt>
  <wgt id="45">3.2599e-12</wgt>
  <wgt id="46">3.22218e-12</wgt>
  <wgt id="47">3.32058e-12</wgt>
  <wgt id="48">3.29785e-12</wgt>
  <wgt id="49">3.23951e-12</wgt>
  <wgt id="50">3.20343e-12</wgt>
  <wgt id="51">3.2176e-12</wgt>
  <wgt id="52">3.25575e-12</wgt>
  <wgt id="53">3.3475e-12</wgt>
  <wgt id="54">3.28478e-12</wgt>
  <wgt id="55">3.23721e-12</wgt>
  <wgt id="56">3.17772e-12</wgt>
  <wgt id="57">3.19188e-12</wgt>
  <wgt id="58">3.25181e-12</wgt>
  <wgt id="59">3.27269e-12</wgt>
  <wgt id="60">3.18694e-12</wgt>
  <wgt id="61">3.26246e-12</wgt>
  <wgt id="62">3.28144e-12</wgt>
  <wgt id="63">3.24287e-12</wgt>
  <wgt id="64">3.24597e-12</wgt>
  <wgt id="65">3.22182e-12</wgt>
  <wgt id="66">3.28719e-12</wgt>
  <wgt id="67">3.30025e-12</wgt>
  <wgt id="68">3.25123e-12</wgt>
  <wgt id="69">3.24713e-12</wgt>
  <wgt id="70">3.21127e-12</wgt>
  <wgt id="71">3.28403e-12</wgt>
  <wgt id="72">3.27922e-12</wgt>
  <wgt id="73">3.22764e-12</wgt>
  <wgt id="74">3.28235e-12</wgt>
  <wgt id="75">3.19637e-12</wgt>
  <wgt id="76">3.27777e-12</wgt>
  <wgt id="77">3.23964e-12</wgt>
  <wgt id="78">3.24772e-12</wgt>
  <wgt id="79">3.25789e-12</wgt>
  <wgt id="80">3.22935e-12</wgt>
  <wgt id="81">3.2446e-12</wgt>
  <wgt id="82">3.25316e-12</wgt>
  <wgt id="83">3.21959e-12</wgt>
  <wgt id="84">3.2222e-12</wgt>
  <wgt id="85">3.21839e-12</wgt>
  <wgt id="86">3.2957e-12</wgt>
  <wgt id="87">3.19196e-12</wgt>
  <wgt id="88">3.26825e-12</wgt>
  <wgt id="89">3.26608e-12</wgt>
  <wgt id="90">3.27998e-12</wgt>
  <wgt id="91">3.25443e-12</wgt>
  <wgt id="92">3.27085e-12</wgt>
  <wgt id="93">3.25949e-12</wgt>
  <wgt id="94">3.22947e-12</wgt>
  <wgt id="95">3.27965e-12</wgt>
  <wgt id="96">3.2783e-12</wgt>
  <wgt id="97">3.21784e-12</wgt>
  <wgt id="98">3.25376e-12</wgt>
  <wgt id="99">3.24343e-12</wgt>
  <wgt id="100">3.26256e-12</wgt>
  <wgt id="101">3.23673e-12</wgt>
  <wgt id="102">3.24265e-12</wgt>
  <wgt id="103">3.276e-12</wgt>
  <wgt id="104">3.24829e-12</wgt>
  <wgt id="105">3.27978e-12</wgt>
  <wgt id="106">3.22906e-12</wgt>
  <wgt id="107">3.29451e-12</wgt>
  <wgt id="108">3.23974e-12</wgt>
  <wgt id="109">3.24868e-12</wgt>
  <wgt id="110">3.25376e-12</wgt>
  <wgt id="111">3.20514e-12</wgt>
  <wgt id="112">3.32264e-12</wgt>
  <wgt id="113">5.10873e-12</wgt>
  <wgt id="114">4.12271e-12</wgt>
  <wgt id="115">4.04134e-12</wgt>
  <wgt id="116">5.58015e-12</wgt>
  <wgt id="117">3.57153e-12</wgt>
  <wgt id="118">3.58617e-12</wgt>
  <wgt id="119">3.56329e-12</wgt>
  <wgt id="120">3.57143e-12</wgt>
  <wgt id="121">3.57159e-12</wgt>
  <wgt id="122">3.56673e-12</wgt>
  <wgt id="123">3.57847e-12</wgt>
  <wgt id="124">3.5673e-12</wgt>
  <wgt id="125">3.57433e-12</wgt>
  <wgt id="126">3.57557e-12</wgt>
  <wgt id="127">3.56892e-12</wgt>
  <wgt id="128">3.58214e-12</wgt>
  <wgt id="129">3.56109e-12</wgt>
  <wgt id="130">3.58585e-12</wgt>
  <wgt id="131">3.55662e-12</wgt>
  <wgt id="132">3.46397e-12</wgt>
  <wgt id="133">3.70075e-12</wgt>
  <wgt id="134">3.5334e-12</wgt>
  <wgt id="135">3.60159e-12</wgt>
  <wgt id="136">3.63828e-12</wgt>
  <wgt id="137">3.49194e-12</wgt>
  <wgt id="138">3.76644e-12</wgt>
  <wgt id="139">3.39062e-12</wgt>
  <wgt id="140">3.56262e-12</wgt>
  <wgt id="141">3.5775e-12</wgt>
  <wgt id="142">3.56944e-12</wgt>
  <wgt id="143">3.58827e-12</wgt>
  <wgt id="144">3.36641e-12</wgt>
  <wgt id="145">3.78098e-12</wgt>
  <wgt id="146">3.64151e-12</wgt>
  <wgt id="147">3.5132e-12</wgt>
  <wgt id="148">3.58597e-12</wgt>
  <wgt id="149">3.57049e-12</wgt>
  <wgt id="150">3.60077e-12</wgt>
  <wgt id="151">3.55785e-12</wgt>
  <wgt id="152">3.57159e-12</wgt>
  <wgt id="153">3.57147e-12</wgt>
  <wgt id="154">3.55518e-12</wgt>
  <wgt id="155">3.57704e-12</wgt>
  <wgt id="156">3.7582e-12</wgt>
  <wgt id="157">3.41676e-12</wgt>
  <wgt id="158">4.24343e-12</wgt>
  <wgt id="159">4.26209e-12</wgt>
  <wgt id="160">4.22844e-12</wgt>
  <wgt id="161">4.23215e-12</wgt>
  <wgt id="162">4.25627e-12</wgt>
  <wgt id="163">4.23828e-12</wgt>
  <wgt id="164">4.25109e-12</wgt>
  <wgt id="165">4.24483e-12</wgt>
  <wgt id="166">4.24246e-12</wgt>
  <wgt id="167">4.24095e-12</wgt>
  <wgt id="168">4.24733e-12</wgt>
  <wgt id="169">4.22737e-12</wgt>
  <wgt id="170">4.25357e-12</wgt>
  <wgt id="171">4.24182e-12</wgt>
  <wgt id="172">4.24574e-12</wgt>
  <wgt id="173">4.2279e-12</wgt>
  <wgt id="174">4.24923e-12</wgt>
  <wgt id="175">4.11154e-12</wgt>
  <wgt id="176">4.41743e-12</wgt>
  <wgt id="177">4.25874e-12</wgt>
  <wgt id="178">4.22995e-12</wgt>
  <wgt id="179">4.51061e-12</wgt>
  <wgt id="180">3.84345e-12</wgt>
  <wgt id="181">4.07763e-12</wgt>
  <wgt id="182">4.35544e-12</wgt>
  <wgt id="183">4.14299e-12</wgt>
  <wgt id="184">4.29364e-12</wgt>
  <wgt id="185">4.18324e-12</wgt>
  <wgt id="186">4.31627e-12</wgt>
  <wgt id="187">4.1831e-12</wgt>
  <wgt id="188">4.34886e-12</wgt>
  <wgt id="189">4.20323e-12</wgt>
  <wgt id="190">4.25997e-12</wgt>
  <wgt id="191">4.26297e-12</wgt>
  <wgt id="192">4.23168e-12</wgt>
  <wgt id="193">4.32876e-12</wgt>
  <wgt id="194">4.20003e-12</wgt>
  <wgt id="195">4.02752e-12</wgt>
  <wgt id="196">4.58471e-12</wgt>
  <wgt id="197">4.2677e-12</wgt>
  <wgt id="198">4.23761e-12</wgt>
  <wgt id="199">4.24343e-12</wgt>
  <wgt id="200">4.29063e-12</wgt>
  <wgt id="201">4.2758e-12</wgt>
  <wgt id="202">4.26094e-12</wgt>
  <wgt id="203">4.2414e-12</wgt>
  <wgt id="204">4.23041e-12</wgt>
  <wgt id="205">4.22166e-12</wgt>
  <wgt id="206">4.18991e-12</wgt>
  <wgt id="207">4.21557e-12</wgt>
  <wgt id="208">4.16394e-12</wgt>
  <wgt id="209">4.20259e-12</wgt>
  <wgt id="210">4.18036e-12</wgt>
  <wgt id="211">4.18834e-12</wgt>
  <wgt id="212">4.1909e-12</wgt>
  <wgt id="213">4.18921e-12</wgt>
  <wgt id="214">4.19007e-12</wgt>
  <wgt id="215">4.19314e-12</wgt>
  <wgt id="216">4.18754e-12</wgt>
  <wgt id="217">4.19677e-12</wgt>
  <wgt id="218">4.18391e-12</wgt>
  <wgt id="219">4.18429e-12</wgt>
  <wgt id="220">4.19325e-12</wgt>
  <wgt id="221">4.19446e-12</wgt>
  <wgt id="222">4.17639e-12</wgt>
  <wgt id="223">3.92059e-12</wgt>
  <wgt id="224">4.43825e-12</wgt>
  <wgt id="225">4.13515e-12</wgt>
  <wgt id="226">4.25975e-12</wgt>
  <wgt id="227">4.14757e-12</wgt>
  <wgt id="228">4.20844e-12</wgt>
  <wgt id="229">4.12435e-12</wgt>
  <wgt id="230">4.22207e-12</wgt>
  <wgt id="231">4.36379e-12</wgt>
  <wgt id="232">4.04851e-12</wgt>
  <wgt id="233">4.15464e-12</wgt>
  <wgt id="234">4.24989e-12</wgt>
  <wgt id="235">3.90917e-12</wgt>
  <wgt id="236">4.41416e-12</wgt>
  <wgt id="237">4.03514e-12</wgt>
  <wgt id="238">4.24122e-12</wgt>
  <wgt id="239">4.12936e-12</wgt>
  <wgt id="240">4.29852e-12</wgt>
  <wgt id="241">4.12634e-12</wgt>
  <wgt id="242">4.26312e-12</wgt>
  <wgt id="243">4.29424e-12</wgt>
  <wgt id="244">4.16813e-12</wgt>
  <wgt id="245">4.18979e-12</wgt>
  <wgt id="246">4.20529e-12</wgt>
  <wgt id="247">4.18991e-12</wgt>
  <wgt id="248">4.24473e-12</wgt>
  <wgt id="249">4.22719e-12</wgt>
  <wgt id="250">4.20604e-12</wgt>
  <wgt id="251">4.18119e-12</wgt>
  <wgt id="252">4.16676e-12</wgt>
  <wgt id="253">4.15776e-12</wgt>
  <wgt id="254">3.97432e-12</wgt>
  <wgt id="255">3.97742e-12</wgt>
  <wgt id="256">3.97052e-12</wgt>
  <wgt id="257">3.97722e-12</wgt>
  <wgt id="258">3.97175e-12</wgt>
  <wgt id="259">4.00118e-12</wgt>
  <wgt id="260">3.9483e-12</wgt>
  <wgt id="261">3.98177e-12</wgt>
  <wgt id="262">3.96541e-12</wgt>
  <wgt id="263">3.97002e-12</wgt>
  <wgt id="264">3.97883e-12</wgt>
  <wgt id="265">3.96906e-12</wgt>
  <wgt id="266">3.98451e-12</wgt>
  <wgt id="267">3.97567e-12</wgt>
  <wgt id="268">3.97253e-12</wgt>
  <wgt id="269">3.98627e-12</wgt>
  <wgt id="270">3.9659e-12</wgt>
  <wgt id="271">3.95886e-12</wgt>
  <wgt id="272">3.99169e-12</wgt>
  <wgt id="273">3.96487e-12</wgt>
  <wgt id="274">3.98129e-12</wgt>
  <wgt id="275">3.94085e-12</wgt>
  <wgt id="276">4.00901e-12</wgt>
  <wgt id="277">3.9527e-12</wgt>
  <wgt id="278">3.99392e-12</wgt>
  <wgt id="279">3.89775e-12</wgt>
  <wgt id="280">4.07092e-12</wgt>
  <wgt id="281">3.94921e-12</wgt>
  <wgt id="282">3.99092e-12</wgt>
  <wgt id="283">3.81887e-12</wgt>
  <wgt id="284">4.17165e-12</wgt>
  <wgt id="285">3.7201e-12</wgt>
  <wgt id="286">4.19504e-12</wgt>
  <wgt id="287">3.99022e-12</wgt>
  <wgt id="288">3.95376e-12</wgt>
  <wgt id="289">4.01242e-12</wgt>
  <wgt id="290">3.8935e-12</wgt>
  <wgt id="291">3.95552e-12</wgt>
  <wgt id="292">3.96858e-12</wgt>
  <wgt id="293">3.9329e-12</wgt>
  <wgt id="294">4.01569e-12</wgt>
  <wgt id="295">3.87377e-12</wgt>
  <wgt id="296">4.09746e-12</wgt>
  <wgt id="297">3.95035e-12</wgt>
  <wgt id="298">4.00201e-12</wgt>
  <wgt id="299">3.95916e-12</wgt>
  <wgt id="300">4.01422e-12</wgt>
  <wgt id="301">3.85478e-12</wgt>
  <wgt id="302">4.23684e-12</wgt>
  <wgt id="303">3.90963e-12</wgt>
  <wgt id="304">4.00986e-12</wgt>
  <wgt id="305">3.87788e-12</wgt>
  <wgt id="306">3.88136e-12</wgt>
  <wgt id="307">3.87423e-12</wgt>
  <wgt id="308">3.88143e-12</wgt>
  <wgt id="309">3.87606e-12</wgt>
  <wgt id="310">3.90488e-12</wgt>
  <wgt id="311">3.85348e-12</wgt>
  <wgt id="312">3.88552e-12</wgt>
  <wgt id="313">3.87002e-12</wgt>
  <wgt id="314">3.87359e-12</wgt>
  <wgt id="315">3.88239e-12</wgt>
  <wgt id="316">3.87273e-12</wgt>
  <wgt id="317">3.88993e-12</wgt>
  <wgt id="318">3.88113e-12</wgt>
  <wgt id="319">3.87263e-12</wgt>
  <wgt id="320">3.89127e-12</wgt>
  <wgt id="321">3.87096e-12</wgt>
  <wgt id="322">3.86273e-12</wgt>
  <wgt id="323">3.89608e-12</wgt>
  <wgt id="324">3.87266e-12</wgt>
  <wgt id="325">3.88268e-12</wgt>
  <wgt id="326">3.85022e-12</wgt>
  <wgt id="327">3.91387e-12</wgt>
  <wgt id="328">3.86113e-12</wgt>
  <wgt id="329">3.88679e-12</wgt>
  <wgt id="330">3.99072e-12</wgt>
  <wgt id="331">3.77166e-12</wgt>
  <wgt id="332">3.8572e-12</wgt>
  <wgt id="333">3.89009e-12</wgt>
  <wgt id="334">3.76442e-12</wgt>
  <wgt id="335">4.02266e-12</wgt>
  <wgt id="336">3.70386e-12</wgt>
  <wgt id="337">4.09894e-12</wgt>
  <wgt id="338">3.93311e-12</wgt>
  <wgt id="339">3.82833e-12</wgt>
  <wgt id="340">3.91035e-12</wgt>
  <wgt id="341">3.80134e-12</wgt>
  <wgt id="342">3.86637e-12</wgt>
  <wgt id="343">3.8617e-12</wgt>
  <wgt id="344">3.84345e-12</wgt>
  <wgt id="345">3.91851e-12</wgt>
  <wgt id="346">3.77851e-12</wgt>
  <wgt id="347">3.99157e-12</wgt>
  <wgt id="348">3.85413e-12</wgt>
  <wgt id="349">3.9044e-12</wgt>
  <wgt id="350">3.86003e-12</wgt>
  <wgt id="351">3.92432e-12</wgt>
  <wgt id="352">3.76379e-12</wgt>
  <wgt id="353">4.11809e-12</wgt>
  <wgt id="354">3.79185e-12</wgt>
  <wgt id="355">3.92804e-12</wgt>
  <wgt id="356">3.97432e-12</wgt>
  <wgt id="357">3.86497e-12</wgt>
  <wgt id="358">3.87788e-12</wgt>
  <wgt id="359">3.95391e-12</wgt>
  <wgt id="360">4.10065e-12</wgt>
  <wgt id="361">4.00565e-12</wgt>
  <wgt id="362">4.10444e-12</wgt>
  <wgt id="363">4.09215e-12</wgt>
  <wgt id="364">4.06303e-12</wgt>
  <wgt id="365">4.04437e-12</wgt>
  <wgt id="366">4.02697e-12</wgt>
  <wgt id="367">3.99627e-12</wgt>
  <wgt id="368">3.97382e-12</wgt>
  <wgt id="369">3.94956e-12</wgt>
  <wgt id="370">4.00565e-12</wgt>
  <wgt id="371">4.02058e-12</wgt>
  <wgt id="372">4.01189e-12</wgt>
  <wgt id="373">4.0005e-12</wgt>
  <wgt id="374">4.01326e-12</wgt>
  <wgt id="375">5.06563e-12</wgt>
  <wgt id="376">5.0657e-12</wgt>
  <wgt id="377">5.06556e-12</wgt>
  <wgt id="378">5.08667e-12</wgt>
  <wgt id="379">5.04493e-12</wgt>
  <wgt id="380">5.08114e-12</wgt>
  <wgt id="381">5.05946e-12</wgt>
  <wgt id="382">5.0862e-12</wgt>
  <wgt id="383">5.04549e-12</wgt>
  <wgt id="384">5.06912e-12</wgt>
  <wgt id="385">5.06242e-12</wgt>
  <wgt id="386">5.07672e-12</wgt>
  <wgt id="387">5.06097e-12</wgt>
  <wgt id="388">5.06182e-12</wgt>
  <wgt id="389">5.07029e-12</wgt>
  <wgt id="390">5.07451e-12</wgt>
  <wgt id="391">5.05662e-12</wgt>
  <wgt id="392">5.01206e-12</wgt>
  <wgt id="393">5.09599e-12</wgt>
  <wgt id="394">5.06559e-12</wgt>
  <wgt id="395">5.0659e-12</wgt>
  <wgt id="396">5.07975e-12</wgt>
  <wgt id="397">5.0559e-12</wgt>
  <wgt id="398">5.06672e-12</wgt>
  <wgt id="399">5.06463e-12</wgt>
  <wgt id="400">5.05639e-12</wgt>
  <wgt id="401">5.08637e-12</wgt>
  <wgt id="402">5.0039e-12</wgt>
  <wgt id="403">5.1178e-12</wgt>
  <wgt id="404">5.26256e-12</wgt>
  <wgt id="405">4.60594e-12</wgt>
  <wgt id="406">4.92351e-12</wgt>
  <wgt id="407">5.38792e-12</wgt>
  <wgt id="408">5.14022e-12</wgt>
  <wgt id="409">4.93099e-12</wgt>
  <wgt id="410">4.83862e-12</wgt>
  <wgt id="411">5.17822e-12</wgt>
  <wgt id="412">5.05026e-12</wgt>
  <wgt id="413">5.08689e-12</wgt>
  <wgt id="414">4.97647e-12</wgt>
  <wgt id="415">5.13513e-12</wgt>
  <wgt id="416">5.30633e-12</wgt>
  <wgt id="417">4.74086e-12</wgt>
  <wgt id="418">5.08074e-12</wgt>
  <wgt id="419">4.98451e-12</wgt>
  <wgt id="420">5.26941e-12</wgt>
  <wgt id="421">4.92279e-12</wgt>
  <wgt id="422">4.99779e-12</wgt>
  <wgt id="423">5.0959e-12</wgt>
  <wgt id="424">5.30061e-12</wgt>
  <wgt id="425">4.9013e-12</wgt>
  <wgt id="426">5.06563e-12</wgt>
  <wgt id="427">4.87829e-12</wgt>
  <wgt id="428">5.45624e-12</wgt>
  <wgt id="429">5.17258e-12</wgt>
  <wgt id="430">5.39814e-12</wgt>
  <wgt id="431">5.35001e-12</wgt>
  <wgt id="432">5.30947e-12</wgt>
  <wgt id="433">5.26908e-12</wgt>
  <wgt id="434">5.21543e-12</wgt>
  <wgt id="435">5.11948e-12</wgt>
  <wgt id="436">5.0728e-12</wgt>
  <wgt id="437">5.0252e-12</wgt>
  <wgt id="438">5.17258e-12</wgt>
  <wgt id="439">5.18718e-12</wgt>
  <wgt id="440">5.177e-12</wgt>
  <wgt id="441">5.17019e-12</wgt>
  <wgt id="442">5.16858e-12</wgt>
  <wgt id="443">4.13319e-12</wgt>
  <wgt id="444">4.20064e-12</wgt>
  <wgt id="445">4.23626e-12</wgt>
  <wgt id="446">4.10711e-12</wgt>
  <wgt id="447">4.12941e-12</wgt>
  <wgt id="448">4.04514e-12</wgt>
  <wgt id="449">4.26606e-12</wgt>
  <wgt id="450">4.23836e-12</wgt>
  <wgt id="451">4.1199e-12</wgt>
  <wgt id="452">4.22021e-12</wgt>
  <wgt id="453">4.23193e-12</wgt>
  <wgt id="454">3.85473e-12</wgt>
  <wgt id="455">4.20128e-12</wgt>
  <wgt id="456">4.27566e-12</wgt>
  <wgt id="457">4.1455e-12</wgt>
  <wgt id="458">4.22876e-12</wgt>
  <wgt id="459">4.17204e-12</wgt>
  <wgt id="460">4.28659e-12</wgt>
  <wgt id="461">4.00461e-12</wgt>
  <wgt id="462">4.09892e-12</wgt>
  <wgt id="463">4.0473e-12</wgt>
  <wgt id="464">4.11696e-12</wgt>
  <wgt id="465">4.17563e-12</wgt>
  <wgt id="466">3.95181e-12</wgt>
  <wgt id="467">4.11137e-12</wgt>
  <wgt id="468">4.14592e-12</wgt>
  <wgt id="469">4.11472e-12</wgt>
  <wgt id="470">4.03626e-12</wgt>
  <wgt id="471">4.05533e-12</wgt>
  <wgt id="472">4.17498e-12</wgt>
  <wgt id="473">3.97366e-12</wgt>
  <wgt id="474">3.0282e-12</wgt>
  <wgt id="475">3.07496e-12</wgt>
  <wgt id="476">3.11559e-12</wgt>
  <wgt id="477">3.26372e-12</wgt>
  <wgt id="478">3.21385e-12</wgt>
  <wgt id="479">2.65943e-12</wgt>
  <wgt id="480">3.30758e-12</wgt>
  <wgt id="481">3.09412e-12</wgt>
  <wgt id="482">3.239e-12</wgt>
  <wgt id="483">3.38978e-12</wgt>
  <wgt id="484">3.26561e-12</wgt>
  <wgt id="485">2.66415e-12</wgt>
  <wgt id="486">3.19778e-12</wgt>
  <wgt id="487">2.82256e-12</wgt>
  <wgt id="488">2.90771e-12</wgt>
  <wgt id="489">2.40453e-12</wgt>
  <wgt id="490">3.10038e-12</wgt>
  <wgt id="491">2.95826e-12</wgt>
  <wgt id="492">2.98354e-12</wgt>
  <wgt id="493">2.54422e-12</wgt>
  <wgt id="494">2.52001e-12</wgt>
  <wgt id="495">3.19088e-12</wgt>
  <wgt id="496">2.6513e-12</wgt>
  <wgt id="497">2.7563e-12</wgt>
  <wgt id="498">3.09008e-12</wgt>
  <wgt id="499">3.13889e-12</wgt>
  <wgt id="500">3.22318e-12</wgt>
  <wgt id="501">3.26594e-12</wgt>
  <wgt id="502">3.4776e-12</wgt>
  <wgt id="503">2.90862e-12</wgt>
  <wgt id="504">3.16151e-12</wgt>
  <wgt id="505">3.32792e-12</wgt>
  <wgt id="506">2.48976e-12</wgt>
  <wgt id="507">2.76284e-12</wgt>
  <wgt id="508">3.23874e-12</wgt>
  <wgt id="509">3.07092e-12</wgt>
  <wgt id="510">2.91837e-12</wgt>
  <wgt id="511">2.82111e-12</wgt>
  <wgt id="512">3.38468e-12</wgt>
  <wgt id="513">3.35472e-12</wgt>
  <wgt id="514">3.46773e-12</wgt>
  <wgt id="515">3.42253e-12</wgt>
  <wgt id="516">3.56097e-12</wgt>
  <wgt id="517">3.10468e-12</wgt>
  <wgt id="518">3.32345e-12</wgt>
  <wgt id="519">2.94972e-12</wgt>
  <wgt id="520">2.86784e-12</wgt>
  <wgt id="521">2.7671e-12</wgt>
  <wgt id="522">3.03465e-12</wgt>
  <wgt id="523">2.89864e-12</wgt>
  <wgt id="524">3.20446e-12</wgt>
  <wgt id="525">2.88901e-12</wgt>
  <wgt id="526">3.38228e-12</wgt>
  <wgt id="527">2.99496e-12</wgt>
  <wgt id="528">2.84513e-12</wgt>
  <wgt id="529">2.54059e-12</wgt>
  <wgt id="530">3.33155e-12</wgt>
  <wgt id="531">2.81979e-12</wgt>
  <wgt id="532">3.29785e-12</wgt>
  <wgt id="533">3.20434e-12</wgt>
  <wgt id="534">2.68699e-12</wgt>
  <wgt id="535">3.24263e-12</wgt>
  <wgt id="536">3.30211e-12</wgt>
  <wgt id="537">2.65883e-12</wgt>
  <wgt id="538">2.96857e-12</wgt>
  <wgt id="539">2.95554e-12</wgt>
  <wgt id="540">2.96885e-12</wgt>
  <wgt id="541">3.01049e-12</wgt>
  <wgt id="542">2.75901e-12</wgt>
  <wgt id="543">2.72937e-12</wgt>
  <wgt id="544">2.96596e-12</wgt>
  <wgt id="545">2.70238e-12</wgt>
  <wgt id="546">2.65124e-12</wgt>
  <wgt id="547">2.79206e-12</wgt>
  <wgt id="548">3.11377e-12</wgt>
  <wgt id="549">2.96521e-12</wgt>
  <wgt id="550">2.59038e-12</wgt>
  <wgt id="551">2.87892e-12</wgt>
  <wgt id="552">3.02894e-12</wgt>
  <wgt id="553">2.59323e-12</wgt>
  <wgt id="554">3.07763e-12</wgt>
  <wgt id="555">3.03569e-12</wgt>
  <wgt id="556">3.10038e-12</wgt>
  <wgt id="557">2.93641e-12</wgt>
  <wgt id="558">3.02225e-12</wgt>
  <wgt id="559">3.21053e-12</wgt>
  <wgt id="560">3.32652e-12</wgt>
  <wgt id="561">3.38584e-12</wgt>
  <wgt id="562">3.18655e-12</wgt>
  <wgt id="563">3.25799e-12</wgt>
  <wgt id="564">3.37596e-12</wgt>
  <wgt id="565">3.4998e-12</wgt>
  <wgt id="566">2.59533e-12</wgt>
  <wgt id="567">3.1574e-12</wgt>
  <wgt id="568">2.68084e-12</wgt>
  <wgt id="569">3.10556e-12</wgt>
  <wgt id="570">3.30106e-12</wgt>
  <wgt id="571">3.45671e-12</wgt>
  <wgt id="572">2.74274e-12</wgt>
  <wgt id="573">2.95108e-12</wgt>
  <wgt id="574">3.03641e-12</wgt>
  <wgt id="575">3.28995e-12</wgt>
  <wgt id="576">3.79091e-12</wgt>
  <wgt id="577">3.26996e-12</wgt>
  <wgt id="578">3.01493e-12</wgt>
  <wgt id="579">3.42784e-12</wgt>
  <wgt id="580">3.37331e-12</wgt>
  <wgt id="581">3.65802e-12</wgt>
  <wgt id="582">3.62737e-12</wgt>
  <wgt id="583">3.54579e-12</wgt>
  <wgt id="584">3.30677e-12</wgt>
  <wgt id="585">2.89831e-12</wgt>
  <wgt id="586">3.01734e-12</wgt>
  <wgt id="587">3.37757e-12</wgt>
  <wgt id="588">4.10884e-12</wgt>
  <wgt id="589">3.9172e-12</wgt>
  <wgt id="590">3.39976e-12</wgt>
  <wgt id="591">3.42959e-12</wgt>
  <wgt id="592">3.24058e-12</wgt>
  <wgt id="593">3.1399e-12</wgt>
  <wgt id="594">3.03412e-12</wgt>
  <wgt id="595">3.79218e-12</wgt>
  <wgt id="596">3.74759e-12</wgt>
  <wgt id="597">3.35856e-12</wgt>
  <wgt id="598">3.63493e-12</wgt>
  <wgt id="599">3.70547e-12</wgt>
  <wgt id="600">4.00411e-12</wgt>
  <wgt id="601">3.10485e-12</wgt>
  <wgt id="602">2.97008e-12</wgt>
  <wgt id="603">2.83618e-12</wgt>
  <wgt id="604">3.58136e-12</wgt>
  <wgt id="605">3.15866e-12</wgt>
  <wgt id="606">3.08578e-12</wgt>
  <wgt id="607">3.6518e-12</wgt>
  <wgt id="608">3.38548e-12</wgt>
  <wgt id="609">3.13625e-12</wgt>
  <wgt id="610">2.98934e-12</wgt>
  <wgt id="611">2.96233e-12</wgt>
  <wgt id="612">3.2264e-12</wgt>
  <wgt id="613">2.98715e-12</wgt>
  <wgt id="614">3.35031e-12</wgt>
  <wgt id="615">3.59869e-12</wgt>
  <wgt id="616">2.74134e-12</wgt>
  <wgt id="617">3.47293e-12</wgt>
  <wgt id="618">3.69579e-12</wgt>
  <wgt id="619">3.22711e-12</wgt>
  <wgt id="620">3.32704e-12</wgt>
  <wgt id="621">3.25678e-12</wgt>
  <wgt id="622">3.37757e-12</wgt>
  <wgt id="623">3.2016e-12</wgt>
  <wgt id="624">3.19492e-12</wgt>
  <wgt id="625">3.05238e-12</wgt>
  <wgt id="626">2.28189e-12</wgt>
  <wgt id="627">2.77072e-12</wgt>
  <wgt id="628">3.27158e-12</wgt>
  <wgt id="629">4.05203e-12</wgt>
  <wgt id="630">3.32511e-12</wgt>
  <wgt id="631">3.61865e-12</wgt>
  <wgt id="632">2.9371e-12</wgt>
  <wgt id="633">3.26012e-12</wgt>
  <wgt id="634">2.99072e-12</wgt>
  <wgt id="635">3.06252e-12</wgt>
  <wgt id="636">3.14404e-12</wgt>
  <wgt id="637">3.43875e-12</wgt>
  <wgt id="638">3.04011e-12</wgt>
  <wgt id="639">2.94743e-12</wgt>
  <wgt id="640">3.00085e-12</wgt>
  <wgt id="641">3.60272e-12</wgt>
  <wgt id="642">2.65294e-12</wgt>
  <wgt id="643">3.12429e-12</wgt>
  <wgt id="644">3.0387e-12</wgt>
  <wgt id="645">3.3656e-12</wgt>
  <wgt id="646">2.62427e-12</wgt>
  <wgt id="647">3.60648e-12</wgt>
  <wgt id="648">3.69064e-12</wgt>
  <wgt id="649">3.41396e-12</wgt>
  <wgt id="650">3.32353e-12</wgt>
  <wgt id="651">3.46575e-12</wgt>
  <wgt id="652">3.04079e-12</wgt>
  <wgt id="653">3.11214e-12</wgt>
  <wgt id="654">3.24731e-12</wgt>
  <wgt id="655">2.8707e-12</wgt>
  <wgt id="656">3.4201e-12</wgt>
  <wgt id="657">3.74905e-12</wgt>
  <wgt id="658">3.14387e-12</wgt>
  <wgt id="659">3.21279e-12</wgt>
  <wgt id="660">2.90075e-12</wgt>
  <wgt id="661">3.10772e-12</wgt>
  <wgt id="662">3.28907e-12</wgt>
  <wgt id="663">3.48085e-12</wgt>
  <wgt id="664">3.5777e-12</wgt>
  <wgt id="665">3.12221e-12</wgt>
  <wgt id="666">3.1497e-12</wgt>
  <wgt id="667">3.48371e-12</wgt>
  <wgt id="668">3.17896e-12</wgt>
  <wgt id="669">3.11729e-12</wgt>
  <wgt id="670">3.58144e-12</wgt>
  <wgt id="671">3.40928e-12</wgt>
  <wgt id="672">3.557e-12</wgt>
  <wgt id="673">3.7641e-12</wgt>
  <wgt id="674">3.1054e-12</wgt>
  <wgt id="675">2.99128e-12</wgt>
  <wgt id="676">4.40248e-12</wgt>
  <wgt id="677">4.36432e-12</wgt>
  <wgt id="678">5.16218e-12</wgt>
  <wgt id="679">5.12385e-12</wgt>
  <wgt id="680">4.52406e-12</wgt>
  <wgt id="681">4.14781e-12</wgt>
  <wgt id="682">4.78999e-12</wgt>
  <wgt id="683">3.73141e-12</wgt>
  <wgt id="684">4.94752e-12</wgt>
  <wgt id="685">4.5943e-12</wgt>
  <wgt id="686">4.8053e-12</wgt>
  <wgt id="687">4.34195e-12</wgt>
  <wgt id="688">4.31684e-12</wgt>
  <wgt id="689">4.94799e-12</wgt>
  <wgt id="690">4.68722e-12</wgt>
  <wgt id="691">4.58839e-12</wgt>
  <wgt id="692">4.13465e-12</wgt>
  <wgt id="693">7.03015e-12</wgt>
  <wgt id="694">5.21184e-12</wgt>
  <wgt id="695">3.7155e-12</wgt>
  <wgt id="696">3.83839e-12</wgt>
  <wgt id="697">3.4386e-12</wgt>
  <wgt id="698">3.06292e-12</wgt>
  <wgt id="699">3.54855e-12</wgt>
  <wgt id="700">3.70344e-12</wgt>
  <wgt id="701">4.44422e-12</wgt>
  <wgt id="702">3.93773e-12</wgt>
  <wgt id="703">6.40447e-12</wgt>
  <wgt id="704">5.18927e-12</wgt>
  <wgt id="705">4.95391e-12</wgt>
  <wgt id="706">3.6755e-12</wgt>
  <wgt id="707">3.90766e-12</wgt>
  <wgt id="708">3.86294e-12</wgt>
  <wgt id="709">4.03012e-12</wgt>
  <wgt id="710">2.61399e-12</wgt>
  <wgt id="711">5.12427e-12</wgt>
  <wgt id="712">4.00898e-12</wgt>
  <wgt id="713">4.78439e-12</wgt>
  <wgt id="714">3.48408e-12</wgt>
  <wgt id="715">3.87196e-12</wgt>
  <wgt id="716">4.09321e-12</wgt>
  <wgt id="717">3.23113e-12</wgt>
  <wgt id="718">4.49146e-12</wgt>
  <wgt id="719">4.07178e-12</wgt>
  <wgt id="720">4.76099e-12</wgt>
  <wgt id="721">3.56989e-12</wgt>
  <wgt id="722">2.53467e-12</wgt>
  <wgt id="723">5.55002e-12</wgt>
  <wgt id="724">5.02858e-12</wgt>
  <wgt id="725">4.75914e-12</wgt>
  <wgt id="726">4.336e-12</wgt>
  <wgt id="727">4.5729e-12</wgt>
  <wgt id="728">4.85935e-12</wgt>
  <wgt id="729">3.25687e-12</wgt>
  <wgt id="730">5.24088e-12</wgt>
  <wgt id="731">4.39525e-12</wgt>
  <wgt id="732">5.44115e-12</wgt>
  <wgt id="733">3.83414e-12</wgt>
  <wgt id="734">4.66514e-12</wgt>
  <wgt id="735">4.05311e-12</wgt>
  <wgt id="736">3.78553e-12</wgt>
  <wgt id="737">2.99914e-12</wgt>
  <wgt id="738">4.04136e-12</wgt>
  <wgt id="739">4.41811e-12</wgt>
  <wgt id="740">5.91467e-12</wgt>
  <wgt id="741">5.20114e-12</wgt>
  <wgt id="742">3.59115e-12</wgt>
  <wgt id="743">3.86798e-12</wgt>
  <wgt id="744">4.11461e-12</wgt>
  <wgt id="745">5.30462e-12</wgt>
  <wgt id="746">5.50646e-12</wgt>
  <wgt id="747">3.34726e-12</wgt>
  <wgt id="748">4.0716e-12</wgt>
  <wgt id="749">4.87109e-12</wgt>
  <wgt id="750">4.98556e-12</wgt>
  <wgt id="751">4.55631e-12</wgt>
  <wgt id="752">3.75389e-12</wgt>
  <wgt id="753">3.64376e-12</wgt>
  <wgt id="754">4.59829e-12</wgt>
  <wgt id="755">4.06668e-12</wgt>
  <wgt id="756">4.06041e-12</wgt>
  <wgt id="757">3.48496e-12</wgt>
  <wgt id="758">4.27464e-12</wgt>
  <wgt id="759">4.74277e-12</wgt>
  <wgt id="760">3.85602e-12</wgt>
  <wgt id="761">5.37449e-12</wgt>
  <wgt id="762">5.43859e-12</wgt>
  <wgt id="763">5.18765e-12</wgt>
  <wgt id="764">5.11909e-12</wgt>
  <wgt id="765">4.59961e-12</wgt>
  <wgt id="766">4.74307e-12</wgt>
  <wgt id="767">4.66357e-12</wgt>
  <wgt id="768">3.74723e-12</wgt>
  <wgt id="769">4.56005e-12</wgt>
  <wgt id="770">3.39079e-12</wgt>
  <wgt id="771">6.13243e-12</wgt>
  <wgt id="772">4.10906e-12</wgt>
  <wgt id="773">4.68705e-12</wgt>
  <wgt id="774">3.208e-12</wgt>
  <wgt id="775">4.76861e-12</wgt>
  <wgt id="776">6.07492e-12</wgt>
  <wgt id="777">3.11449e-12</wgt>
  <wgt id="778">2.17647e-12</wgt>
  <wgt id="779">2.74598e-13</wgt>
  <wgt id="780">2.42075e-20</wgt>
  <wgt id="781">2.10035e-12</wgt>
  <wgt id="782">2.6622e-12</wgt>
  <wgt id="783">2.46043e-20</wgt>
  <wgt id="784">1.79371e-13</wgt>
  <wgt id="785">4.25436e-12</wgt>
  <wgt id="786">2.39715e-20</wgt>
  <wgt id="787">3.69426e-12</wgt>
  <wgt id="788">2.34368e-20</wgt>
  <wgt id="789">1.48368e-14</wgt>
  <wgt id="790">2.39788e-20</wgt>
  <wgt id="791">2.50608e-12</wgt>
  <wgt id="792">3.16986e-12</wgt>
  <wgt id="793">1.07813e-12</wgt>
  <wgt id="794">2.41817e-20</wgt>
  <wgt id="795">4.06534e-12</wgt>
  <wgt id="796">4.13968e-12</wgt>
  <wgt id="797">3.38181e-12</wgt>
  <wgt id="798">7.58115e-13</wgt>
  <wgt id="799">3.94798e-12</wgt>
  <wgt id="800">7.62302e-13</wgt>
  <wgt id="801">3.18083e-12</wgt>
  <wgt id="802">2.45916e-20</wgt>
  <wgt id="803">4.10955e-12</wgt>
  <wgt id="804">4.17533e-12</wgt>
  <wgt id="805">4.00885e-12</wgt>
  <wgt id="806">2.92956e-12</wgt>
  <wgt id="807">2.17973e-12</wgt>
  <wgt id="808">2.50643e-12</wgt>
  <wgt id="809">1.4456e-12</wgt>
  <wgt id="810">4.99495e-12</wgt>
  <wgt id="811">2.58301e-12</wgt>
  <wgt id="812">2.45071e-20</wgt>
  <wgt id="813">2.40044e-20</wgt>
  <wgt id="814">6.95862e-13</wgt>
  <wgt id="815">2.43793e-20</wgt>
  <wgt id="816">2.46099e-20</wgt>
  <wgt id="817">2.58372e-12</wgt>
  <wgt id="818">3.79576e-12</wgt>
  <wgt id="819">1.82193e-13</wgt>
  <wgt id="820">1.57735e-12</wgt>
  <wgt id="821">3.28143e-12</wgt>
  <wgt id="822">9.55969e-13</wgt>
  <wgt id="823">3.83858e-12</wgt>
  <wgt id="824">3.73068e-12</wgt>
  <wgt id="825">2.40596e-20</wgt>
  <wgt id="826">4.07706e-12</wgt>
  <wgt id="827">2.39499e-20</wgt>
  <wgt id="828">3.21873e-12</wgt>
  <wgt id="829">2.41194e-12</wgt>
  <wgt id="830">2.4e-20</wgt>
  <wgt id="831">3.39193e-12</wgt>
  <wgt id="832">5.52302e-12</wgt>
  <wgt id="833">1.10016e-12</wgt>
  <wgt id="834">5.6145e-12</wgt>
  <wgt id="835">2.54547e-13</wgt>
  <wgt id="836">7.49837e-13</wgt>
  <wgt id="837">3.21986e-12</wgt>
  <wgt id="838">6.66388e-13</wgt>
  <wgt id="839">3.69262e-12</wgt>
  <wgt id="840">1.59809e-12</wgt>
  <wgt id="841">3.88062e-12</wgt>
  <wgt id="842">2.33002e-12</wgt>
  <wgt id="843">2.11973e-12</wgt>
  <wgt id="844">3.14716e-12</wgt>
  <wgt id="845">5.70494e-12</wgt>
  <wgt id="846">1.02583e-12</wgt>
  <wgt id="847">2.80915e-12</wgt>
  <wgt id="848">2.49332e-20</wgt>
  <wgt id="849">3.15504e-12</wgt>
  <wgt id="850">5.09036e-12</wgt>
  <wgt id="851">3.33243e-12</wgt>
  <wgt id="852">2.4318e-20</wgt>
  <wgt id="853">3.49138e-12</wgt>
  <wgt id="854">4.51086e-12</wgt>
  <wgt id="855">3.17519e-12</wgt>
  <wgt id="856">2.39714e-20</wgt>
  <wgt id="857">9.65697e-13</wgt>
  <wgt id="858">2.59271e-12</wgt>
  <wgt id="859">2.01834e-12</wgt>
  <wgt id="860">2.82584e-12</wgt>
  <wgt id="861">9.19316e-13</wgt>
  <wgt id="862">2.6286e-12</wgt>
  <wgt id="863">3.30168e-12</wgt>
  <wgt id="864">2.19268e-12</wgt>
  <wgt id="865">5.1069e-12</wgt>
  <wgt id="866">5.34928e-12</wgt>
  <wgt id="867">2.23546e-12</wgt>
  <wgt id="868">2.99545e-12</wgt>
  <wgt id="869">2.42098e-20</wgt>
  <wgt id="870">5.92783e-13</wgt>
  <wgt id="871">1.27057e-12</wgt>
  <wgt id="872">5.01268e-12</wgt>
  <wgt id="873">1.0976e-12</wgt>
  <wgt id="874">3.06057e-12</wgt>
  <wgt id="875">5.30375e-13</wgt>
  <wgt id="876">4.51205e-12</wgt>
  <wgt id="877">3.0738e-12</wgt>
  <wgt id="878">9.32862e-13</wgt>
  <wgt id="879">4.40248e-12</wgt>
  <wgt id="880">4.36432e-12</wgt>
  <wgt id="881">5.16218e-12</wgt>
  <wgt id="882">5.12385e-12</wgt>
  <wgt id="883">4.52406e-12</wgt>
  <wgt id="884">4.14781e-12</wgt>
  <wgt id="885">4.78999e-12</wgt>
  <wgt id="886">3.73141e-12</wgt>
  <wgt id="887">4.94752e-12</wgt>
  <wgt id="888">4.5943e-12</wgt>
  <wgt id="889">4.8053e-12</wgt>
  <wgt id="890">4.34195e-12</wgt>
  <wgt id="891">4.31684e-12</wgt>
  <wgt id="892">4.94799e-12</wgt>
  <wgt id="893">4.68722e-12</wgt>
  <wgt id="894">4.58839e-12</wgt>
  <wgt id="895">4.13465e-12</wgt>
  <wgt id="896">7.03015e-12</wgt>
  <wgt id="897">5.21184e-12</wgt>
  <wgt id="898">3.7155e-12</wgt>
  <wgt id="899">3.83839e-12</wgt>
  <wgt id="900">3.4386e-12</wgt>
  <wgt id="901">3.06292e-12</wgt>
  <wgt id="902">3.54855e-12</wgt>
  <wgt id="903">3.70344e-12</wgt>
  <wgt id="904">4.44422e-12</wgt>
  <wgt id="905">3.93773e-12</wgt>
  <wgt id="906">6.40447e-12</wgt>
  <wgt id="907">5.18927e-12</wgt>
  <wgt id="908">4.95391e-12</wgt>
  <wgt id="909">3.6755e-12</wgt>
  <wgt id="910">3.90766e-12</wgt>
  <wgt id="911">3.86294e-12</wgt>
  <wgt id="912">4.03012e-12</wgt>
  <wgt id="913">2.61399e-12</wgt>
  <wgt id="914">5.12427e-12</wgt>
  <wgt id="915">4.00898e-12</wgt>
  <wgt id="916">4.78439e-12</wgt>
  <wgt id="917">3.48408e-12</wgt>
  <wgt id="918">3.87196e-12</wgt>
  <wgt id="919">4.09321e-12</wgt>
  <wgt id="920">3.23113e-12</wgt>
  <wgt id="921">4.49146e-12</wgt>
  <wgt id="922">4.07178e-12</wgt>
  <wgt id="923">4.76099e-12</wgt>
  <wgt id="924">3.56989e-12</wgt>
  <wgt id="925">2.53467e-12</wgt>
  <wgt id="926">5.55002e-12</wgt>
  <wgt id="927">5.02858e-12</wgt>
  <wgt id="928">4.75914e-12</wgt>
  <wgt id="929">4.336e-12</wgt>
  <wgt id="930">4.5729e-12</wgt>
  <wgt id="931">4.85935e-12</wgt>
  <wgt id="932">3.25687e-12</wgt>
  <wgt id="933">5.24088e-12</wgt>
  <wgt id="934">4.39525e-12</wgt>
  <wgt id="935">5.44115e-12</wgt>
  <wgt id="936">3.83414e-12</wgt>
  <wgt id="937">4.66514e-12</wgt>
  <wgt id="938">4.05311e-12</wgt>
  <wgt id="939">3.78553e-12</wgt>
  <wgt id="940">2.99914e-12</wgt>
  <wgt id="941">4.04136e-12</wgt>
  <wgt id="942">4.41811e-12</wgt>
  <wgt id="943">5.91467e-12</wgt>
  <wgt id="944">5.20114e-12</wgt>
  <wgt id="945">3.59115e-12</wgt>
  <wgt id="946">3.86798e-12</wgt>
  <wgt id="947">4.11461e-12</wgt>
  <wgt id="948">5.30462e-12</wgt>
  <wgt id="949">5.50646e-12</wgt>
  <wgt id="950">3.34726e-12</wgt>
  <wgt id="951">4.0716e-12</wgt>
  <wgt id="952">4.87109e-12</wgt>
  <wgt id="953">4.98556e-12</wgt>
  <wgt id="954">4.55631e-12</wgt>
  <wgt id="955">3.75389e-12</wgt>
  <wgt id="956">3.64376e-12</wgt>
  <wgt id="957">4.59829e-12</wgt>
  <wgt id="958">4.06668e-12</wgt>
  <wgt id="959">4.06041e-12</wgt>
  <wgt id="960">3.48496e-12</wgt>
  <wgt id="961">4.27464e-12</wgt>
  <wgt id="962">4.74277e-12</wgt>
  <wgt id="963">3.85602e-12</wgt>
  <wgt id="964">5.37449e-12</wgt>
  <wgt id="965">5.43859e-12</wgt>
  <wgt id="966">5.18765e-12</wgt>
  <wgt id="967">5.11909e-12</wgt>
  <wgt id="968">4.59961e-12</wgt>
  <wgt id="969">4.74307e-12</wgt>
  <wgt id="970">4.66357e-12</wgt>
  <wgt id="971">3.74723e-12</wgt>
  <wgt id="972">4.56005e-12</wgt>
  <wgt id="973">3.39079e-12</wgt>
  <wgt id="974">6.13243e-12</wgt>
  <wgt id="975">4.10906e-12</wgt>
  <wgt id="976">4.68705e-12</wgt>
  <wgt id="977">3.208e-12</wgt>
  <wgt id="978">4.76861e-12</wgt>
  <wgt id="979">6.07492e-12</wgt>
  <wgt id="980">4.35281e-12</wgt>
  <wgt id="981">4.6799e-12</wgt>
  <wgt id="982">4.3627e-12</wgt>
</rwgt>
</event>
<event>
 5   1  0.3028200E-11  0.2388540E+04  0.7818608E-02  0.7681363E-01
       21   -1    0    0  502  501  0.00000000000E+00  0.00000000000E+00  0.14147543964E+04  0.14147543964E+04  0.00000000000E+00 0.  1.
       21   -1    0    0  501  502 -0.00000000000E+00 -0.00000000000E+00 -0.10081475653E+04  0.10081475653E+04  0.00000000000E+00 0. -1.
       39    2    1    2    0    0  0.00000000000E+00  0.00000000000E+00  0.40660683109E+03  0.24229019617E+04  0.23885403076E+04 0.  0.
       25    1    3    3    0    0  0.10292721919E+04  0.21436891114E+03 -0.35718588588E+03  0.11173907249E+04  0.12500000000E+03 0.  0.
       25    1    3    3    0    0 -0.10292721919E+04 -0.21436891114E+03  0.76379271697E+03  0.13055112368E+04  0.12500000000E+03 0.  0.
<mgrwt>
<rscale>  0 0.23885403E+04</rscale>
<asrwt>0</asrwt>
<pdfrwt beam="1">  1       21 0.21765452E+00 0.23885403E+04</pdfrwt>
<pdfrwt beam="2">  1       21 0.15509963E+00 0.23885403E+04</pdfrwt>
<totfact> 0.10299985E+01</totfact>
</mgrwt>
<rwgt>
  <wgt id="1">3.0282e-12</wgt>
  <wgt id="2">2.63176e-12</wgt>
  <wgt id="3">3.52131e-12</wgt>
  <wgt id="4">3.0282e-12</wgt>
  <wgt id="5">2.63176e-12</wgt>
  <wgt id="6">3.52131e-12</wgt>
  <wgt id="7">3.0282e-12</wgt>
  <wgt id="8">2.63176e-12</wgt>
  <wgt id="9">3.52131e-12</wgt>
  <wgt id="10">3.14263e-12</wgt>
  <wgt id="11">3.13962e-12</wgt>
  <wgt id="12">3.13649e-12</wgt>
  <wgt id="13">3.13184e-12</wgt>
  <wgt id="14">3.15424e-12</wgt>
  <wgt id="15">3.14751e-12</wgt>
  <wgt id="16">3.13665e-12</wgt>
  <wgt id="17">3.14846e-12</wgt>
  <wgt id="18">3.13654e-12</wgt>
  <wgt id="19">3.14998e-12</wgt>
  <wgt id="20">3.1333e-12</wgt>
  <wgt id="21">3.12357e-12</wgt>
  <wgt id="22">3.13096e-12</wgt>
  <wgt id="23">3.11373e-12</wgt>
  <wgt id="24">3.12823e-12</wgt>
  <wgt id="25">3.13517e-12</wgt>
  <wgt id="26">3.15562e-12</wgt>
  <wgt id="27">3.14246e-12</wgt>
  <wgt id="28">3.12821e-12</wgt>
  <wgt id="29">3.14537e-12</wgt>
  <wgt id="30">3.13469e-12</wgt>
  <wgt id="31">3.15143e-12</wgt>
  <wgt id="32">3.13795e-12</wgt>
  <wgt id="33">3.15068e-12</wgt>
  <wgt id="34">3.13233e-12</wgt>
  <wgt id="35">3.14085e-12</wgt>
  <wgt id="36">3.15339e-12</wgt>
  <wgt id="37">3.13447e-12</wgt>
  <wgt id="38">3.13301e-12</wgt>
  <wgt id="39">3.17535e-12</wgt>
  <wgt id="40">3.14877e-12</wgt>
  <wgt id="41">3.14187e-12</wgt>
  <wgt id="42">3.14875e-12</wgt>
  <wgt id="43">3.14274e-12</wgt>
  <wgt id="44">3.13394e-12</wgt>
  <wgt id="45">3.15014e-12</wgt>
  <wgt id="46">3.14765e-12</wgt>
  <wgt id="47">3.13194e-12</wgt>
  <wgt id="48">3.14254e-12</wgt>
  <wgt id="49">3.14643e-12</wgt>
  <wgt id="50">3.15847e-12</wgt>
  <wgt id="51">3.15555e-12</wgt>
  <wgt id="52">3.14112e-12</wgt>
  <wgt id="53">3.11975e-12</wgt>
  <wgt id="54">3.13595e-12</wgt>
  <wgt id="55">3.14245e-12</wgt>
  <wgt id="56">3.15417e-12</wgt>
  <wgt id="57">3.15248e-12</wgt>
  <wgt id="58">3.12165e-12</wgt>
  <wgt id="59">3.13156e-12</wgt>
  <wgt id="60">3.14379e-12</wgt>
  <wgt id="61">3.13245e-12</wgt>
  <wgt id="62">3.13949e-12</wgt>
  <wgt id="63">3.14414e-12</wgt>
  <wgt id="64">3.14571e-12</wgt>
  <wgt id="65">3.14646e-12</wgt>
  <wgt id="66">3.13818e-12</wgt>
  <wgt id="67">3.13434e-12</wgt>
  <wgt id="68">3.13954e-12</wgt>
  <wgt id="69">3.14261e-12</wgt>
  <wgt id="70">3.14091e-12</wgt>
  <wgt id="71">3.14204e-12</wgt>
  <wgt id="72">3.1379e-12</wgt>
  <wgt id="73">3.14506e-12</wgt>
  <wgt id="74">3.14473e-12</wgt>
  <wgt id="75">3.1397e-12</wgt>
  <wgt id="76">3.1513e-12</wgt>
  <wgt id="77">3.1419e-12</wgt>
  <wgt id="78">3.14296e-12</wgt>
  <wgt id="79">3.14927e-12</wgt>
  <wgt id="80">3.12928e-12</wgt>
  <wgt id="81">3.13926e-12</wgt>
  <wgt id="82">3.14272e-12</wgt>
  <wgt id="83">3.13006e-12</wgt>
  <wgt id="84">3.13659e-12</wgt>
  <wgt id="85">3.13603e-12</wgt>
  <wgt id="86">3.15124e-12</wgt>
  <wgt id="87">3.12574e-12</wgt>
  <wgt id="88">3.14641e-12</wgt>
  <wgt id="89">3.14563e-12</wgt>
  <wgt id="90">3.14816e-12</wgt>
  <wgt id="91">3.14533e-12</wgt>
  <wgt id="92">3.14884e-12</wgt>
  <wgt id="93">3.14301e-12</wgt>
  <wgt id="94">3.13954e-12</wgt>
  <wgt id="95">3.14591e-12</wgt>
  <wgt id="96">3.14504e-12</wgt>
  <wgt id="97">3.13758e-12</wgt>
  <wgt id="98">3.14411e-12</wgt>
  <wgt id="99">3.13971e-12</wgt>
  <wgt id="100">3.14596e-12</wgt>
  <wgt id="101">3.14214e-12</wgt>
  <wgt id="102">3.13953e-12</wgt>
  <wgt id="103">3.14715e-12</wgt>
  <wgt id="104">3.14069e-12</wgt>
  <wgt id="105">3.14633e-12</wgt>
  <wgt id="106">3.1381e-12</wgt>
  <wgt id="107">3.15158e-12</wgt>
  <wgt id="108">3.13925e-12</wgt>
  <wgt id="109">3.14335e-12</wgt>
  <wgt id="110">3.14257e-12</wgt>
  <wgt id="111">3.17174e-12</wgt>
  <wgt id="112">3.14414e-12</wgt>
  <wgt id="113">4.26753e-12</wgt>
  <wgt id="114">4.37977e-12</wgt>
  <wgt id="115">4.31817e-12</wgt>
  <wgt id="116">6.09998e-12</wgt>
  <wgt id="117">3.51289e-12</wgt>
  <wgt id="118">3.5256e-12</wgt>
  <wgt id="119">3.50561e-12</wgt>
  <wgt id="120">3.51315e-12</wgt>
  <wgt id="121">3.51278e-12</wgt>
  <wgt id="122">3.50666e-12</wgt>
  <wgt id="123">3.52118e-12</wgt>
  <wgt id="124">3.50784e-12</wgt>
  <wgt id="125">3.51603e-12</wgt>
  <wgt id="126">3.51942e-12</wgt>
  <wgt id="127">3.50857e-12</wgt>
  <wgt id="128">3.52386e-12</wgt>
  <wgt id="129">3.502e-12</wgt>
  <wgt id="130">3.5334e-12</wgt>
  <wgt id="131">3.49196e-12</wgt>
  <wgt id="132">3.42033e-12</wgt>
  <wgt id="133">3.62257e-12</wgt>
  <wgt id="134">3.47454e-12</wgt>
  <wgt id="135">3.5429e-12</wgt>
  <wgt id="136">3.55898e-12</wgt>
  <wgt id="137">3.45704e-12</wgt>
  <wgt id="138">3.65208e-12</wgt>
  <wgt id="139">3.37859e-12</wgt>
  <wgt id="140">3.49004e-12</wgt>
  <wgt id="141">3.53062e-12</wgt>
  <wgt id="142">3.51329e-12</wgt>
  <wgt id="143">3.51822e-12</wgt>
  <wgt id="144">3.40884e-12</wgt>
  <wgt id="145">3.60996e-12</wgt>
  <wgt id="146">3.54613e-12</wgt>
  <wgt id="147">3.4864e-12</wgt>
  <wgt id="148">3.52391e-12</wgt>
  <wgt id="149">3.51203e-12</wgt>
  <wgt id="150">3.54357e-12</wgt>
  <wgt id="151">3.49861e-12</wgt>
  <wgt id="152">3.5146e-12</wgt>
  <wgt id="153">3.51218e-12</wgt>
  <wgt id="154">3.53952e-12</wgt>
  <wgt id="155">3.48054e-12</wgt>
  <wgt id="156">3.58761e-12</wgt>
  <wgt id="157">3.43584e-12</wgt>
  <wgt id="158">4.22483e-12</wgt>
  <wgt id="159">4.24267e-12</wgt>
  <wgt id="160">4.21078e-12</wgt>
  <wgt id="161">4.2141e-12</wgt>
  <wgt id="162">4.23717e-12</wgt>
  <wgt id="163">4.22014e-12</wgt>
  <wgt id="164">4.23203e-12</wgt>
  <wgt id="165">4.22656e-12</wgt>
  <wgt id="166">4.22362e-12</wgt>
  <wgt id="167">4.22183e-12</wgt>
  <wgt id="168">4.2294e-12</wgt>
  <wgt id="169">4.20691e-12</wgt>
  <wgt id="170">4.23616e-12</wgt>
  <wgt id="171">4.22024e-12</wgt>
  <wgt id="172">4.23164e-12</wgt>
  <wgt id="173">4.22415e-12</wgt>
  <wgt id="174">4.22514e-12</wgt>
  <wgt id="175">4.1046e-12</wgt>
  <wgt id="176">4.38214e-12</wgt>
  <wgt id="177">4.24796e-12</wgt>
  <wgt id="178">4.20383e-12</wgt>
  <wgt id="179">4.40666e-12</wgt>
  <wgt id="180">3.93884e-12</wgt>
  <wgt id="181">4.09923e-12</wgt>
  <wgt id="182">4.30794e-12</wgt>
  <wgt id="183">4.14826e-12</wgt>
  <wgt id="184">4.263e-12</wgt>
  <wgt id="185">4.18985e-12</wgt>
  <wgt id="186">4.26774e-12</wgt>
  <wgt id="187">4.18616e-12</wgt>
  <wgt id="188">4.2947e-12</wgt>
  <wgt id="189">4.19696e-12</wgt>
  <wgt id="190">4.23634e-12</wgt>
  <wgt id="191">4.23674e-12</wgt>
  <wgt id="192">4.21792e-12</wgt>
  <wgt id="193">4.28669e-12</wgt>
  <wgt id="194">4.19444e-12</wgt>
  <wgt id="195">4.11374e-12</wgt>
  <wgt id="196">4.41978e-12</wgt>
  <wgt id="197">4.24641e-12</wgt>
  <wgt id="198">4.21986e-12</wgt>
  <wgt id="199">4.22483e-12</wgt>
  <wgt id="200">4.26161e-12</wgt>
  <wgt id="201">4.2484e-12</wgt>
  <wgt id="202">4.23529e-12</wgt>
  <wgt id="203">4.21582e-12</wgt>
  <wgt id="204">4.20651e-12</wgt>
  <wgt id="205">4.19901e-12</wgt>
  <wgt id="206">4.09402e-12</wgt>
  <wgt id="207">4.11806e-12</wgt>
  <wgt id="208">4.07039e-12</wgt>
  <wgt id="209">4.10729e-12</wgt>
  <wgt id="210">4.08465e-12</wgt>
  <wgt id="211">4.09258e-12</wgt>
  <wgt id="212">4.09529e-12</wgt>
  <wgt id="213">4.09384e-12</wgt>
  <wgt id="214">4.09466e-12</wgt>
  <wgt id="215">4.09727e-12</wgt>
  <wgt id="216">4.09188e-12</wgt>
  <wgt id="217">4.10585e-12</wgt>
  <wgt id="218">4.08495e-12</wgt>
  <wgt id="219">4.09029e-12</wgt>
  <wgt id="220">4.09659e-12</wgt>
  <wgt id="221">4.09259e-12</wgt>
  <wgt id="222">4.098e-12</wgt>
  <wgt id="223">3.875e-12</wgt>
  <wgt id="224">4.29378e-12</wgt>
  <wgt id="225">4.04423e-12</wgt>
  <wgt id="226">4.15691e-12</wgt>
  <wgt id="227">4.05512e-12</wgt>
  <wgt id="228">4.11124e-12</wgt>
  <wgt id="229">4.03675e-12</wgt>
  <wgt id="230">4.12275e-12</wgt>
  <wgt id="231">4.21304e-12</wgt>
  <wgt id="232">3.99654e-12</wgt>
  <wgt id="233">4.07249e-12</wgt>
  <wgt id="234">4.12861e-12</wgt>
  <wgt id="235">4.00384e-12</wgt>
  <wgt id="236">4.17651e-12</wgt>
  <wgt id="237">4.03417e-12</wgt>
  <wgt id="238">4.11454e-12</wgt>
  <wgt id="239">4.06841e-12</wgt>
  <wgt id="240">4.14076e-12</wgt>
  <wgt id="241">4.05168e-12</wgt>
  <wgt id="242">4.14533e-12</wgt>
  <wgt id="243">4.14809e-12</wgt>
  <wgt id="244">4.1134e-12</wgt>
  <wgt id="245">4.09147e-12</wgt>
  <wgt id="246">4.12359e-12</wgt>
  <wgt id="247">4.09402e-12</wgt>
  <wgt id="248">4.13013e-12</wgt>
  <wgt id="249">4.11635e-12</wgt>
  <wgt id="250">4.10358e-12</wgt>
  <wgt id="251">4.08456e-12</wgt>
  <wgt id="252">4.07549e-12</wgt>
  <wgt id="253">4.06916e-12</wgt>
  <wgt id="254">4.00874e-12</wgt>
  <wgt id="255">4.01254e-12</wgt>
  <wgt id="256">4.00457e-12</wgt>
  <wgt id="257">4.0117e-12</wgt>
  <wgt id="258">4.00662e-12</wgt>
  <wgt id="259">4.03553e-12</wgt>
  <wgt id="260">3.9829e-12</wgt>
  <wgt id="261">4.01479e-12</wgt>
  <wgt id="262">4.00137e-12</wgt>
  <wgt id="263">4.00669e-12</wgt>
  <wgt id="264">4.0109e-12</wgt>
  <wgt id="265">4.00394e-12</wgt>
  <wgt id="266">4.01837e-12</wgt>
  <wgt id="267">4.00996e-12</wgt>
  <wgt id="268">4.00682e-12</wgt>
  <wgt id="269">4.02194e-12</wgt>
  <wgt id="270">3.99975e-12</wgt>
  <wgt id="271">4.00181e-12</wgt>
  <wgt id="272">4.01654e-12</wgt>
  <wgt id="273">3.99618e-12</wgt>
  <wgt id="274">4.01827e-12</wgt>
  <wgt id="275">3.99173e-12</wgt>
  <wgt id="276">4.02629e-12</wgt>
  <wgt id="277">3.98566e-12</wgt>
  <wgt id="278">4.02995e-12</wgt>
  <wgt id="279">3.93093e-12</wgt>
  <wgt id="280">4.1063e-12</wgt>
  <wgt id="281">3.99084e-12</wgt>
  <wgt id="282">4.00985e-12</wgt>
  <wgt id="283">3.89266e-12</wgt>
  <wgt id="284">4.15162e-12</wgt>
  <wgt id="285">3.81659e-12</wgt>
  <wgt id="286">4.1677e-12</wgt>
  <wgt id="287">4.02147e-12</wgt>
  <wgt id="288">3.9926e-12</wgt>
  <wgt id="289">4.0371e-12</wgt>
  <wgt id="290">3.94301e-12</wgt>
  <wgt id="291">3.99748e-12</wgt>
  <wgt id="292">4.01131e-12</wgt>
  <wgt id="293">3.97766e-12</wgt>
  <wgt id="294">4.03956e-12</wgt>
  <wgt id="295">3.93254e-12</wgt>
  <wgt id="296">4.10161e-12</wgt>
  <wgt id="297">4.00779e-12</wgt>
  <wgt id="298">4.02421e-12</wgt>
  <wgt id="299">3.99572e-12</wgt>
  <wgt id="300">4.04319e-12</wgt>
  <wgt id="301">3.95058e-12</wgt>
  <wgt id="302">4.15335e-12</wgt>
  <wgt id="303">3.97714e-12</wgt>
  <wgt id="304">4.02675e-12</wgt>
  <wgt id="305">4.01907e-12</wgt>
  <wgt id="306">4.02325e-12</wgt>
  <wgt id="307">4.01457e-12</wgt>
  <wgt id="308">4.02245e-12</wgt>
  <wgt id="309">4.0169e-12</wgt>
  <wgt id="310">4.04701e-12</wgt>
  <wgt id="311">3.99315e-12</wgt>
  <wgt id="312">4.02409e-12</wgt>
  <wgt id="313">4.01395e-12</wgt>
  <wgt id="314">4.0171e-12</wgt>
  <wgt id="315">4.02089e-12</wgt>
  <wgt id="316">4.01445e-12</wgt>
  <wgt id="317">4.0291e-12</wgt>
  <wgt id="318">4.02213e-12</wgt>
  <wgt id="319">4.01383e-12</wgt>
  <wgt id="320">4.03301e-12</wgt>
  <wgt id="321">4.01136e-12</wgt>
  <wgt id="322">4.01012e-12</wgt>
  <wgt id="323">4.0295e-12</wgt>
  <wgt id="324">4.0086e-12</wgt>
  <wgt id="325">4.02819e-12</wgt>
  <wgt id="326">4.00535e-12</wgt>
  <wgt id="327">4.03665e-12</wgt>
  <wgt id="328">3.99828e-12</wgt>
  <wgt id="329">4.03077e-12</wgt>
  <wgt id="330">4.13851e-12</wgt>
  <wgt id="331">3.90529e-12</wgt>
  <wgt id="332">4.00404e-12</wgt>
  <wgt id="333">4.01945e-12</wgt>
  <wgt id="334">3.92802e-12</wgt>
  <wgt id="335">4.13216e-12</wgt>
  <wgt id="336">3.87952e-12</wgt>
  <wgt id="337">4.18897e-12</wgt>
  <wgt id="338">4.06387e-12</wgt>
  <wgt id="339">3.97755e-12</wgt>
  <wgt id="340">4.0457e-12</wgt>
  <wgt id="341">3.95037e-12</wgt>
  <wgt id="342">4.01114e-12</wgt>
  <wgt id="343">4.01499e-12</wgt>
  <wgt id="344">3.99087e-12</wgt>
  <wgt id="345">4.05165e-12</wgt>
  <wgt id="346">3.93989e-12</wgt>
  <wgt id="347">4.11014e-12</wgt>
  <wgt id="348">4.01974e-12</wgt>
  <wgt id="349">4.03212e-12</wgt>
  <wgt id="350">4.00264e-12</wgt>
  <wgt id="351">4.06053e-12</wgt>
  <wgt id="352">3.95491e-12</wgt>
  <wgt id="353">4.1699e-12</wgt>
  <wgt id="354">3.97101e-12</wgt>
  <wgt id="355">4.04835e-12</wgt>
  <wgt id="356">4.00874e-12</wgt>
  <wgt id="357">4.03499e-12</wgt>
  <wgt id="358">4.01907e-12</wgt>
  <wgt id="359">4.02223e-12</wgt>
  <wgt id="360">4.0376e-12</wgt>
  <wgt id="361">4.02181e-12</wgt>
  <wgt id="362">4.09244e-12</wgt>
  <wgt id="363">4.08256e-12</wgt>
  <wgt id="364">4.0682e-12</wgt>
  <wgt id="365">4.05435e-12</wgt>
  <wgt id="366">4.03887e-12</wgt>
  <wgt id="367">4.00741e-12</wgt>
  <wgt id="368">3.98991e-12</wgt>
  <wgt id="369">3.97099e-12</wgt>
  <wgt id="370">4.02181e-12</wgt>
  <wgt id="371">4.03995e-12</wgt>
  <wgt id="372">4.03003e-12</wgt>
  <wgt id="373">4.01516e-12</wgt>
  <wgt id="374">4.01418e-12</wgt>
  <wgt id="375">4.30449e-12</wgt>
  <wgt id="376">4.30504e-12</wgt>
  <wgt id="377">4.30363e-12</wgt>
  <wgt id="378">4.32025e-12</wgt>
  <wgt id="379">4.28877e-12</wgt>
  <wgt id="380">4.31591e-12</wgt>
  <wgt id="381">4.29994e-12</wgt>
  <wgt id="382">4.32714e-12</wgt>
  <wgt id="383">4.28198e-12</wgt>
  <wgt id="384">4.30735e-12</wgt>
  <wgt id="385">4.30174e-12</wgt>
  <wgt id="386">4.322e-12</wgt>
  <wgt id="387">4.29686e-12</wgt>
  <wgt id="388">4.30027e-12</wgt>
  <wgt id="389">4.30946e-12</wgt>
  <wgt id="390">4.31622e-12</wgt>
  <wgt id="391">4.29214e-12</wgt>
  <wgt id="392">4.27072e-12</wgt>
  <wgt id="393">4.32373e-12</wgt>
  <wgt id="394">4.31055e-12</wgt>
  <wgt id="395">4.29628e-12</wgt>
  <wgt id="396">4.30776e-12</wgt>
  <wgt id="397">4.30222e-12</wgt>
  <wgt id="398">4.28563e-12</wgt>
  <wgt id="399">4.32274e-12</wgt>
  <wgt id="400">4.29709e-12</wgt>
  <wgt id="401">4.32113e-12</wgt>
  <wgt id="402">4.26883e-12</wgt>
  <wgt id="403">4.32049e-12</wgt>
  <wgt id="404">4.40528e-12</wgt>
  <wgt id="405">4.06154e-12</wgt>
  <wgt id="406">4.23206e-12</wgt>
  <wgt id="407">4.46158e-12</wgt>
  <wgt id="408">4.34166e-12</wgt>
  <wgt id="409">4.23349e-12</wgt>
  <wgt id="410">4.18602e-12</wgt>
  <wgt id="411">4.35945e-12</wgt>
  <wgt id="412">4.29671e-12</wgt>
  <wgt id="413">4.316e-12</wgt>
  <wgt id="414">4.25715e-12</wgt>
  <wgt id="415">4.34135e-12</wgt>
  <wgt id="416">4.42035e-12</wgt>
  <wgt id="417">4.14451e-12</wgt>
  <wgt id="418">4.31033e-12</wgt>
  <wgt id="419">4.27298e-12</wgt>
  <wgt id="420">4.37184e-12</wgt>
  <wgt id="421">4.26551e-12</wgt>
  <wgt id="422">4.29651e-12</wgt>
  <wgt id="423">4.30909e-12</wgt>
  <wgt id="424">4.39444e-12</wgt>
  <wgt id="425">4.24765e-12</wgt>
  <wgt id="426">4.30449e-12</wgt>
  <wgt id="427">4.26432e-12</wgt>
  <wgt id="428">4.42091e-12</wgt>
  <wgt id="429">4.34441e-12</wgt>
  <wgt id="430">4.46704e-12</wgt>
  <wgt id="431">4.44243e-12</wgt>
  <wgt id="432">4.41935e-12</wgt>
  <wgt id="433">4.39699e-12</wgt>
  <wgt id="434">4.36974e-12</wgt>
  <wgt id="435">4.31295e-12</wgt>
  <wgt id="436">4.28388e-12</wgt>
  <wgt id="437">4.256e-12</wgt>
  <wgt id="438">4.34441e-12</wgt>
  <wgt id="439">4.35877e-12</wgt>
  <wgt id="440">4.3503e-12</wgt>
  <wgt id="441">4.34003e-12</wgt>
  <wgt id="442">4.33641e-12</wgt>
  <wgt id="443">4.19598e-12</wgt>
  <wgt id="444">4.22028e-12</wgt>
  <wgt id="445">4.18054e-12</wgt>
  <wgt id="446">4.16888e-12</wgt>
  <wgt id="447">4.18158e-12</wgt>
  <wgt id="448">4.08469e-12</wgt>
  <wgt id="449">4.26167e-12</wgt>
  <wgt id="450">4.18323e-12</wgt>
  <wgt id="451">4.18886e-12</wgt>
  <wgt id="452">4.29119e-12</wgt>
  <wgt id="453">4.23662e-12</wgt>
  <wgt id="454">4.02717e-12</wgt>
  <wgt id="455">4.20212e-12</wgt>
  <wgt id="456">4.16121e-12</wgt>
  <wgt id="457">4.21345e-12</wgt>
  <wgt id="458">4.24493e-12</wgt>
  <wgt id="459">4.22454e-12</wgt>
  <wgt id="460">4.22132e-12</wgt>
  <wgt id="461">4.11713e-12</wgt>
  <wgt id="462">4.16121e-12</wgt>
  <wgt id="463">4.14936e-12</wgt>
  <wgt id="464">4.17191e-12</wgt>
  <wgt id="465">4.24073e-12</wgt>
  <wgt id="466">4.14601e-12</wgt>
  <wgt id="467">4.15498e-12</wgt>
  <wgt id="468">4.18453e-12</wgt>
  <wgt id="469">4.18398e-12</wgt>
  <wgt id="470">4.1577e-12</wgt>
  <wgt id="471">4.15811e-12</wgt>
  <wgt id="472">4.21584e-12</wgt>
  <wgt id="473">4.05863e-12</wgt>
  <wgt id="474">3.0282e-12</wgt>
  <wgt id="475">3.20264e-12</wgt>
  <wgt id="476">2.96272e-12</wgt>
  <wgt id="477">2.9254e-12</wgt>
  <wgt id="478">3.04453e-12</wgt>
  <wgt id="479">2.96704e-12</wgt>
  <wgt id="480">3.14188e-12</wgt>
  <wgt id="481">2.97412e-12</wgt>
  <wgt id="482">2.92543e-12</wgt>
  <wgt id="483">2.94944e-12</wgt>
  <wgt id="484">3.21381e-12</wgt>
  <wgt id="485">3.01611e-12</wgt>
  <wgt id="486">3.11757e-12</wgt>
  <wgt id="487">3.08336e-12</wgt>
  <wgt id="488">3.07475e-12</wgt>
  <wgt id="489">2.91989e-12</wgt>
  <wgt id="490">2.92459e-12</wgt>
  <wgt id="491">2.99675e-12</wgt>
  <wgt id="492">2.94033e-12</wgt>
  <wgt id="493">2.91233e-12</wgt>
  <wgt id="494">2.93525e-12</wgt>
  <wgt id="495">3.09016e-12</wgt>
  <wgt id="496">2.92893e-12</wgt>
  <wgt id="497">2.90692e-12</wgt>
  <wgt id="498">3.07844e-12</wgt>
  <wgt id="499">2.95949e-12</wgt>
  <wgt id="500">2.97866e-12</wgt>
  <wgt id="501">3.16787e-12</wgt>
  <wgt id="502">2.96159e-12</wgt>
  <wgt id="503">3.02639e-12</wgt>
  <wgt id="504">3.06038e-12</wgt>
  <wgt id="505">3.01239e-12</wgt>
  <wgt id="506">3.07896e-12</wgt>
  <wgt id="507">3.00554e-12</wgt>
  <wgt id="508">3.08045e-12</wgt>
  <wgt id="509">2.93569e-12</wgt>
  <wgt id="510">3.11167e-12</wgt>
  <wgt id="511">2.96409e-12</wgt>
  <wgt id="512">3.08315e-12</wgt>
  <wgt id="513">3.16495e-12</wgt>
  <wgt id="514">3.01618e-12</wgt>
  <wgt id="515">2.99254e-12</wgt>
  <wgt id="516">3.12702e-12</wgt>
  <wgt id="517">3.09257e-12</wgt>
  <wgt id="518">3.10002e-12</wgt>
  <wgt id="519">2.93968e-12</wgt>
  <wgt id="520">3.06415e-12</wgt>
  <wgt id="521">3.12683e-12</wgt>
  <wgt id="522">3.14849e-12</wgt>
  <wgt id="523">3.08553e-12</wgt>
  <wgt id="524">3.06538e-12</wgt>
  <wgt id="525">3.12366e-12</wgt>
  <wgt id="526">3.04721e-12</wgt>
  <wgt id="527">3.07002e-12</wgt>
  <wgt id="528">3.04621e-12</wgt>
  <wgt id="529">2.9751e-12</wgt>
  <wgt id="530">3.06717e-12</wgt>
  <wgt id="531">2.99344e-12</wgt>
  <wgt id="532">3.2049e-12</wgt>
  <wgt id="533">2.85655e-12</wgt>
  <wgt id="534">3.03819e-12</wgt>
  <wgt id="535">3.082e-12</wgt>
  <wgt id="536">3.01084e-12</wgt>
  <wgt id="537">3.03439e-12</wgt>
  <wgt id="538">3.06149e-12</wgt>
  <wgt id="539">2.97242e-12</wgt>
  <wgt id="540">2.97538e-12</wgt>
  <wgt id="541">2.94032e-12</wgt>
  <wgt id="542">2.9806e-12</wgt>
  <wgt id="543">3.02112e-12</wgt>
  <wgt id="544">3.1739e-12</wgt>
  <wgt id="545">2.98552e-12</wgt>
  <wgt id="546">2.98105e-12</wgt>
  <wgt id="547">2.93856e-12</wgt>
  <wgt id="548">2.90498e-12</wgt>
  <wgt id="549">2.97508e-12</wgt>
  <wgt id="550">2.99517e-12</wgt>
  <wgt id="551">3.05962e-12</wgt>
  <wgt id="552">2.98864e-12</wgt>
  <wgt id="553">3.01456e-12</wgt>
  <wgt id="554">3.24977e-12</wgt>
  <wgt id="555">3.10578e-12</wgt>
  <wgt id="556">2.92459e-12</wgt>
  <wgt id="557">3.08373e-12</wgt>
  <wgt id="558">2.9349e-12</wgt>
  <wgt id="559">2.98392e-12</wgt>
  <wgt id="560">3.29116e-12</wgt>
  <wgt id="561">2.97484e-12</wgt>
  <wgt id="562">3.08381e-12</wgt>
  <wgt id="563">2.95533e-12</wgt>
  <wgt id="564">3.04233e-12</wgt>
  <wgt id="565">2.92062e-12</wgt>
  <wgt id="566">3.07599e-12</wgt>
  <wgt id="567">2.98909e-12</wgt>
  <wgt id="568">3.01453e-12</wgt>
  <wgt id="569">3.08363e-12</wgt>
  <wgt id="570">2.92595e-12</wgt>
  <wgt id="571">3.35729e-12</wgt>
  <wgt id="572">2.95964e-12</wgt>
  <wgt id="573">2.89869e-12</wgt>
  <wgt id="574">2.92292e-12</wgt>
  <wgt id="575">3.33826e-12</wgt>
  <wgt id="576">3.32505e-12</wgt>
  <wgt id="577">3.42753e-12</wgt>
  <wgt id="578">3.42917e-12</wgt>
  <wgt id="579">3.40139e-12</wgt>
  <wgt id="580">3.41225e-12</wgt>
  <wgt id="581">3.56213e-12</wgt>
  <wgt id="582">3.31683e-12</wgt>
  <wgt id="583">3.37443e-12</wgt>
  <wgt id="584">3.34052e-12</wgt>
  <wgt id="585">3.34569e-12</wgt>
  <wgt id="586">3.25744e-12</wgt>
  <wgt id="587">3.38673e-12</wgt>
  <wgt id="588">3.32861e-12</wgt>
  <wgt id="589">3.41407e-12</wgt>
  <wgt id="590">3.38877e-12</wgt>
  <wgt id="591">3.46252e-12</wgt>
  <wgt id="592">3.24896e-12</wgt>
  <wgt id="593">3.32062e-12</wgt>
  <wgt id="594">3.43084e-12</wgt>
  <wgt id="595">3.33193e-12</wgt>
  <wgt id="596">3.38145e-12</wgt>
  <wgt id="597">3.24559e-12</wgt>
  <wgt id="598">3.23672e-12</wgt>
  <wgt id="599">3.50369e-12</wgt>
  <wgt id="600">3.31249e-12</wgt>
  <wgt id="601">3.24321e-12</wgt>
  <wgt id="602">3.26084e-12</wgt>
  <wgt id="603">3.26887e-12</wgt>
  <wgt id="604">3.38837e-12</wgt>
  <wgt id="605">3.46989e-12</wgt>
  <wgt id="606">3.27406e-12</wgt>
  <wgt id="607">3.30428e-12</wgt>
  <wgt id="608">3.37036e-12</wgt>
  <wgt id="609">3.16457e-12</wgt>
  <wgt id="610">3.21473e-12</wgt>
  <wgt id="611">3.36258e-12</wgt>
  <wgt id="612">3.5739e-12</wgt>
  <wgt id="613">3.32348e-12</wgt>
  <wgt id="614">3.37869e-12</wgt>
  <wgt id="615">3.27505e-12</wgt>
  <wgt id="616">3.51288e-12</wgt>
  <wgt id="617">3.46368e-12</wgt>
  <wgt id="618">3.42971e-12</wgt>
  <wgt id="619">3.29716e-12</wgt>
  <wgt id="620">3.48123e-12</wgt>
  <wgt id="621">3.37753e-12</wgt>
  <wgt id="622">3.38673e-12</wgt>
  <wgt id="623">3.43144e-12</wgt>
  <wgt id="624">3.33088e-12</wgt>
  <wgt id="625">3.29362e-12</wgt>
  <wgt id="626">3.24612e-12</wgt>
  <wgt id="627">3.19946e-12</wgt>
  <wgt id="628">3.523e-12</wgt>
  <wgt id="629">3.26628e-12</wgt>
  <wgt id="630">3.22041e-12</wgt>
  <wgt id="631">3.35724e-12</wgt>
  <wgt id="632">3.21078e-12</wgt>
  <wgt id="633">3.30373e-12</wgt>
  <wgt id="634">3.32286e-12</wgt>
  <wgt id="635">3.2536e-12</wgt>
  <wgt id="636">3.36058e-12</wgt>
  <wgt id="637">3.32918e-12</wgt>
  <wgt id="638">3.21062e-12</wgt>
  <wgt id="639">3.28998e-12</wgt>
  <wgt id="640">3.3375e-12</wgt>
  <wgt id="641">3.3671e-12</wgt>
  <wgt id="642">3.22007e-12</wgt>
  <wgt id="643">3.31632e-12</wgt>
  <wgt id="644">3.18871e-12</wgt>
  <wgt id="645">3.36763e-12</wgt>
  <wgt id="646">3.37142e-12</wgt>
  <wgt id="647">3.29774e-12</wgt>
  <wgt id="648">3.36332e-12</wgt>
  <wgt id="649">3.38646e-12</wgt>
  <wgt id="650">3.26956e-12</wgt>
  <wgt id="651">3.3647e-12</wgt>
  <wgt id="652">3.30971e-12</wgt>
  <wgt id="653">3.24311e-12</wgt>
  <wgt id="654">3.31459e-12</wgt>
  <wgt id="655">3.28406e-12</wgt>
  <wgt id="656">3.35755e-12</wgt>
  <wgt id="657">3.47227e-12</wgt>
  <wgt id="658">3.34931e-12</wgt>
  <wgt id="659">3.20702e-12</wgt>
  <wgt id="660">3.39676e-12</wgt>
  <wgt id="661">3.28266e-12</wgt>
  <wgt id="662">3.3337e-12</wgt>
  <wgt id="663">3.3411e-12</wgt>
  <wgt id="664">3.29296e-12</wgt>
  <wgt id="665">3.32835e-12</wgt>
  <wgt id="666">3.30859e-12</wgt>
  <wgt id="667">3.44594e-12</wgt>
  <wgt id="668">3.33388e-12</wgt>
  <wgt id="669">3.41611e-12</wgt>
  <wgt id="670">3.41005e-12</wgt>
  <wgt id="671">3.31076e-12</wgt>
  <wgt id="672">3.1986e-12</wgt>
  <wgt id="673">3.35474e-12</wgt>
  <wgt id="674">3.27272e-12</wgt>
  <wgt id="675">3.29085e-12</wgt>
  <wgt id="676">4.21939e-12</wgt>
  <wgt id="677">4.26637e-12</wgt>
  <wgt id="678">4.42851e-12</wgt>
  <wgt id="679">3.95898e-12</wgt>
  <wgt id="680">4.12555e-12</wgt>
  <wgt id="681">4.30449e-12</wgt>
  <wgt id="682">4.34603e-12</wgt>
  <wgt id="683">4.15487e-12</wgt>
  <wgt id="684">4.41072e-12</wgt>
  <wgt id="685">4.00812e-12</wgt>
  <wgt id="686">4.13483e-12</wgt>
  <wgt id="687">4.4271e-12</wgt>
  <wgt id="688">4.19426e-12</wgt>
  <wgt id="689">4.55668e-12</wgt>
  <wgt id="690">4.4295e-12</wgt>
  <wgt id="691">4.46728e-12</wgt>
  <wgt id="692">4.17166e-12</wgt>
  <wgt id="693">4.97368e-12</wgt>
  <wgt id="694">4.47728e-12</wgt>
  <wgt id="695">4.08559e-12</wgt>
  <wgt id="696">4.00038e-12</wgt>
  <wgt id="697">4.09104e-12</wgt>
  <wgt id="698">3.85918e-12</wgt>
  <wgt id="699">3.83197e-12</wgt>
  <wgt id="700">3.68466e-12</wgt>
  <wgt id="701">4.23366e-12</wgt>
  <wgt id="702">4.08726e-12</wgt>
  <wgt id="703">4.85405e-12</wgt>
  <wgt id="704">4.61802e-12</wgt>
  <wgt id="705">4.42445e-12</wgt>
  <wgt id="706">3.93684e-12</wgt>
  <wgt id="707">4.04755e-12</wgt>
  <wgt id="708">4.16109e-12</wgt>
  <wgt id="709">4.14348e-12</wgt>
  <wgt id="710">3.79654e-12</wgt>
  <wgt id="711">4.19768e-12</wgt>
  <wgt id="712">4.13832e-12</wgt>
  <wgt id="713">4.56272e-12</wgt>
  <wgt id="714">4.13907e-12</wgt>
  <wgt id="715">4.17103e-12</wgt>
  <wgt id="716">4.05955e-12</wgt>
  <wgt id="717">4.00814e-12</wgt>
  <wgt id="718">4.21361e-12</wgt>
  <wgt id="719">3.82955e-12</wgt>
  <wgt id="720">3.98324e-12</wgt>
  <wgt id="721">3.87123e-12</wgt>
  <wgt id="722">3.7289e-12</wgt>
  <wgt id="723">4.50775e-12</wgt>
  <wgt id="724">4.42469e-12</wgt>
  <wgt id="725">4.4508e-12</wgt>
  <wgt id="726">4.25746e-12</wgt>
  <wgt id="727">4.12518e-12</wgt>
  <wgt id="728">4.12466e-12</wgt>
  <wgt id="729">3.87674e-12</wgt>
  <wgt id="730">4.56117e-12</wgt>
  <wgt id="731">4.16526e-12</wgt>
  <wgt id="732">4.64668e-12</wgt>
  <wgt id="733">4.20092e-12</wgt>
  <wgt id="734">4.32333e-12</wgt>
  <wgt id="735">4.20651e-12</wgt>
  <wgt id="736">4.12969e-12</wgt>
  <wgt id="737">4.2837e-12</wgt>
  <wgt id="738">4.00744e-12</wgt>
  <wgt id="739">4.29729e-12</wgt>
  <wgt id="740">4.6981e-12</wgt>
  <wgt id="741">3.77582e-12</wgt>
  <wgt id="742">4.15587e-12</wgt>
  <wgt id="743">4.01906e-12</wgt>
  <wgt id="744">4.1334e-12</wgt>
  <wgt id="745">4.41959e-12</wgt>
  <wgt id="746">4.49578e-12</wgt>
  <wgt id="747">3.80789e-12</wgt>
  <wgt id="748">4.16424e-12</wgt>
  <wgt id="749">4.43845e-12</wgt>
  <wgt id="750">4.30935e-12</wgt>
  <wgt id="751">4.34816e-12</wgt>
  <wgt id="752">3.86372e-12</wgt>
  <wgt id="753">4.00247e-12</wgt>
  <wgt id="754">4.41191e-12</wgt>
  <wgt id="755">4.2306e-12</wgt>
  <wgt id="756">4.24038e-12</wgt>
  <wgt id="757">3.8736e-12</wgt>
  <wgt id="758">4.24939e-12</wgt>
  <wgt id="759">4.32853e-12</wgt>
  <wgt id="760">4.26163e-12</wgt>
  <wgt id="761">4.45179e-12</wgt>
  <wgt id="762">4.47975e-12</wgt>
  <wgt id="763">4.20344e-12</wgt>
  <wgt id="764">4.39218e-12</wgt>
  <wgt id="765">4.29189e-12</wgt>
  <wgt id="766">4.21502e-12</wgt>
  <wgt id="767">4.3275e-12</wgt>
  <wgt id="768">3.97407e-12</wgt>
  <wgt id="769">4.47772e-12</wgt>
  <wgt id="770">4.09901e-12</wgt>
  <wgt id="771">5.00014e-12</wgt>
  <wgt id="772">3.98838e-12</wgt>
  <wgt id="773">4.18659e-12</wgt>
  <wgt id="774">3.72727e-12</wgt>
  <wgt id="775">4.4481e-12</wgt>
  <wgt id="776">4.61441e-12</wgt>
  <wgt id="777">3.99693e-12</wgt>
  <wgt id="778">3.09068e-12</wgt>
  <wgt id="779">2.5319e-12</wgt>
  <wgt id="780">2.02826e-12</wgt>
  <wgt id="781">3.21712e-12</wgt>
  <wgt id="782">3.29161e-12</wgt>
  <wgt id="783">2.55499e-12</wgt>
  <wgt id="784">2.67321e-12</wgt>
  <wgt id="785">3.80579e-12</wgt>
  <wgt id="786">2.35539e-12</wgt>
  <wgt id="787">3.5493e-12</wgt>
  <wgt id="788">1.87418e-12</wgt>
  <wgt id="789">2.46763e-12</wgt>
  <wgt id="790">2.32117e-12</wgt>
  <wgt id="791">2.92599e-12</wgt>
  <wgt id="792">4.04693e-12</wgt>
  <wgt id="793">3.02496e-12</wgt>
  <wgt id="794">2.31509e-12</wgt>
  <wgt id="795">3.66779e-12</wgt>
  <wgt id="796">4.08877e-12</wgt>
  <wgt id="797">3.62463e-12</wgt>
  <wgt id="798">2.81811e-12</wgt>
  <wgt id="799">3.54233e-12</wgt>
  <wgt id="800">2.49844e-12</wgt>
  <wgt id="801">2.87145e-12</wgt>
  <wgt id="802">2.32382e-12</wgt>
  <wgt id="803">4.0974e-12</wgt>
  <wgt id="804">3.63918e-12</wgt>
  <wgt id="805">3.6989e-12</wgt>
  <wgt id="806">3.44334e-12</wgt>
  <wgt id="807">2.9372e-12</wgt>
  <wgt id="808">2.99911e-12</wgt>
  <wgt id="809">2.84312e-12</wgt>
  <wgt id="810">3.50589e-12</wgt>
  <wgt id="811">3.37654e-12</wgt>
  <wgt id="812">2.30486e-12</wgt>
  <wgt id="813">2.37378e-12</wgt>
  <wgt id="814">2.61915e-12</wgt>
  <wgt id="815">2.53476e-12</wgt>
  <wgt id="816">2.23571e-12</wgt>
  <wgt id="817">3.23532e-12</wgt>
  <wgt id="818">3.11168e-12</wgt>
  <wgt id="819">2.52905e-12</wgt>
  <wgt id="820">3.08645e-12</wgt>
  <wgt id="821">3.58191e-12</wgt>
  <wgt id="822">2.53117e-12</wgt>
  <wgt id="823">3.61298e-12</wgt>
  <wgt id="824">4.19125e-12</wgt>
  <wgt id="825">2.23575e-12</wgt>
  <wgt id="826">3.30354e-12</wgt>
  <wgt id="827">1.83509e-12</wgt>
  <wgt id="828">3.96419e-12</wgt>
  <wgt id="829">3.22228e-12</wgt>
  <wgt id="830">2.11666e-12</wgt>
  <wgt id="831">3.35127e-12</wgt>
  <wgt id="832">5.12597e-12</wgt>
  <wgt id="833">2.84842e-12</wgt>
  <wgt id="834">4.80144e-12</wgt>
  <wgt id="835">2.48861e-12</wgt>
  <wgt id="836">3.04395e-12</wgt>
  <wgt id="837">3.53351e-12</wgt>
  <wgt id="838">2.92564e-12</wgt>
  <wgt id="839">3.32687e-12</wgt>
  <wgt id="840">2.8646e-12</wgt>
  <wgt id="841">3.86221e-12</wgt>
  <wgt id="842">2.79522e-12</wgt>
  <wgt id="843">3.06252e-12</wgt>
  <wgt id="844">3.24452e-12</wgt>
  <wgt id="845">4.42342e-12</wgt>
  <wgt id="846">2.93333e-12</wgt>
  <wgt id="847">3.14351e-12</wgt>
  <wgt id="848">2.62032e-12</wgt>
  <wgt id="849">3.18054e-12</wgt>
  <wgt id="850">4.09304e-12</wgt>
  <wgt id="851">3.40884e-12</wgt>
  <wgt id="852">2.58903e-12</wgt>
  <wgt id="853">3.42218e-12</wgt>
  <wgt id="854">3.80558e-12</wgt>
  <wgt id="855">3.62261e-12</wgt>
  <wgt id="856">2.16963e-12</wgt>
  <wgt id="857">3.07414e-12</wgt>
  <wgt id="858">3.04153e-12</wgt>
  <wgt id="859">2.87389e-12</wgt>
  <wgt id="860">3.37574e-12</wgt>
  <wgt id="861">2.69137e-12</wgt>
  <wgt id="862">3.15371e-12</wgt>
  <wgt id="863">3.29792e-12</wgt>
  <wgt id="864">3.29518e-12</wgt>
  <wgt id="865">4.5024e-12</wgt>
  <wgt id="866">4.92981e-12</wgt>
  <wgt id="867">3.16735e-12</wgt>
  <wgt id="868">3.07662e-12</wgt>
  <wgt id="869">2.35693e-12</wgt>
  <wgt id="870">2.48553e-12</wgt>
  <wgt id="871">2.40914e-12</wgt>
  <wgt id="872">3.74893e-12</wgt>
  <wgt id="873">2.53219e-12</wgt>
  <wgt id="874">3.27396e-12</wgt>
  <wgt id="875">2.66893e-12</wgt>
  <wgt id="876">3.75026e-12</wgt>
  <wgt id="877">3.57061e-12</wgt>
  <wgt id="878">2.61675e-12</wgt>
  <wgt id="879">4.21939e-12</wgt>
  <wgt id="880">4.26637e-12</wgt>
  <wgt id="881">4.42851e-12</wgt>
  <wgt id="882">3.95898e-12</wgt>
  <wgt id="883">4.12555e-12</wgt>
  <wgt id="884">4.30449e-12</wgt>
  <wgt id="885">4.34603e-12</wgt>
  <wgt id="886">4.15487e-12</wgt>
  <wgt id="887">4.41072e-12</wgt>
  <wgt id="888">4.00812e-12</wgt>
  <wgt id="889">4.13483e-12</wgt>
  <wgt id="890">4.4271e-12</wgt>
  <wgt id="891">4.19426e-12</wgt>
  <wgt id="892">4.55668e-12</wgt>
  <wgt id="893">4.4295e-12</wgt>
  <wgt id="894">4.46728e-12</wgt>
  <wgt id="895">4.17166e-12</wgt>
  <wgt id="896">4.97368e-12</wgt>
  <wgt id="897">4.47728e-12</wgt>
  <wgt id="898">4.08559e-12</wgt>
  <wgt id="899">4.00038e-12</wgt>
  <wgt id="900">4.09104e-12</wgt>
  <wgt id="901">3.85918e-12</wgt>
  <wgt id="902">3.83197e-12</wgt>
  <wgt id="903">3.68466e-12</wgt>
  <wgt id="904">4.23366e-12</wgt>
  <wgt id="905">4.08726e-12</wgt>
  <wgt id="906">4.85405e-12</wgt>
  <wgt id="907">4.61802e-12</wgt>
  <wgt id="908">4.42445e-12</wgt>
  <wgt id="909">3.93684e-12</wgt>
  <wgt id="910">4.04755e-12</wgt>
  <wgt id="911">4.16109e-12</wgt>
  <wgt id="912">4.14348e-12</wgt>
  <wgt id="913">3.79654e-12</wgt>
  <wgt id="914">4.19768e-12</wgt>
  <wgt id="915">4.13832e-12</wgt>
  <wgt id="916">4.56272e-12</wgt>
  <wgt id="917">4.13907e-12</wgt>
  <wgt id="918">4.17103e-12</wgt>
  <wgt id="919">4.05955e-12</wgt>
  <wgt id="920">4.00814e-12</wgt>
  <wgt id="921">4.21361e-12</wgt>
  <wgt id="922">3.82955e-12</wgt>
  <wgt id="923">3.98324e-12</wgt>
  <wgt id="924">3.87123e-12</wgt>
  <wgt id="925">3.7289e-12</wgt>
  <wgt id="926">4.50775e-12</wgt>
  <wgt id="927">4.42469e-12</wgt>
  <wgt id="928">4.4508e-12</wgt>
  <wgt id="929">4.25746e-12</wgt>
  <wgt id="930">4.12518e-12</wgt>
  <wgt id="931">4.12466e-12</wgt>
  <wgt id="932">3.87674e-12</wgt>
  <wgt id="933">4.56117e-12</wgt>
  <wgt id="934">4.16526e-12</wgt>
  <wgt id="935">4.64668e-12</wgt>
  <wgt id="936">4.20092e-12</wgt>
  <wgt id="937">4.32333e-12</wgt>
  <wgt id="938">4.20651e-12</wgt>
  <wgt id="939">4.12969e-12</wgt>
  <wgt id="940">4.2837e-12</wgt>
  <wgt id="941">4.00744e-12</wgt>
  <wgt id="942">4.29729e-12</wgt>
  <wgt id="943">4.6981e-12</wgt>
  <wgt id="944">3.77582e-12</wgt>
  <wgt id="945">4.15587e-12</wgt>
  <wgt id="946">4.01906e-12</wgt>
  <wgt id="947">4.1334e-12</wgt>
  <wgt id="948">4.41959e-12</wgt>
  <wgt id="949">4.49578e-12</wgt>
  <wgt id="950">3.80789e-12</wgt>
  <wgt id="951">4.16424e-12</wgt>
  <wgt id="952">4.43845e-12</wgt>
  <wgt id="953">4.30935e-12</wgt>
  <wgt id="954">4.34816e-12</wgt>
  <wgt id="955">3.86372e-12</wgt>
  <wgt id="956">4.00247e-12</wgt>
  <wgt id="957">4.41191e-12</wgt>
  <wgt id="958">4.2306e-12</wgt>
  <wgt id="959">4.24038e-12</wgt>
  <wgt id="960">3.8736e-12</wgt>
  <wgt id="961">4.24939e-12</wgt>
  <wgt id="962">4.32853e-12</wgt>
  <wgt id="963">4.26163e-12</wgt>
  <wgt id="964">4.45179e-12</wgt>
  <wgt id="965">4.47975e-12</wgt>
  <wgt id="966">4.20344e-12</wgt>
  <wgt id="967">4.39218e-12</wgt>
  <wgt id="968">4.29189e-12</wgt>
  <wgt id="969">4.21502e-12</wgt>
  <wgt id="970">4.3275e-12</wgt>
  <wgt id="971">3.97407e-12</wgt>
  <wgt id="972">4.47772e-12</wgt>
  <wgt id="973">4.09901e-12</wgt>
  <wgt id="974">5.00014e-12</wgt>
  <wgt id="975">3.98838e-12</wgt>
  <wgt id="976">4.18659e-12</wgt>
  <wgt id="977">3.72727e-12</wgt>
  <wgt id="978">4.4481e-12</wgt>
  <wgt id="979">4.61441e-12</wgt>
  <wgt id="980">4.21634e-12</wgt>
  <wgt id="981">4.24601e-12</wgt>
  <wgt id="982">4.09657e-12</wgt>
</rwgt>
</event>
<event>
 5   1  0.3028200E-11  0.2453380E+04  0.7818608E-02  0.7659640E-01
       21   -1    0    0  502  501  0.00000000000E+00  0.00000000000E+00  0.11191954128E+04  0.11191954128E+04  0.00000000000E+00 0. -1.
       21   -1    0    0  501  502 -0.00000000000E+00 -0.00000000000E+00 -0.13445095424E+04  0.13445095424E+04  0.00000000000E+00 0.  1.
       39    2    1    2    0    0  0.00000000000E+00  0.00000000000E+00 -0.22531412955E+03  0.24637049552E+04  0.24533804534E+04 0.  0.
       25    1    3    3    0    0 -0.17497658692E+03  0.11633335571E+04  0.21302571796E+03  0.12020676884E+04  0.12500000000E+03 0.  0.
       25    1    3    3    0    0  0.17497658692E+03 -0.11633335571E+04 -0.43833984751E+03  0.12616372668E+04  0.12500000000E+03 0.  0.
<mgrwt>
<rscale>  0 0.24533805E+04</rscale>
<asrwt>0</asrwt>
<pdfrwt beam="1">  1       21 0.17218391E+00 0.24533805E+04</pdfrwt>
<pdfrwt beam="2">  1       21 0.20684762E+00 0.24533805E+04</pdfrwt>
<totfact> 0.88100065E+00</totfact>
</mgrwt>
<rwgt>
  <wgt id="1">3.0282e-12</wgt>
  <wgt id="2">2.62875e-12</wgt>
  <wgt id="3">3.52579e-12</wgt>
  <wgt id="4">3.0282e-12</wgt>
  <wgt id="5">2.62875e-12</wgt>
  <wgt id="6">3.52579e-12</wgt>
  <wgt id="7">3.0282e-12</wgt>
  <wgt id="8">2.62875e-12</wgt>
  <wgt id="9">3.52579e-12</wgt>
  <wgt id="10">3.14682e-12</wgt>
  <wgt id="11">3.14345e-12</wgt>
  <wgt id="12">3.14052e-12</wgt>
  <wgt id="13">3.13574e-12</wgt>
  <wgt id="14">3.15866e-12</wgt>
  <wgt id="15">3.15167e-12</wgt>
  <wgt id="16">3.14071e-12</wgt>
  <wgt id="17">3.15176e-12</wgt>
  <wgt id="18">3.14017e-12</wgt>
  <wgt id="19">3.15443e-12</wgt>
  <wgt id="20">3.13685e-12</wgt>
  <wgt id="21">3.12813e-12</wgt>
  <wgt id="22">3.13599e-12</wgt>
  <wgt id="23">3.11864e-12</wgt>
  <wgt id="24">3.133e-12</wgt>
  <wgt id="25">3.13977e-12</wgt>
  <wgt id="26">3.16064e-12</wgt>
  <wgt id="27">3.14719e-12</wgt>
  <wgt id="28">3.13277e-12</wgt>
  <wgt id="29">3.14959e-12</wgt>
  <wgt id="30">3.14061e-12</wgt>
  <wgt id="31">3.15469e-12</wgt>
  <wgt id="32">3.14383e-12</wgt>
  <wgt id="33">3.15549e-12</wgt>
  <wgt id="34">3.13726e-12</wgt>
  <wgt id="35">3.14704e-12</wgt>
  <wgt id="36">3.15821e-12</wgt>
  <wgt id="37">3.13877e-12</wgt>
  <wgt id="38">3.13665e-12</wgt>
  <wgt id="39">3.17783e-12</wgt>
  <wgt id="40">3.15329e-12</wgt>
  <wgt id="41">3.14638e-12</wgt>
  <wgt id="42">3.15237e-12</wgt>
  <wgt id="43">3.14656e-12</wgt>
  <wgt id="44">3.1378e-12</wgt>
  <wgt id="45">3.15522e-12</wgt>
  <wgt id="46">3.15362e-12</wgt>
  <wgt id="47">3.13408e-12</wgt>
  <wgt id="48">3.14608e-12</wgt>
  <wgt id="49">3.15148e-12</wgt>
  <wgt id="50">3.16551e-12</wgt>
  <wgt id="51">3.16279e-12</wgt>
  <wgt id="52">3.146e-12</wgt>
  <wgt id="53">3.1197e-12</wgt>
  <wgt id="54">3.13871e-12</wgt>
  <wgt id="55">3.14678e-12</wgt>
  <wgt id="56">3.15885e-12</wgt>
  <wgt id="57">3.15766e-12</wgt>
  <wgt id="58">3.1237e-12</wgt>
  <wgt id="59">3.13453e-12</wgt>
  <wgt id="60">3.14808e-12</wgt>
  <wgt id="61">3.13733e-12</wgt>
  <wgt id="62">3.14479e-12</wgt>
  <wgt id="63">3.14945e-12</wgt>
  <wgt id="64">3.15045e-12</wgt>
  <wgt id="65">3.15077e-12</wgt>
  <wgt id="66">3.14202e-12</wgt>
  <wgt id="67">3.13971e-12</wgt>
  <wgt id="68">3.1432e-12</wgt>
  <wgt id="69">3.14683e-12</wgt>
  <wgt id="70">3.14429e-12</wgt>
  <wgt id="71">3.14698e-12</wgt>
  <wgt id="72">3.14307e-12</wgt>
  <wgt id="73">3.14864e-12</wgt>
  <wgt id="74">3.14938e-12</wgt>
  <wgt id="75">3.14355e-12</wgt>
  <wgt id="76">3.156e-12</wgt>
  <wgt id="77">3.14633e-12</wgt>
  <wgt id="78">3.14757e-12</wgt>
  <wgt id="79">3.15312e-12</wgt>
  <wgt id="80">3.13295e-12</wgt>
  <wgt id="81">3.14269e-12</wgt>
  <wgt id="82">3.14681e-12</wgt>
  <wgt id="83">3.13358e-12</wgt>
  <wgt id="84">3.13974e-12</wgt>
  <wgt id="85">3.14023e-12</wgt>
  <wgt id="86">3.15524e-12</wgt>
  <wgt id="87">3.12936e-12</wgt>
  <wgt id="88">3.15103e-12</wgt>
  <wgt id="89">3.15006e-12</wgt>
  <wgt id="90">3.15166e-12</wgt>
  <wgt id="91">3.14926e-12</wgt>
  <wgt id="92">3.15314e-12</wgt>
  <wgt id="93">3.14635e-12</wgt>
  <wgt id="94">3.14352e-12</wgt>
  <wgt id="95">3.14911e-12</wgt>
  <wgt id="96">3.14928e-12</wgt>
  <wgt id="97">3.14224e-12</wgt>
  <wgt id="98">3.14822e-12</wgt>
  <wgt id="99">3.14536e-12</wgt>
  <wgt id="100">3.1498e-12</wgt>
  <wgt id="101">3.14542e-12</wgt>
  <wgt id="102">3.14309e-12</wgt>
  <wgt id="103">3.1517e-12</wgt>
  <wgt id="104">3.14429e-12</wgt>
  <wgt id="105">3.15008e-12</wgt>
  <wgt id="106">3.14242e-12</wgt>
  <wgt id="107">3.15559e-12</wgt>
  <wgt id="108">3.14367e-12</wgt>
  <wgt id="109">3.14756e-12</wgt>
  <wgt id="110">3.14655e-12</wgt>
  <wgt id="111">3.17486e-12</wgt>
  <wgt id="112">3.14731e-12</wgt>
  <wgt id="113">4.29156e-12</wgt>
  <wgt id="114">4.41175e-12</wgt>
  <wgt id="115">4.35085e-12</wgt>
  <wgt id="116">6.21101e-12</wgt>
  <wgt id="117">3.53452e-12</wgt>
  <wgt id="118">3.54765e-12</wgt>
  <wgt id="119">3.52717e-12</wgt>
  <wgt id="120">3.53483e-12</wgt>
  <wgt id="121">3.53438e-12</wgt>
  <wgt id="122">3.52851e-12</wgt>
  <wgt id="123">3.54289e-12</wgt>
  <wgt id="124">3.52956e-12</wgt>
  <wgt id="125">3.5378e-12</wgt>
  <wgt id="126">3.54141e-12</wgt>
  <wgt id="127">3.52996e-12</wgt>
  <wgt id="128">3.54565e-12</wgt>
  <wgt id="129">3.52356e-12</wgt>
  <wgt id="130">3.55535e-12</wgt>
  <wgt id="131">3.51321e-12</wgt>
  <wgt id="132">3.44066e-12</wgt>
  <wgt id="133">3.64593e-12</wgt>
  <wgt id="134">3.49543e-12</wgt>
  <wgt id="135">3.56517e-12</wgt>
  <wgt id="136">3.58154e-12</wgt>
  <wgt id="137">3.47772e-12</wgt>
  <wgt id="138">3.67651e-12</wgt>
  <wgt id="139">3.39779e-12</wgt>
  <wgt id="140">3.51152e-12</wgt>
  <wgt id="141">3.55247e-12</wgt>
  <wgt id="142">3.53498e-12</wgt>
  <wgt id="143">3.54002e-12</wgt>
  <wgt id="144">3.4271e-12</wgt>
  <wgt id="145">3.63505e-12</wgt>
  <wgt id="146">3.56896e-12</wgt>
  <wgt id="147">3.50712e-12</wgt>
  <wgt id="148">3.54593e-12</wgt>
  <wgt id="149">3.53375e-12</wgt>
  <wgt id="150">3.56581e-12</wgt>
  <wgt id="151">3.51991e-12</wgt>
  <wgt id="152">3.53636e-12</wgt>
  <wgt id="153">3.53392e-12</wgt>
  <wgt id="154">3.56132e-12</wgt>
  <wgt id="155">3.50222e-12</wgt>
  <wgt id="156">3.61209e-12</wgt>
  <wgt id="157">3.45516e-12</wgt>
  <wgt id="158">4.25097e-12</wgt>
  <wgt id="159">4.26879e-12</wgt>
  <wgt id="160">4.23662e-12</wgt>
  <wgt id="161">4.23971e-12</wgt>
  <wgt id="162">4.26355e-12</wgt>
  <wgt id="163">4.24616e-12</wgt>
  <wgt id="164">4.25822e-12</wgt>
  <wgt id="165">4.25255e-12</wgt>
  <wgt id="166">4.24978e-12</wgt>
  <wgt id="167">4.2479e-12</wgt>
  <wgt id="168">4.25529e-12</wgt>
  <wgt id="169">4.23302e-12</wgt>
  <wgt id="170">4.26237e-12</wgt>
  <wgt id="171">4.24606e-12</wgt>
  <wgt id="172">4.25793e-12</wgt>
  <wgt id="173">4.2502e-12</wgt>
  <wgt id="174">4.25117e-12</wgt>
  <wgt id="175">4.12826e-12</wgt>
  <wgt id="176">4.41136e-12</wgt>
  <wgt id="177">4.27478e-12</wgt>
  <wgt id="178">4.22913e-12</wgt>
  <wgt id="179">4.43633e-12</wgt>
  <wgt id="180">3.95942e-12</wgt>
  <wgt id="181">4.12272e-12</wgt>
  <wgt id="182">4.33572e-12</wgt>
  <wgt id="183">4.17273e-12</wgt>
  <wgt id="184">4.28989e-12</wgt>
  <wgt id="185">4.21564e-12</wgt>
  <wgt id="186">4.29457e-12</wgt>
  <wgt id="187">4.21191e-12</wgt>
  <wgt id="188">4.32177e-12</wgt>
  <wgt id="189">4.22252e-12</wgt>
  <wgt id="190">4.26271e-12</wgt>
  <wgt id="191">4.26312e-12</wgt>
  <wgt id="192">4.24382e-12</wgt>
  <wgt id="193">4.31429e-12</wgt>
  <wgt id="194">4.21983e-12</wgt>
  <wgt id="195">4.1345e-12</wgt>
  <wgt id="196">4.45289e-12</wgt>
  <wgt id="197">4.27299e-12</wgt>
  <wgt id="198">4.24584e-12</wgt>
  <wgt id="199">4.25097e-12</wgt>
  <wgt id="200">4.28839e-12</wgt>
  <wgt id="201">4.27486e-12</wgt>
  <wgt id="202">4.26159e-12</wgt>
  <wgt id="203">4.24176e-12</wgt>
  <wgt id="204">4.23233e-12</wgt>
  <wgt id="205">4.22471e-12</wgt>
  <wgt id="206">4.11179e-12</wgt>
  <wgt id="207">4.13602e-12</wgt>
  <wgt id="208">4.08785e-12</wgt>
  <wgt id="209">4.12551e-12</wgt>
  <wgt id="210">4.10177e-12</wgt>
  <wgt id="211">4.1102e-12</wgt>
  <wgt id="212">4.11316e-12</wgt>
  <wgt id="213">4.11145e-12</wgt>
  <wgt id="214">4.11236e-12</wgt>
  <wgt id="215">4.115e-12</wgt>
  <wgt id="216">4.10942e-12</wgt>
  <wgt id="217">4.12397e-12</wgt>
  <wgt id="218">4.10233e-12</wgt>
  <wgt id="219">4.10834e-12</wgt>
  <wgt id="220">4.11394e-12</wgt>
  <wgt id="221">4.11004e-12</wgt>
  <wgt id="222">4.11577e-12</wgt>
  <wgt id="223">3.88934e-12</wgt>
  <wgt id="224">4.31471e-12</wgt>
  <wgt id="225">4.06077e-12</wgt>
  <wgt id="226">4.17597e-12</wgt>
  <wgt id="227">4.07205e-12</wgt>
  <wgt id="228">4.12924e-12</wgt>
  <wgt id="229">4.05343e-12</wgt>
  <wgt id="230">4.14087e-12</wgt>
  <wgt id="231">4.23235e-12</wgt>
  <wgt id="232">4.01285e-12</wgt>
  <wgt id="233">4.08964e-12</wgt>
  <wgt id="234">4.14696e-12</wgt>
  <wgt id="235">4.01885e-12</wgt>
  <wgt id="236">4.19604e-12</wgt>
  <wgt id="237">4.0504e-12</wgt>
  <wgt id="238">4.13276e-12</wgt>
  <wgt id="239">4.08542e-12</wgt>
  <wgt id="240">4.15938e-12</wgt>
  <wgt id="241">4.06873e-12</wgt>
  <wgt id="242">4.16399e-12</wgt>
  <wgt id="243">4.16915e-12</wgt>
  <wgt id="244">4.13007e-12</wgt>
  <wgt id="245">4.10932e-12</wgt>
  <wgt id="246">4.14105e-12</wgt>
  <wgt id="247">4.11179e-12</wgt>
  <wgt id="248">4.14798e-12</wgt>
  <wgt id="249">4.13412e-12</wgt>
  <wgt id="250">4.12142e-12</wgt>
  <wgt id="251">4.10207e-12</wgt>
  <wgt id="252">4.09313e-12</wgt>
  <wgt id="253">4.0866e-12</wgt>
  <wgt id="254">4.02919e-12</wgt>
  <wgt id="255">4.03294e-12</wgt>
  <wgt id="256">4.02484e-12</wgt>
  <wgt id="257">4.03201e-12</wgt>
  <wgt id="258">4.02696e-12</wgt>
  <wgt id="259">4.05613e-12</wgt>
  <wgt id="260">4.00306e-12</wgt>
  <wgt id="261">4.03564e-12</wgt>
  <wgt id="262">4.02127e-12</wgt>
  <wgt id="263">4.02712e-12</wgt>
  <wgt id="264">4.03142e-12</wgt>
  <wgt id="265">4.02412e-12</wgt>
  <wgt id="266">4.03903e-12</wgt>
  <wgt id="267">4.03051e-12</wgt>
  <wgt id="268">4.02719e-12</wgt>
  <wgt id="269">4.04281e-12</wgt>
  <wgt id="270">4.01987e-12</wgt>
  <wgt id="271">4.02225e-12</wgt>
  <wgt id="272">4.03689e-12</wgt>
  <wgt id="273">4.01621e-12</wgt>
  <wgt id="274">4.0389e-12</wgt>
  <wgt id="275">4.01178e-12</wgt>
  <wgt id="276">4.04705e-12</wgt>
  <wgt id="277">4.00567e-12</wgt>
  <wgt id="278">4.05066e-12</wgt>
  <wgt id="279">3.94944e-12</wgt>
  <wgt id="280">4.12898e-12</wgt>
  <wgt id="281">4.01065e-12</wgt>
  <wgt id="282">4.03017e-12</wgt>
  <wgt id="283">3.91098e-12</wgt>
  <wgt id="284">4.1747e-12</wgt>
  <wgt id="285">3.83362e-12</wgt>
  <wgt id="286">4.19108e-12</wgt>
  <wgt id="287">4.04194e-12</wgt>
  <wgt id="288">4.01267e-12</wgt>
  <wgt id="289">4.05784e-12</wgt>
  <wgt id="290">3.96238e-12</wgt>
  <wgt id="291">4.01767e-12</wgt>
  <wgt id="292">4.03171e-12</wgt>
  <wgt id="293">3.99742e-12</wgt>
  <wgt id="294">4.06051e-12</wgt>
  <wgt id="295">3.95161e-12</wgt>
  <wgt id="296">4.12366e-12</wgt>
  <wgt id="297">4.02793e-12</wgt>
  <wgt id="298">4.04534e-12</wgt>
  <wgt id="299">4.01568e-12</wgt>
  <wgt id="300">4.06427e-12</wgt>
  <wgt id="301">3.96795e-12</wgt>
  <wgt id="302">4.17936e-12</wgt>
  <wgt id="303">3.99632e-12</wgt>
  <wgt id="304">4.04786e-12</wgt>
  <wgt id="305">4.03897e-12</wgt>
  <wgt id="306">4.04332e-12</wgt>
  <wgt id="307">4.03455e-12</wgt>
  <wgt id="308">4.04233e-12</wgt>
  <wgt id="309">4.03692e-12</wgt>
  <wgt id="310">4.06712e-12</wgt>
  <wgt id="311">4.01314e-12</wgt>
  <wgt id="312">4.04468e-12</wgt>
  <wgt id="313">4.03331e-12</wgt>
  <wgt id="314">4.03722e-12</wgt>
  <wgt id="315">4.04099e-12</wgt>
  <wgt id="316">4.03423e-12</wgt>
  <wgt id="317">4.04954e-12</wgt>
  <wgt id="318">4.04226e-12</wgt>
  <wgt id="319">4.0338e-12</wgt>
  <wgt id="320">4.05342e-12</wgt>
  <wgt id="321">4.03115e-12</wgt>
  <wgt id="322">4.03018e-12</wgt>
  <wgt id="323">4.04958e-12</wgt>
  <wgt id="324">4.02841e-12</wgt>
  <wgt id="325">4.04851e-12</wgt>
  <wgt id="326">4.0252e-12</wgt>
  <wgt id="327">4.05685e-12</wgt>
  <wgt id="328">4.01814e-12</wgt>
  <wgt id="329">4.05094e-12</wgt>
  <wgt id="330">4.16101e-12</wgt>
  <wgt id="331">3.92291e-12</wgt>
  <wgt id="332">4.02361e-12</wgt>
  <wgt id="333">4.03948e-12</wgt>
  <wgt id="334">3.94633e-12</wgt>
  <wgt id="335">4.1544e-12</wgt>
  <wgt id="336">3.89705e-12</wgt>
  <wgt id="337">4.21193e-12</wgt>
  <wgt id="338">4.08454e-12</wgt>
  <wgt id="339">3.99706e-12</wgt>
  <wgt id="340">4.0663e-12</wgt>
  <wgt id="341">3.96932e-12</wgt>
  <wgt id="342">4.0309e-12</wgt>
  <wgt id="343">4.03516e-12</wgt>
  <wgt id="344">4.01044e-12</wgt>
  <wgt id="345">4.07234e-12</wgt>
  <wgt id="346">3.95861e-12</wgt>
  <wgt id="347">4.13188e-12</wgt>
  <wgt id="348">4.03931e-12</wgt>
  <wgt id="349">4.05276e-12</wgt>
  <wgt id="350">4.02233e-12</wgt>
  <wgt id="351">4.08149e-12</wgt>
  <wgt id="352">3.9715e-12</wgt>
  <wgt id="353">4.1959e-12</wgt>
  <wgt id="354">3.98897e-12</wgt>
  <wgt id="355">4.0695e-12</wgt>
  <wgt id="356">4.02919e-12</wgt>
  <wgt id="357">4.05503e-12</wgt>
  <wgt id="358">4.03897e-12</wgt>
  <wgt id="359">4.04261e-12</wgt>
  <wgt id="360">4.05885e-12</wgt>
  <wgt id="361">4.04254e-12</wgt>
  <wgt id="362">4.11457e-12</wgt>
  <wgt id="363">4.10426e-12</wgt>
  <wgt id="364">4.08977e-12</wgt>
  <wgt id="365">4.07555e-12</wgt>
  <wgt id="366">4.05988e-12</wgt>
  <wgt id="367">4.02761e-12</wgt>
  <wgt id="368">4.00992e-12</wgt>
  <wgt id="369">3.99076e-12</wgt>
  <wgt id="370">4.04254e-12</wgt>
  <wgt id="371">4.06085e-12</wgt>
  <wgt id="372">4.05075e-12</wgt>
  <wgt id="373">4.03585e-12</wgt>
  <wgt id="374">4.03474e-12</wgt>
  <wgt id="375">4.32781e-12</wgt>
  <wgt id="376">4.32838e-12</wgt>
  <wgt id="377">4.32697e-12</wgt>
  <wgt id="378">4.34347e-12</wgt>
  <wgt id="379">4.31199e-12</wgt>
  <wgt id="380">4.33918e-12</wgt>
  <wgt id="381">4.32313e-12</wgt>
  <wgt id="382">4.35106e-12</wgt>
  <wgt id="383">4.30463e-12</wgt>
  <wgt id="384">4.33059e-12</wgt>
  <wgt id="385">4.32505e-12</wgt>
  <wgt id="386">4.34588e-12</wgt>
  <wgt id="387">4.31982e-12</wgt>
  <wgt id="388">4.32342e-12</wgt>
  <wgt id="389">4.3328e-12</wgt>
  <wgt id="390">4.33996e-12</wgt>
  <wgt id="391">4.31489e-12</wgt>
  <wgt id="392">4.2928e-12</wgt>
  <wgt id="393">4.34755e-12</wgt>
  <wgt id="394">4.33389e-12</wgt>
  <wgt id="395">4.31928e-12</wgt>
  <wgt id="396">4.33129e-12</wgt>
  <wgt id="397">4.3253e-12</wgt>
  <wgt id="398">4.3078e-12</wgt>
  <wgt id="399">4.3471e-12</wgt>
  <wgt id="400">4.31999e-12</wgt>
  <wgt id="401">4.34514e-12</wgt>
  <wgt id="402">4.29128e-12</wgt>
  <wgt id="403">4.34414e-12</wgt>
  <wgt id="404">4.43054e-12</wgt>
  <wgt id="405">4.0804e-12</wgt>
  <wgt id="406">4.25421e-12</wgt>
  <wgt id="407">4.48756e-12</wgt>
  <wgt id="408">4.36556e-12</wgt>
  <wgt id="409">4.25554e-12</wgt>
  <wgt id="410">4.20727e-12</wgt>
  <wgt id="411">4.38368e-12</wgt>
  <wgt id="412">4.31991e-12</wgt>
  <wgt id="413">4.33955e-12</wgt>
  <wgt id="414">4.27951e-12</wgt>
  <wgt id="415">4.36515e-12</wgt>
  <wgt id="416">4.44652e-12</wgt>
  <wgt id="417">4.16381e-12</wgt>
  <wgt id="418">4.33371e-12</wgt>
  <wgt id="419">4.29605e-12</wgt>
  <wgt id="420">4.39839e-12</wgt>
  <wgt id="421">4.28643e-12</wgt>
  <wgt id="422">4.3188e-12</wgt>
  <wgt id="423">4.3327e-12</wgt>
  <wgt id="424">4.42103e-12</wgt>
  <wgt id="425">4.26867e-12</wgt>
  <wgt id="426">4.32781e-12</wgt>
  <wgt id="427">4.28687e-12</wgt>
  <wgt id="428">4.44723e-12</wgt>
  <wgt id="429">4.36891e-12</wgt>
  <wgt id="430">4.49376e-12</wgt>
  <wgt id="431">4.46876e-12</wgt>
  <wgt id="432">4.44524e-12</wgt>
  <wgt id="433">4.42232e-12</wgt>
  <wgt id="434">4.3945e-12</wgt>
  <wgt id="435">4.33684e-12</wgt>
  <wgt id="436">4.30733e-12</wgt>
  <wgt id="437">4.27915e-12</wgt>
  <wgt id="438">4.36891e-12</wgt>
  <wgt id="439">4.38338e-12</wgt>
  <wgt id="440">4.37481e-12</wgt>
  <wgt id="441">4.36458e-12</wgt>
  <wgt id="442">4.36075e-12</wgt>
  <wgt id="443">4.22073e-12</wgt>
  <wgt id="444">4.24551e-12</wgt>
  <wgt id="445">4.20144e-12</wgt>
  <wgt id="446">4.19335e-12</wgt>
  <wgt id="447">4.20463e-12</wgt>
  <wgt id="448">4.1061e-12</wgt>
  <wgt id="449">4.28754e-12</wgt>
  <wgt id="450">4.20455e-12</wgt>
  <wgt id="451">4.21356e-12</wgt>
  <wgt id="452">4.31929e-12</wgt>
  <wgt id="453">4.26387e-12</wgt>
  <wgt id="454">4.05118e-12</wgt>
  <wgt id="455">4.22538e-12</wgt>
  <wgt id="456">4.18351e-12</wgt>
  <wgt id="457">4.23933e-12</wgt>
  <wgt id="458">4.26955e-12</wgt>
  <wgt id="459">4.24927e-12</wgt>
  <wgt id="460">4.24339e-12</wgt>
  <wgt id="461">4.1397e-12</wgt>
  <wgt id="462">4.18374e-12</wgt>
  <wgt id="463">4.17371e-12</wgt>
  <wgt id="464">4.19485e-12</wgt>
  <wgt id="465">4.26748e-12</wgt>
  <wgt id="466">4.17082e-12</wgt>
  <wgt id="467">4.17759e-12</wgt>
  <wgt id="468">4.20855e-12</wgt>
  <wgt id="469">4.20758e-12</wgt>
  <wgt id="470">4.18288e-12</wgt>
  <wgt id="471">4.18171e-12</wgt>
  <wgt id="472">4.24141e-12</wgt>
  <wgt id="473">4.07641e-12</wgt>
  <wgt id="474">3.0282e-12</wgt>
  <wgt id="475">3.21742e-12</wgt>
  <wgt id="476">2.95518e-12</wgt>
  <wgt id="477">2.90926e-12</wgt>
  <wgt id="478">3.0419e-12</wgt>
  <wgt id="479">2.96282e-12</wgt>
  <wgt id="480">3.14458e-12</wgt>
  <wgt id="481">2.9686e-12</wgt>
  <wgt id="482">2.91798e-12</wgt>
  <wgt id="483">2.94645e-12</wgt>
  <wgt id="484">3.23209e-12</wgt>
  <wgt id="485">3.02584e-12</wgt>
  <wgt id="486">3.11819e-12</wgt>
  <wgt id="487">3.09592e-12</wgt>
  <wgt id="488">3.07423e-12</wgt>
  <wgt id="489">2.93307e-12</wgt>
  <wgt id="490">2.93093e-12</wgt>
  <wgt id="491">2.9932e-12</wgt>
  <wgt id="492">2.93459e-12</wgt>
  <wgt id="493">2.91216e-12</wgt>
  <wgt id="494">2.93684e-12</wgt>
  <wgt id="495">3.10154e-12</wgt>
  <wgt id="496">2.92881e-12</wgt>
  <wgt id="497">2.90543e-12</wgt>
  <wgt id="498">3.07437e-12</wgt>
  <wgt id="499">2.95288e-12</wgt>
  <wgt id="500">2.98316e-12</wgt>
  <wgt id="501">3.1723e-12</wgt>
  <wgt id="502">2.95307e-12</wgt>
  <wgt id="503">3.02778e-12</wgt>
  <wgt id="504">3.05996e-12</wgt>
  <wgt id="505">2.99962e-12</wgt>
  <wgt id="506">3.11171e-12</wgt>
  <wgt id="507">3.00147e-12</wgt>
  <wgt id="508">3.06908e-12</wgt>
  <wgt id="509">2.9484e-12</wgt>
  <wgt id="510">3.11489e-12</wgt>
  <wgt id="511">2.97023e-12</wgt>
  <wgt id="512">3.07739e-12</wgt>
  <wgt id="513">3.17481e-12</wgt>
  <wgt id="514">3.00627e-12</wgt>
  <wgt id="515">2.98578e-12</wgt>
  <wgt id="516">3.11519e-12</wgt>
  <wgt id="517">3.08939e-12</wgt>
  <wgt id="518">3.0949e-12</wgt>
  <wgt id="519">2.93515e-12</wgt>
  <wgt id="520">3.06265e-12</wgt>
  <wgt id="521">3.13129e-12</wgt>
  <wgt id="522">3.14621e-12</wgt>
  <wgt id="523">3.1055e-12</wgt>
  <wgt id="524">3.07242e-12</wgt>
  <wgt id="525">3.13189e-12</wgt>
  <wgt id="526">3.04415e-12</wgt>
  <wgt id="527">3.0711e-12</wgt>
  <wgt id="528">3.04996e-12</wgt>
  <wgt id="529">2.96871e-12</wgt>
  <wgt id="530">3.06192e-12</wgt>
  <wgt id="531">2.99962e-12</wgt>
  <wgt id="532">3.20326e-12</wgt>
  <wgt id="533">2.84705e-12</wgt>
  <wgt id="534">3.0461e-12</wgt>
  <wgt id="535">3.09644e-12</wgt>
  <wgt id="536">3.00797e-12</wgt>
  <wgt id="537">3.03946e-12</wgt>
  <wgt id="538">3.05835e-12</wgt>
  <wgt id="539">2.97559e-12</wgt>
  <wgt id="540">2.95895e-12</wgt>
  <wgt id="541">2.93543e-12</wgt>
  <wgt id="542">2.98083e-12</wgt>
  <wgt id="543">3.02419e-12</wgt>
  <wgt id="544">3.17879e-12</wgt>
  <wgt id="545">2.99051e-12</wgt>
  <wgt id="546">2.98881e-12</wgt>
  <wgt id="547">2.93415e-12</wgt>
  <wgt id="548">2.90404e-12</wgt>
  <wgt id="549">2.97224e-12</wgt>
  <wgt id="550">3.00029e-12</wgt>
  <wgt id="551">3.05477e-12</wgt>
  <wgt id="552">3.00283e-12</wgt>
  <wgt id="553">3.01984e-12</wgt>
  <wgt id="554">3.2509e-12</wgt>
  <wgt id="555">3.10188e-12</wgt>
  <wgt id="556">2.93093e-12</wgt>
  <wgt id="557">3.07949e-12</wgt>
  <wgt id="558">2.92932e-12</wgt>
  <wgt id="559">2.98679e-12</wgt>
  <wgt id="560">3.28637e-12</wgt>
  <wgt id="561">2.9716e-12</wgt>
  <wgt id="562">3.0797e-12</wgt>
  <wgt id="563">2.93279e-12</wgt>
  <wgt id="564">3.02925e-12</wgt>
  <wgt id="565">2.90649e-12</wgt>
  <wgt id="566">3.08369e-12</wgt>
  <wgt id="567">2.98637e-12</wgt>
  <wgt id="568">3.01231e-12</wgt>
  <wgt id="569">3.09737e-12</wgt>
  <wgt id="570">2.92623e-12</wgt>
  <wgt id="571">3.35959e-12</wgt>
  <wgt id="572">2.95549e-12</wgt>
  <wgt id="573">2.89292e-12</wgt>
  <wgt id="574">2.91898e-12</wgt>
  <wgt id="575">3.34115e-12</wgt>
  <wgt id="576">3.31814e-12</wgt>
  <wgt id="577">3.42321e-12</wgt>
  <wgt id="578">3.43769e-12</wgt>
  <wgt id="579">3.4051e-12</wgt>
  <wgt id="580">3.40918e-12</wgt>
  <wgt id="581">3.56211e-12</wgt>
  <wgt id="582">3.3107e-12</wgt>
  <wgt id="583">3.37975e-12</wgt>
  <wgt id="584">3.3473e-12</wgt>
  <wgt id="585">3.36758e-12</wgt>
  <wgt id="586">3.26806e-12</wgt>
  <wgt id="587">3.39241e-12</wgt>
  <wgt id="588">3.32369e-12</wgt>
  <wgt id="589">3.41334e-12</wgt>
  <wgt id="590">3.40197e-12</wgt>
  <wgt id="591">3.46555e-12</wgt>
  <wgt id="592">3.2679e-12</wgt>
  <wgt id="593">3.32804e-12</wgt>
  <wgt id="594">3.43234e-12</wgt>
  <wgt id="595">3.33035e-12</wgt>
  <wgt id="596">3.36136e-12</wgt>
  <wgt id="597">3.24446e-12</wgt>
  <wgt id="598">3.23418e-12</wgt>
  <wgt id="599">3.52459e-12</wgt>
  <wgt id="600">3.30653e-12</wgt>
  <wgt id="601">3.24853e-12</wgt>
  <wgt id="602">3.26788e-12</wgt>
  <wgt id="603">3.27325e-12</wgt>
  <wgt id="604">3.39242e-12</wgt>
  <wgt id="605">3.47702e-12</wgt>
  <wgt id="606">3.26706e-12</wgt>
  <wgt id="607">3.29913e-12</wgt>
  <wgt id="608">3.37545e-12</wgt>
  <wgt id="609">3.16246e-12</wgt>
  <wgt id="610">3.21667e-12</wgt>
  <wgt id="611">3.3691e-12</wgt>
  <wgt id="612">3.56389e-12</wgt>
  <wgt id="613">3.33185e-12</wgt>
  <wgt id="614">3.38872e-12</wgt>
  <wgt id="615">3.27164e-12</wgt>
  <wgt id="616">3.52294e-12</wgt>
  <wgt id="617">3.46925e-12</wgt>
  <wgt id="618">3.41576e-12</wgt>
  <wgt id="619">3.29607e-12</wgt>
  <wgt id="620">3.49745e-12</wgt>
  <wgt id="621">3.3896e-12</wgt>
  <wgt id="622">3.39241e-12</wgt>
  <wgt id="623">3.44159e-12</wgt>
  <wgt id="624">3.33328e-12</wgt>
  <wgt id="625">3.30332e-12</wgt>
  <wgt id="626">3.25717e-12</wgt>
  <wgt id="627">3.20567e-12</wgt>
  <wgt id="628">3.54304e-12</wgt>
  <wgt id="629">3.26092e-12</wgt>
  <wgt id="630">3.20566e-12</wgt>
  <wgt id="631">3.36237e-12</wgt>
  <wgt id="632">3.21956e-12</wgt>
  <wgt id="633">3.30524e-12</wgt>
  <wgt id="634">3.32805e-12</wgt>
  <wgt id="635">3.26262e-12</wgt>
  <wgt id="636">3.35973e-12</wgt>
  <wgt id="637">3.32171e-12</wgt>
  <wgt id="638">3.20782e-12</wgt>
  <wgt id="639">3.29351e-12</wgt>
  <wgt id="640">3.3412e-12</wgt>
  <wgt id="641">3.36483e-12</wgt>
  <wgt id="642">3.17422e-12</wgt>
  <wgt id="643">3.31914e-12</wgt>
  <wgt id="644">3.20814e-12</wgt>
  <wgt id="645">3.37656e-12</wgt>
  <wgt id="646">3.38548e-12</wgt>
  <wgt id="647">3.30207e-12</wgt>
  <wgt id="648">3.36062e-12</wgt>
  <wgt id="649">3.3934e-12</wgt>
  <wgt id="650">3.27899e-12</wgt>
  <wgt id="651">3.3476e-12</wgt>
  <wgt id="652">3.31375e-12</wgt>
  <wgt id="653">3.2452e-12</wgt>
  <wgt id="654">3.32189e-12</wgt>
  <wgt id="655">3.29336e-12</wgt>
  <wgt id="656">3.37117e-12</wgt>
  <wgt id="657">3.47415e-12</wgt>
  <wgt id="658">3.34105e-12</wgt>
  <wgt id="659">3.20677e-12</wgt>
  <wgt id="660">3.40861e-12</wgt>
  <wgt id="661">3.28338e-12</wgt>
  <wgt id="662">3.34703e-12</wgt>
  <wgt id="663">3.34344e-12</wgt>
  <wgt id="664">3.29318e-12</wgt>
  <wgt id="665">3.33086e-12</wgt>
  <wgt id="666">3.30899e-12</wgt>
  <wgt id="667">3.4446e-12</wgt>
  <wgt id="668">3.34022e-12</wgt>
  <wgt id="669">3.42179e-12</wgt>
  <wgt id="670">3.41392e-12</wgt>
  <wgt id="671">3.31693e-12</wgt>
  <wgt id="672">3.20153e-12</wgt>
  <wgt id="673">3.35307e-12</wgt>
  <wgt id="674">3.2794e-12</wgt>
  <wgt id="675">3.30209e-12</wgt>
  <wgt id="676">4.23438e-12</wgt>
  <wgt id="677">4.27796e-12</wgt>
  <wgt id="678">4.43802e-12</wgt>
  <wgt id="679">3.94374e-12</wgt>
  <wgt id="680">4.14121e-12</wgt>
  <wgt id="681">4.32458e-12</wgt>
  <wgt id="682">4.37522e-12</wgt>
  <wgt id="683">4.17334e-12</wgt>
  <wgt id="684">4.43089e-12</wgt>
  <wgt id="685">4.00508e-12</wgt>
  <wgt id="686">4.13858e-12</wgt>
  <wgt id="687">4.45401e-12</wgt>
  <wgt id="688">4.22957e-12</wgt>
  <wgt id="689">4.6024e-12</wgt>
  <wgt id="690">4.44911e-12</wgt>
  <wgt id="691">4.51277e-12</wgt>
  <wgt id="692">4.17964e-12</wgt>
  <wgt id="693">4.99137e-12</wgt>
  <wgt id="694">4.48863e-12</wgt>
  <wgt id="695">4.10534e-12</wgt>
  <wgt id="696">3.99596e-12</wgt>
  <wgt id="697">4.13401e-12</wgt>
  <wgt id="698">3.87129e-12</wgt>
  <wgt id="699">3.84528e-12</wgt>
  <wgt id="700">3.67557e-12</wgt>
  <wgt id="701">4.2524e-12</wgt>
  <wgt id="702">4.09796e-12</wgt>
  <wgt id="703">4.87608e-12</wgt>
  <wgt id="704">4.63918e-12</wgt>
  <wgt id="705">4.42199e-12</wgt>
  <wgt id="706">3.93861e-12</wgt>
  <wgt id="707">4.06291e-12</wgt>
  <wgt id="708">4.17857e-12</wgt>
  <wgt id="709">4.15932e-12</wgt>
  <wgt id="710">3.79719e-12</wgt>
  <wgt id="711">4.20364e-12</wgt>
  <wgt id="712">4.16042e-12</wgt>
  <wgt id="713">4.60506e-12</wgt>
  <wgt id="714">4.16126e-12</wgt>
  <wgt id="715">4.19399e-12</wgt>
  <wgt id="716">4.06595e-12</wgt>
  <wgt id="717">4.0347e-12</wgt>
  <wgt id="718">4.23294e-12</wgt>
  <wgt id="719">3.83406e-12</wgt>
  <wgt id="720">3.97054e-12</wgt>
  <wgt id="721">3.87777e-12</wgt>
  <wgt id="722">3.74001e-12</wgt>
  <wgt id="723">4.52593e-12</wgt>
  <wgt id="724">4.44222e-12</wgt>
  <wgt id="725">4.47059e-12</wgt>
  <wgt id="726">4.27597e-12</wgt>
  <wgt id="727">4.13254e-12</wgt>
  <wgt id="728">4.13308e-12</wgt>
  <wgt id="729">3.83782e-12</wgt>
  <wgt id="730">4.59589e-12</wgt>
  <wgt id="731">4.18038e-12</wgt>
  <wgt id="732">4.66106e-12</wgt>
  <wgt id="733">4.23652e-12</wgt>
  <wgt id="734">4.33958e-12</wgt>
  <wgt id="735">4.21286e-12</wgt>
  <wgt id="736">4.14939e-12</wgt>
  <wgt id="737">4.3083e-12</wgt>
  <wgt id="738">4.00283e-12</wgt>
  <wgt id="739">4.30712e-12</wgt>
  <wgt id="740">4.71258e-12</wgt>
  <wgt id="741">3.76483e-12</wgt>
  <wgt id="742">4.16365e-12</wgt>
  <wgt id="743">4.02754e-12</wgt>
  <wgt id="744">4.14701e-12</wgt>
  <wgt id="745">4.43973e-12</wgt>
  <wgt id="746">4.51756e-12</wgt>
  <wgt id="747">3.81966e-12</wgt>
  <wgt id="748">4.18699e-12</wgt>
  <wgt id="749">4.45882e-12</wgt>
  <wgt id="750">4.31482e-12</wgt>
  <wgt id="751">4.37012e-12</wgt>
  <wgt id="752">3.86882e-12</wgt>
  <wgt id="753">4.02981e-12</wgt>
  <wgt id="754">4.46202e-12</wgt>
  <wgt id="755">4.24837e-12</wgt>
  <wgt id="756">4.26809e-12</wgt>
  <wgt id="757">3.88366e-12</wgt>
  <wgt id="758">4.27096e-12</wgt>
  <wgt id="759">4.33079e-12</wgt>
  <wgt id="760">4.28204e-12</wgt>
  <wgt id="761">4.46086e-12</wgt>
  <wgt id="762">4.49689e-12</wgt>
  <wgt id="763">4.21035e-12</wgt>
  <wgt id="764">4.41035e-12</wgt>
  <wgt id="765">4.33472e-12</wgt>
  <wgt id="766">4.22952e-12</wgt>
  <wgt id="767">4.35129e-12</wgt>
  <wgt id="768">3.98518e-12</wgt>
  <wgt id="769">4.50004e-12</wgt>
  <wgt id="770">4.1012e-12</wgt>
  <wgt id="771">5.03183e-12</wgt>
  <wgt id="772">3.99502e-12</wgt>
  <wgt id="773">4.19798e-12</wgt>
  <wgt id="774">3.74987e-12</wgt>
  <wgt id="775">4.4872e-12</wgt>
  <wgt id="776">4.62963e-12</wgt>
  <wgt id="777">4.00259e-12</wgt>
  <wgt id="778">3.09625e-12</wgt>
  <wgt id="779">2.54828e-12</wgt>
  <wgt id="780">2.03776e-12</wgt>
  <wgt id="781">3.17062e-12</wgt>
  <wgt id="782">3.28271e-12</wgt>
  <wgt id="783">2.57141e-12</wgt>
  <wgt id="784">2.68254e-12</wgt>
  <wgt id="785">3.79338e-12</wgt>
  <wgt id="786">2.36635e-12</wgt>
  <wgt id="787">3.56098e-12</wgt>
  <wgt id="788">1.8904e-12</wgt>
  <wgt id="789">2.4512e-12</wgt>
  <wgt id="790">2.32802e-12</wgt>
  <wgt id="791">2.90109e-12</wgt>
  <wgt id="792">4.05389e-12</wgt>
  <wgt id="793">3.03001e-12</wgt>
  <wgt id="794">2.31993e-12</wgt>
  <wgt id="795">3.68405e-12</wgt>
  <wgt id="796">4.11348e-12</wgt>
  <wgt id="797">3.62853e-12</wgt>
  <wgt id="798">2.83415e-12</wgt>
  <wgt id="799">3.55695e-12</wgt>
  <wgt id="800">2.48053e-12</wgt>
  <wgt id="801">2.87242e-12</wgt>
  <wgt id="802">2.33286e-12</wgt>
  <wgt id="803">4.01642e-12</wgt>
  <wgt id="804">3.65247e-12</wgt>
  <wgt id="805">3.72194e-12</wgt>
  <wgt id="806">3.46363e-12</wgt>
  <wgt id="807">2.93333e-12</wgt>
  <wgt id="808">3.00788e-12</wgt>
  <wgt id="809">2.84372e-12</wgt>
  <wgt id="810">3.52747e-12</wgt>
  <wgt id="811">3.39969e-12</wgt>
  <wgt id="812">2.30093e-12</wgt>
  <wgt id="813">2.3663e-12</wgt>
  <wgt id="814">2.66147e-12</wgt>
  <wgt id="815">2.55255e-12</wgt>
  <wgt id="816">2.22006e-12</wgt>
  <wgt id="817">3.25078e-12</wgt>
  <wgt id="818">3.09173e-12</wgt>
  <wgt id="819">2.54074e-12</wgt>
  <wgt id="820">3.099e-12</wgt>
  <wgt id="821">3.60757e-12</wgt>
  <wgt id="822">2.51949e-12</wgt>
  <wgt id="823">3.63607e-12</wgt>
  <wgt id="824">4.199e-12</wgt>
  <wgt id="825">2.24139e-12</wgt>
  <wgt id="826">3.30706e-12</wgt>
  <wgt id="827">1.82406e-12</wgt>
  <wgt id="828">3.98366e-12</wgt>
  <wgt id="829">3.24314e-12</wgt>
  <wgt id="830">2.12119e-12</wgt>
  <wgt id="831">3.3604e-12</wgt>
  <wgt id="832">5.17665e-12</wgt>
  <wgt id="833">2.85839e-12</wgt>
  <wgt id="834">4.82162e-12</wgt>
  <wgt id="835">2.48844e-12</wgt>
  <wgt id="836">3.06586e-12</wgt>
  <wgt id="837">3.55972e-12</wgt>
  <wgt id="838">2.94937e-12</wgt>
  <wgt id="839">3.334e-12</wgt>
  <wgt id="840">2.86953e-12</wgt>
  <wgt id="841">3.88423e-12</wgt>
  <wgt id="842">2.77628e-12</wgt>
  <wgt id="843">3.06069e-12</wgt>
  <wgt id="844">3.25665e-12</wgt>
  <wgt id="845">4.42981e-12</wgt>
  <wgt id="846">2.87689e-12</wgt>
  <wgt id="847">3.1656e-12</wgt>
  <wgt id="848">2.63389e-12</wgt>
  <wgt id="849">3.18595e-12</wgt>
  <wgt id="850">4.11591e-12</wgt>
  <wgt id="851">3.41641e-12</wgt>
  <wgt id="852">2.62121e-12</wgt>
  <wgt id="853">3.42671e-12</wgt>
  <wgt id="854">3.81673e-12</wgt>
  <wgt id="855">3.65506e-12</wgt>
  <wgt id="856">2.17979e-12</wgt>
  <wgt id="857">3.09083e-12</wgt>
  <wgt id="858">3.07936e-12</wgt>
  <wgt id="859">2.86574e-12</wgt>
  <wgt id="860">3.37585e-12</wgt>
  <wgt id="861">2.68093e-12</wgt>
  <wgt id="862">3.16889e-12</wgt>
  <wgt id="863">3.30692e-12</wgt>
  <wgt id="864">3.32581e-12</wgt>
  <wgt id="865">4.5449e-12</wgt>
  <wgt id="866">4.97051e-12</wgt>
  <wgt id="867">3.18893e-12</wgt>
  <wgt id="868">3.09068e-12</wgt>
  <wgt id="869">2.36442e-12</wgt>
  <wgt id="870">2.4859e-12</wgt>
  <wgt id="871">2.40841e-12</wgt>
  <wgt id="872">3.76203e-12</wgt>
  <wgt id="873">2.51055e-12</wgt>
  <wgt id="874">3.28562e-12</wgt>
  <wgt id="875">2.67677e-12</wgt>
  <wgt id="876">3.77502e-12</wgt>
  <wgt id="877">3.60695e-12</wgt>
  <wgt id="878">2.617e-12</wgt>
  <wgt id="879">4.23438e-12</wgt>
  <wgt id="880">4.27796e-12</wgt>
  <wgt id="881">4.43802e-12</wgt>
  <wgt id="882">3.94374e-12</wgt>
  <wgt id="883">4.14121e-12</wgt>
  <wgt id="884">4.32458e-12</wgt>
  <wgt id="885">4.37522e-12</wgt>
  <wgt id="886">4.17334e-12</wgt>
  <wgt id="887">4.43089e-12</wgt>
  <wgt id="888">4.00508e-12</wgt>
  <wgt id="889">4.13858e-12</wgt>
  <wgt id="890">4.45401e-12</wgt>
  <wgt id="891">4.22957e-12</wgt>
  <wgt id="892">4.6024e-12</wgt>
  <wgt id="893">4.44911e-12</wgt>
  <wgt id="894">4.51277e-12</wgt>
  <wgt id="895">4.17964e-12</wgt>
  <wgt id="896">4.99137e-12</wgt>
  <wgt id="897">4.48863e-12</wgt>
  <wgt id="898">4.10534e-12</wgt>
  <wgt id="899">3.99596e-12</wgt>
  <wgt id="900">4.13401e-12</wgt>
  <wgt id="901">3.87129e-12</wgt>
  <wgt id="902">3.84528e-12</wgt>
  <wgt id="903">3.67557e-12</wgt>
  <wgt id="904">4.2524e-12</wgt>
  <wgt id="905">4.09796e-12</wgt>
  <wgt id="906">4.87608e-12</wgt>
  <wgt id="907">4.63918e-12</wgt>
  <wgt id="908">4.42199e-12</wgt>
  <wgt id="909">3.93861e-12</wgt>
  <wgt id="910">4.06291e-12</wgt>
  <wgt id="911">4.17857e-12</wgt>
  <wgt id="912">4.15932e-12</wgt>
  <wgt id="913">3.79719e-12</wgt>
  <wgt id="914">4.20364e-12</wgt>
  <wgt id="915">4.16042e-12</wgt>
  <wgt id="916">4.60506e-12</wgt>
  <wgt id="917">4.16126e-12</wgt>
  <wgt id="918">4.19399e-12</wgt>
  <wgt id="919">4.06595e-12</wgt>
  <wgt id="920">4.0347e-12</wgt>
  <wgt id="921">4.23294e-12</wgt>
  <wgt id="922">3.83406e-12</wgt>
  <wgt id="923">3.97054e-12</wgt>
  <wgt id="924">3.87777e-12</wgt>
  <wgt id="925">3.74001e-12</wgt>
  <wgt id="926">4.52593e-12</wgt>
  <wgt id="927">4.44222e-12</wgt>
  <wgt id="928">4.47059e-12</wgt>
  <wgt id="929">4.27597e-12</wgt>
  <wgt id="930">4.13254e-12</wgt>
  <wgt id="931">4.13308e-12</wgt>
  <wgt id="932">3.83782e-12</wgt>
  <wgt id="933">4.59589e-12</wgt>
  <wgt id="934">4.18038e-12</wgt>
  <wgt id="935">4.66106e-12</wgt>
  <wgt id="936">4.23652e-12</wgt>
  <wgt id="937">4.33958e-12</wgt>
  <wgt id="938">4.21286e-12</wgt>
  <wgt id="939">4.14939e-12</wgt>
  <wgt id="940">4.3083e-12</wgt>
  <wgt id="941">4.00283e-12</wgt>
  <wgt id="942">4.30712e-12</wgt>
  <wgt id="943">4.71258e-12</wgt>
  <wgt id="944">3.76483e-12</wgt>
  <wgt id="945">4.16365e-12</wgt>
  <wgt id="946">4.02754e-12</wgt>
  <wgt id="947">4.14701e-12</wgt>
  <wgt id="948">4.43973e-12</wgt>
  <wgt id="949">4.51756e-12</wgt>
  <wgt id="950">3.81966e-12</wgt>
  <wgt id="951">4.18699e-12</wgt>
  <wgt id="952">4.45882e-12</wgt>
  <wgt id="953">4.31482e-12</wgt>
  <wgt id="954">4.37012e-12</wgt>
  <wgt id="955">3.86882e-12</wgt>
  <wgt id="956">4.02981e-12</wgt>
  <wgt id="957">4.46202e-12</wgt>
  <wgt id="958">4.24837e-12</wgt>
  <wgt id="959">4.26809e-12</wgt>
  <wgt id="960">3.88366e-12</wgt>
  <wgt id="961">4.27096e-12</wgt>
  <wgt id="962">4.33079e-12</wgt>
  <wgt id="963">4.28204e-12</wgt>
  <wgt id="964">4.46086e-12</wgt>
  <wgt id="965">4.49689e-12</wgt>
  <wgt id="966">4.21035e-12</wgt>
  <wgt id="967">4.41035e-12</wgt>
  <wgt id="968">4.33472e-12</wgt>
  <wgt id="969">4.22952e-12</wgt>
  <wgt id="970">4.35129e-12</wgt>
  <wgt id="971">3.98518e-12</wgt>
  <wgt id="972">4.50004e-12</wgt>
  <wgt id="973">4.1012e-12</wgt>
  <wgt id="974">5.03183e-12</wgt>
  <wgt id="975">3.99502e-12</wgt>
  <wgt id="976">4.19798e-12</wgt>
  <wgt id="977">3.74987e-12</wgt>
  <wgt id="978">4.4872e-12</wgt>
  <wgt id="979">4.62963e-12</wgt>
  <wgt id="980">4.23057e-12</wgt>
  <wgt id="981">4.26264e-12</wgt>
  <wgt id="982">4.11119e-12</wgt>
</rwgt>
</event>
<event>
 5   1  0.3028200E-11  0.2429222E+04  0.7818608E-02  0.7667651E-01
       21   -1    0    0  502  501  0.00000000000E+00  0.00000000000E+00  0.12343544515E+04  0.12343544515E+04  0.00000000000E+00 0.  1.
       21   -1    0    0  501  502 -0.00000000000E+00 -0.00000000000E+00 -0.11951831055E+04  0.11951831055E+04  0.00000000000E+00 0. -1.
       39    2    1    2    0    0  0.00000000000E+00  0.00000000000E+00  0.39171345992E+02  0.24295375570E+04  0.24292217574E+04 0.  0.
       25    1    3    3    0    0 -0.80835595963E+02 -0.11833620379E+04 -0.21017116086E+03  0.12110644174E+04  0.12500000000E+03 0.  0.
       25    1    3    3    0    0  0.80835595963E+02  0.11833620379E+04  0.24934250685E+03  0.12184731396E+04  0.12500000000E+03 0.  0.
<mgrwt>
<rscale>  0 0.24292218E+04</rscale>
<asrwt>0</asrwt>
<pdfrwt beam="1">  1       21 0.18990068E+00 0.24292218E+04</pdfrwt>
<pdfrwt beam="2">  1       21 0.18387432E+00 0.24292218E+04</pdfrwt>
<totfact> 0.95868920E+00</totfact>
</mgrwt>
<rwgt>
  <wgt id="1">3.0282e-12</wgt>
  <wgt id="2">2.63046e-12</wgt>
  <wgt id="3">3.52334e-12</wgt>
  <wgt id="4">3.0282e-12</wgt>
  <wgt id="5">2.63046e-12</wgt>
  <wgt id="6">3.52334e-12</wgt>
  <wgt id="7">3.0282e-12</wgt>
  <wgt id="8">2.63046e-12</wgt>
  <wgt id="9">3.52334e-12</wgt>
  <wgt id="10">3.14199e-12</wgt>
  <wgt id="11">3.13844e-12</wgt>
  <wgt id="12">3.13565e-12</wgt>
  <wgt id="13">3.1308e-12</wgt>
  <wgt id="14">3.15378e-12</wgt>
  <wgt id="15">3.14673e-12</wgt>
  <wgt id="16">3.1356e-12</wgt>
  <wgt id="17">3.14641e-12</wgt>
  <wgt id="18">3.13556e-12</wgt>
  <wgt id="19">3.14947e-12</wgt>
  <wgt id="20">3.13179e-12</wgt>
  <wgt id="21">3.12411e-12</wgt>
  <wgt id="22">3.13206e-12</wgt>
  <wgt id="23">3.11473e-12</wgt>
  <wgt id="24">3.1286e-12</wgt>
  <wgt id="25">3.13507e-12</wgt>
  <wgt id="26">3.1561e-12</wgt>
  <wgt id="27">3.14255e-12</wgt>
  <wgt id="28">3.12806e-12</wgt>
  <wgt id="29">3.14488e-12</wgt>
  <wgt id="30">3.13652e-12</wgt>
  <wgt id="31">3.14929e-12</wgt>
  <wgt id="32">3.13924e-12</wgt>
  <wgt id="33">3.15057e-12</wgt>
  <wgt id="34">3.13309e-12</wgt>
  <wgt id="35">3.14255e-12</wgt>
  <wgt id="36">3.15277e-12</wgt>
  <wgt id="37">3.13406e-12</wgt>
  <wgt id="38">3.1321e-12</wgt>
  <wgt id="39">3.17199e-12</wgt>
  <wgt id="40">3.149e-12</wgt>
  <wgt id="41">3.1417e-12</wgt>
  <wgt id="42">3.14828e-12</wgt>
  <wgt id="43">3.14224e-12</wgt>
  <wgt id="44">3.13187e-12</wgt>
  <wgt id="45">3.15009e-12</wgt>
  <wgt id="46">3.14913e-12</wgt>
  <wgt id="47">3.12775e-12</wgt>
  <wgt id="48">3.14113e-12</wgt>
  <wgt id="49">3.14897e-12</wgt>
  <wgt id="50">3.16275e-12</wgt>
  <wgt id="51">3.15916e-12</wgt>
  <wgt id="52">3.13916e-12</wgt>
  <wgt id="53">3.11424e-12</wgt>
  <wgt id="54">3.13346e-12</wgt>
  <wgt id="55">3.14188e-12</wgt>
  <wgt id="56">3.15361e-12</wgt>
  <wgt id="57">3.15335e-12</wgt>
  <wgt id="58">3.11799e-12</wgt>
  <wgt id="59">3.12942e-12</wgt>
  <wgt id="60">3.14312e-12</wgt>
  <wgt id="61">3.13453e-12</wgt>
  <wgt id="62">3.14118e-12</wgt>
  <wgt id="63">3.14571e-12</wgt>
  <wgt id="64">3.14595e-12</wgt>
  <wgt id="65">3.14567e-12</wgt>
  <wgt id="66">3.13727e-12</wgt>
  <wgt id="67">3.13656e-12</wgt>
  <wgt id="68">3.13814e-12</wgt>
  <wgt id="69">3.14177e-12</wgt>
  <wgt id="70">3.13902e-12</wgt>
  <wgt id="71">3.14212e-12</wgt>
  <wgt id="72">3.13895e-12</wgt>
  <wgt id="73">3.14358e-12</wgt>
  <wgt id="74">3.14457e-12</wgt>
  <wgt id="75">3.13933e-12</wgt>
  <wgt id="76">3.15114e-12</wgt>
  <wgt id="77">3.14164e-12</wgt>
  <wgt id="78">3.14302e-12</wgt>
  <wgt id="79">3.14776e-12</wgt>
  <wgt id="80">3.12822e-12</wgt>
  <wgt id="81">3.1375e-12</wgt>
  <wgt id="82">3.14193e-12</wgt>
  <wgt id="83">3.12902e-12</wgt>
  <wgt id="84">3.13452e-12</wgt>
  <wgt id="85">3.13592e-12</wgt>
  <wgt id="86">3.14962e-12</wgt>
  <wgt id="87">3.12521e-12</wgt>
  <wgt id="88">3.14619e-12</wgt>
  <wgt id="89">3.14519e-12</wgt>
  <wgt id="90">3.14606e-12</wgt>
  <wgt id="91">3.14413e-12</wgt>
  <wgt id="92">3.14809e-12</wgt>
  <wgt id="93">3.14104e-12</wgt>
  <wgt id="94">3.13881e-12</wgt>
  <wgt id="95">3.14353e-12</wgt>
  <wgt id="96">3.14432e-12</wgt>
  <wgt id="97">3.13793e-12</wgt>
  <wgt id="98">3.14338e-12</wgt>
  <wgt id="99">3.14148e-12</wgt>
  <wgt id="100">3.14472e-12</wgt>
  <wgt id="101">3.14016e-12</wgt>
  <wgt id="102">3.13815e-12</wgt>
  <wgt id="103">3.14681e-12</wgt>
  <wgt id="104">3.1392e-12</wgt>
  <wgt id="105">3.14478e-12</wgt>
  <wgt id="106">3.13791e-12</wgt>
  <wgt id="107">3.15026e-12</wgt>
  <wgt id="108">3.13911e-12</wgt>
  <wgt id="109">3.14288e-12</wgt>
  <wgt id="110">3.14149e-12</wgt>
  <wgt id="111">3.17141e-12</wgt>
  <wgt id="112">3.13994e-12</wgt>
  <wgt id="113">4.26295e-12</wgt>
  <wgt id="114">4.39909e-12</wgt>
  <wgt id="115">4.3393e-12</wgt>
  <wgt id="116">6.17537e-12</wgt>
  <wgt id="117">3.52248e-12</wgt>
  <wgt id="118">3.53539e-12</wgt>
  <wgt id="119">3.51532e-12</wgt>
  <wgt id="120">3.52282e-12</wgt>
  <wgt id="121">3.52229e-12</wgt>
  <wgt id="122">3.51654e-12</wgt>
  <wgt id="123">3.53092e-12</wgt>
  <wgt id="124">3.51756e-12</wgt>
  <wgt id="125">3.52584e-12</wgt>
  <wgt id="126">3.52933e-12</wgt>
  <wgt id="127">3.51795e-12</wgt>
  <wgt id="128">3.53362e-12</wgt>
  <wgt id="129">3.51153e-12</wgt>
  <wgt id="130">3.54328e-12</wgt>
  <wgt id="131">3.50118e-12</wgt>
  <wgt id="132">3.42957e-12</wgt>
  <wgt id="133">3.63268e-12</wgt>
  <wgt id="134">3.48382e-12</wgt>
  <wgt id="135">3.55278e-12</wgt>
  <wgt id="136">3.56871e-12</wgt>
  <wgt id="137">3.46668e-12</wgt>
  <wgt id="138">3.66223e-12</wgt>
  <wgt id="139">3.38778e-12</wgt>
  <wgt id="140">3.49925e-12</wgt>
  <wgt id="141">3.54065e-12</wgt>
  <wgt id="142">3.523e-12</wgt>
  <wgt id="143">3.5277e-12</wgt>
  <wgt id="144">3.41867e-12</wgt>
  <wgt id="145">3.61936e-12</wgt>
  <wgt id="146">3.55576e-12</wgt>
  <wgt id="147">3.49611e-12</wgt>
  <wgt id="148">3.53373e-12</wgt>
  <wgt id="149">3.52178e-12</wgt>
  <wgt id="150">3.55359e-12</wgt>
  <wgt id="151">3.50793e-12</wgt>
  <wgt id="152">3.52429e-12</wgt>
  <wgt id="153">3.52194e-12</wgt>
  <wgt id="154">3.55025e-12</wgt>
  <wgt id="155">3.48939e-12</wgt>
  <wgt id="156">3.59667e-12</wgt>
  <wgt id="157">3.44567e-12</wgt>
  <wgt id="158">4.23705e-12</wgt>
  <wgt id="159">4.25471e-12</wgt>
  <wgt id="160">4.22268e-12</wgt>
  <wgt id="161">4.22585e-12</wgt>
  <wgt id="162">4.24941e-12</wgt>
  <wgt id="163">4.23233e-12</wgt>
  <wgt id="164">4.24411e-12</wgt>
  <wgt id="165">4.23857e-12</wgt>
  <wgt id="166">4.2359e-12</wgt>
  <wgt id="167">4.23396e-12</wgt>
  <wgt id="168">4.24126e-12</wgt>
  <wgt id="169">4.21914e-12</wgt>
  <wgt id="170">4.24845e-12</wgt>
  <wgt id="171">4.2321e-12</wgt>
  <wgt id="172">4.24394e-12</wgt>
  <wgt id="173">4.23662e-12</wgt>
  <wgt id="174">4.23706e-12</wgt>
  <wgt id="175">4.11549e-12</wgt>
  <wgt id="176">4.39568e-12</wgt>
  <wgt id="177">4.26058e-12</wgt>
  <wgt id="178">4.21533e-12</wgt>
  <wgt id="179">4.41897e-12</wgt>
  <wgt id="180">3.95044e-12</wgt>
  <wgt id="181">4.11074e-12</wgt>
  <wgt id="182">4.32042e-12</wgt>
  <wgt id="183">4.15991e-12</wgt>
  <wgt id="184">4.2754e-12</wgt>
  <wgt id="185">4.20245e-12</wgt>
  <wgt id="186">4.27954e-12</wgt>
  <wgt id="187">4.19863e-12</wgt>
  <wgt id="188">4.30681e-12</wgt>
  <wgt id="189">4.20917e-12</wgt>
  <wgt id="190">4.24857e-12</wgt>
  <wgt id="191">4.24897e-12</wgt>
  <wgt id="192">4.23002e-12</wgt>
  <wgt id="193">4.29926e-12</wgt>
  <wgt id="194">4.20642e-12</wgt>
  <wgt id="195">4.12483e-12</wgt>
  <wgt id="196">4.43319e-12</wgt>
  <wgt id="197">4.25876e-12</wgt>
  <wgt id="198">4.23197e-12</wgt>
  <wgt id="199">4.23705e-12</wgt>
  <wgt id="200">4.274e-12</wgt>
  <wgt id="201">4.2605e-12</wgt>
  <wgt id="202">4.24742e-12</wgt>
  <wgt id="203">4.22773e-12</wgt>
  <wgt id="204">4.2184e-12</wgt>
  <wgt id="205">4.21082e-12</wgt>
  <wgt id="206">4.09947e-12</wgt>
  <wgt id="207">4.12358e-12</wgt>
  <wgt id="208">4.07562e-12</wgt>
  <wgt id="209">4.11287e-12</wgt>
  <wgt id="210">4.08954e-12</wgt>
  <wgt id="211">4.0979e-12</wgt>
  <wgt id="212">4.10085e-12</wgt>
  <wgt id="213">4.09907e-12</wgt>
  <wgt id="214">4.10003e-12</wgt>
  <wgt id="215">4.10256e-12</wgt>
  <wgt id="216">4.09711e-12</wgt>
  <wgt id="217">4.11163e-12</wgt>
  <wgt id="218">4.09002e-12</wgt>
  <wgt id="219">4.09586e-12</wgt>
  <wgt id="220">4.1016e-12</wgt>
  <wgt id="221">4.09751e-12</wgt>
  <wgt id="222">4.10368e-12</wgt>
  <wgt id="223">3.87947e-12</wgt>
  <wgt id="224">4.30003e-12</wgt>
  <wgt id="225">4.04907e-12</wgt>
  <wgt id="226">4.16274e-12</wgt>
  <wgt id="227">4.06007e-12</wgt>
  <wgt id="228">4.11673e-12</wgt>
  <wgt id="229">4.04158e-12</wgt>
  <wgt id="230">4.12825e-12</wgt>
  <wgt id="231">4.21818e-12</wgt>
  <wgt id="232">4.00193e-12</wgt>
  <wgt id="233">4.07759e-12</wgt>
  <wgt id="234">4.13376e-12</wgt>
  <wgt id="235">4.01165e-12</wgt>
  <wgt id="236">4.1801e-12</wgt>
  <wgt id="237">4.04065e-12</wgt>
  <wgt id="238">4.1196e-12</wgt>
  <wgt id="239">4.074e-12</wgt>
  <wgt id="240">4.14531e-12</wgt>
  <wgt id="241">4.05717e-12</wgt>
  <wgt id="242">4.15073e-12</wgt>
  <wgt id="243">4.1546e-12</wgt>
  <wgt id="244">4.11909e-12</wgt>
  <wgt id="245">4.09687e-12</wgt>
  <wgt id="246">4.12908e-12</wgt>
  <wgt id="247">4.09947e-12</wgt>
  <wgt id="248">4.13498e-12</wgt>
  <wgt id="249">4.12131e-12</wgt>
  <wgt id="250">4.10889e-12</wgt>
  <wgt id="251">4.0897e-12</wgt>
  <wgt id="252">4.08095e-12</wgt>
  <wgt id="253">4.07443e-12</wgt>
  <wgt id="254">4.01917e-12</wgt>
  <wgt id="255">4.02292e-12</wgt>
  <wgt id="256">4.01479e-12</wgt>
  <wgt id="257">4.02197e-12</wgt>
  <wgt id="258">4.01689e-12</wgt>
  <wgt id="259">4.04604e-12</wgt>
  <wgt id="260">3.9931e-12</wgt>
  <wgt id="261">4.02541e-12</wgt>
  <wgt id="262">4.01155e-12</wgt>
  <wgt id="263">4.01722e-12</wgt>
  <wgt id="264">4.02132e-12</wgt>
  <wgt id="265">4.01416e-12</wgt>
  <wgt id="266">4.02876e-12</wgt>
  <wgt id="267">4.02052e-12</wgt>
  <wgt id="268">4.01724e-12</wgt>
  <wgt id="269">4.03258e-12</wgt>
  <wgt id="270">4.00998e-12</wgt>
  <wgt id="271">4.0124e-12</wgt>
  <wgt id="272">4.02668e-12</wgt>
  <wgt id="273">4.00622e-12</wgt>
  <wgt id="274">4.02886e-12</wgt>
  <wgt id="275">4.00222e-12</wgt>
  <wgt id="276">4.03652e-12</wgt>
  <wgt id="277">3.99588e-12</wgt>
  <wgt id="278">4.04039e-12</wgt>
  <wgt id="279">3.94004e-12</wgt>
  <wgt id="280">4.11808e-12</wgt>
  <wgt id="281">4.00084e-12</wgt>
  <wgt id="282">4.01992e-12</wgt>
  <wgt id="283">3.90274e-12</wgt>
  <wgt id="284">4.16241e-12</wgt>
  <wgt id="285">3.82628e-12</wgt>
  <wgt id="286">4.1786e-12</wgt>
  <wgt id="287">4.03166e-12</wgt>
  <wgt id="288">4.00286e-12</wgt>
  <wgt id="289">4.0473e-12</wgt>
  <wgt id="290">3.95318e-12</wgt>
  <wgt id="291">4.00807e-12</wgt>
  <wgt id="292">4.02162e-12</wgt>
  <wgt id="293">3.98786e-12</wgt>
  <wgt id="294">4.05e-12</wgt>
  <wgt id="295">3.94261e-12</wgt>
  <wgt id="296">4.11237e-12</wgt>
  <wgt id="297">4.01852e-12</wgt>
  <wgt id="298">4.03478e-12</wgt>
  <wgt id="299">4.00581e-12</wgt>
  <wgt id="300">4.05368e-12</wgt>
  <wgt id="301">3.96043e-12</wgt>
  <wgt id="302">4.16475e-12</wgt>
  <wgt id="303">3.98752e-12</wgt>
  <wgt id="304">4.03722e-12</wgt>
  <wgt id="305">4.03134e-12</wgt>
  <wgt id="306">4.03572e-12</wgt>
  <wgt id="307">4.027e-12</wgt>
  <wgt id="308">4.03474e-12</wgt>
  <wgt id="309">4.0293e-12</wgt>
  <wgt id="310">4.05942e-12</wgt>
  <wgt id="311">4.00569e-12</wgt>
  <wgt id="312">4.0369e-12</wgt>
  <wgt id="313">4.02597e-12</wgt>
  <wgt id="314">4.02982e-12</wgt>
  <wgt id="315">4.03332e-12</wgt>
  <wgt id="316">4.02673e-12</wgt>
  <wgt id="317">4.04177e-12</wgt>
  <wgt id="318">4.03463e-12</wgt>
  <wgt id="319">4.02639e-12</wgt>
  <wgt id="320">4.04557e-12</wgt>
  <wgt id="321">4.0237e-12</wgt>
  <wgt id="322">4.02271e-12</wgt>
  <wgt id="323">4.04192e-12</wgt>
  <wgt id="324">4.02089e-12</wgt>
  <wgt id="325">4.04092e-12</wgt>
  <wgt id="326">4.01803e-12</wgt>
  <wgt id="327">4.04872e-12</wgt>
  <wgt id="328">4.01077e-12</wgt>
  <wgt id="329">4.04329e-12</wgt>
  <wgt id="330">4.15266e-12</wgt>
  <wgt id="331">3.91599e-12</wgt>
  <wgt id="332">4.01625e-12</wgt>
  <wgt id="333">4.03177e-12</wgt>
  <wgt id="334">3.93995e-12</wgt>
  <wgt id="335">4.14525e-12</wgt>
  <wgt id="336">3.89127e-12</wgt>
  <wgt id="337">4.20187e-12</wgt>
  <wgt id="338">4.07633e-12</wgt>
  <wgt id="339">3.99009e-12</wgt>
  <wgt id="340">4.05843e-12</wgt>
  <wgt id="341">3.96249e-12</wgt>
  <wgt id="342">4.02366e-12</wgt>
  <wgt id="343">4.02779e-12</wgt>
  <wgt id="344">4.00328e-12</wgt>
  <wgt id="345">4.06435e-12</wgt>
  <wgt id="346">3.95208e-12</wgt>
  <wgt id="347">4.12319e-12</wgt>
  <wgt id="348">4.03237e-12</wgt>
  <wgt id="349">4.04456e-12</wgt>
  <wgt id="350">4.01499e-12</wgt>
  <wgt id="351">4.0734e-12</wgt>
  <wgt id="352">3.96642e-12</wgt>
  <wgt id="353">4.18416e-12</wgt>
  <wgt id="354">3.98299e-12</wgt>
  <wgt id="355">4.06102e-12</wgt>
  <wgt id="356">4.01917e-12</wgt>
  <wgt id="357">4.04814e-12</wgt>
  <wgt id="358">4.03134e-12</wgt>
  <wgt id="359">4.03325e-12</wgt>
  <wgt id="360">4.04641e-12</wgt>
  <wgt id="361">4.032e-12</wgt>
  <wgt id="362">4.10287e-12</wgt>
  <wgt id="363">4.09263e-12</wgt>
  <wgt id="364">4.0786e-12</wgt>
  <wgt id="365">4.06459e-12</wgt>
  <wgt id="366">4.04913e-12</wgt>
  <wgt id="367">4.01695e-12</wgt>
  <wgt id="368">3.99952e-12</wgt>
  <wgt id="369">3.98059e-12</wgt>
  <wgt id="370">4.032e-12</wgt>
  <wgt id="371">4.05022e-12</wgt>
  <wgt id="372">4.04014e-12</wgt>
  <wgt id="373">4.02535e-12</wgt>
  <wgt id="374">4.02387e-12</wgt>
  <wgt id="375">4.30255e-12</wgt>
  <wgt id="376">4.30315e-12</wgt>
  <wgt id="377">4.30177e-12</wgt>
  <wgt id="378">4.318e-12</wgt>
  <wgt id="379">4.28692e-12</wgt>
  <wgt id="380">4.31387e-12</wgt>
  <wgt id="381">4.29784e-12</wgt>
  <wgt id="382">4.32549e-12</wgt>
  <wgt id="383">4.27966e-12</wgt>
  <wgt id="384">4.30528e-12</wgt>
  <wgt id="385">4.29983e-12</wgt>
  <wgt id="386">4.3204e-12</wgt>
  <wgt id="387">4.29462e-12</wgt>
  <wgt id="388">4.29821e-12</wgt>
  <wgt id="389">4.30746e-12</wgt>
  <wgt id="390">4.31462e-12</wgt>
  <wgt id="391">4.28969e-12</wgt>
  <wgt id="392">4.26838e-12</wgt>
  <wgt id="393">4.32174e-12</wgt>
  <wgt id="394">4.30863e-12</wgt>
  <wgt id="395">4.29389e-12</wgt>
  <wgt id="396">4.30562e-12</wgt>
  <wgt id="397">4.3003e-12</wgt>
  <wgt id="398">4.2825e-12</wgt>
  <wgt id="399">4.32187e-12</wgt>
  <wgt id="400">4.2948e-12</wgt>
  <wgt id="401">4.31966e-12</wgt>
  <wgt id="402">4.26672e-12</wgt>
  <wgt id="403">4.3182e-12</wgt>
  <wgt id="404">4.40295e-12</wgt>
  <wgt id="405">4.0606e-12</wgt>
  <wgt id="406">4.23067e-12</wgt>
  <wgt id="407">4.4584e-12</wgt>
  <wgt id="408">4.33941e-12</wgt>
  <wgt id="409">4.23181e-12</wgt>
  <wgt id="410">4.18459e-12</wgt>
  <wgt id="411">4.35703e-12</wgt>
  <wgt id="412">4.29487e-12</wgt>
  <wgt id="413">4.31383e-12</wgt>
  <wgt id="414">4.25527e-12</wgt>
  <wgt id="415">4.33899e-12</wgt>
  <wgt id="416">4.41802e-12</wgt>
  <wgt id="417">4.14294e-12</wgt>
  <wgt id="418">4.30826e-12</wgt>
  <wgt id="419">4.27181e-12</wgt>
  <wgt id="420">4.36957e-12</wgt>
  <wgt id="421">4.26379e-12</wgt>
  <wgt id="422">4.29481e-12</wgt>
  <wgt id="423">4.30686e-12</wgt>
  <wgt id="424">4.39218e-12</wgt>
  <wgt id="425">4.24601e-12</wgt>
  <wgt id="426">4.30255e-12</wgt>
  <wgt id="427">4.2642e-12</wgt>
  <wgt id="428">4.41641e-12</wgt>
  <wgt id="429">4.34208e-12</wgt>
  <wgt id="430">4.46451e-12</wgt>
  <wgt id="431">4.44008e-12</wgt>
  <wgt id="432">4.41694e-12</wgt>
  <wgt id="433">4.3944e-12</wgt>
  <wgt id="434">4.36717e-12</wgt>
  <wgt id="435">4.31052e-12</wgt>
  <wgt id="436">4.28147e-12</wgt>
  <wgt id="437">4.25389e-12</wgt>
  <wgt id="438">4.34208e-12</wgt>
  <wgt id="439">4.35647e-12</wgt>
  <wgt id="440">4.34798e-12</wgt>
  <wgt id="441">4.33776e-12</wgt>
  <wgt id="442">4.33381e-12</wgt>
  <wgt id="443">4.20923e-12</wgt>
  <wgt id="444">4.2327e-12</wgt>
  <wgt id="445">4.18841e-12</wgt>
  <wgt id="446">4.18235e-12</wgt>
  <wgt id="447">4.19254e-12</wgt>
  <wgt id="448">4.09582e-12</wgt>
  <wgt id="449">4.27455e-12</wgt>
  <wgt id="450">4.19056e-12</wgt>
  <wgt id="451">4.20241e-12</wgt>
  <wgt id="452">4.30621e-12</wgt>
  <wgt id="453">4.25129e-12</wgt>
  <wgt id="454">4.04296e-12</wgt>
  <wgt id="455">4.21291e-12</wgt>
  <wgt id="456">4.16525e-12</wgt>
  <wgt id="457">4.22761e-12</wgt>
  <wgt id="458">4.25647e-12</wgt>
  <wgt id="459">4.23684e-12</wgt>
  <wgt id="460">4.2298e-12</wgt>
  <wgt id="461">4.13071e-12</wgt>
  <wgt id="462">4.17283e-12</wgt>
  <wgt id="463">4.16393e-12</wgt>
  <wgt id="464">4.18379e-12</wgt>
  <wgt id="465">4.25483e-12</wgt>
  <wgt id="466">4.16162e-12</wgt>
  <wgt id="467">4.16682e-12</wgt>
  <wgt id="468">4.19715e-12</wgt>
  <wgt id="469">4.19623e-12</wgt>
  <wgt id="470">4.17284e-12</wgt>
  <wgt id="471">4.17141e-12</wgt>
  <wgt id="472">4.22931e-12</wgt>
  <wgt id="473">4.06773e-12</wgt>
  <wgt id="474">3.0282e-12</wgt>
  <wgt id="475">3.2268e-12</wgt>
  <wgt id="476">2.95361e-12</wgt>
  <wgt id="477">2.91403e-12</wgt>
  <wgt id="478">3.04098e-12</wgt>
  <wgt id="479">2.96649e-12</wgt>
  <wgt id="480">3.14048e-12</wgt>
  <wgt id="481">2.96125e-12</wgt>
  <wgt id="482">2.91086e-12</wgt>
  <wgt id="483">2.94578e-12</wgt>
  <wgt id="484">3.24716e-12</wgt>
  <wgt id="485">3.03446e-12</wgt>
  <wgt id="486">3.10904e-12</wgt>
  <wgt id="487">3.09817e-12</wgt>
  <wgt id="488">3.07147e-12</wgt>
  <wgt id="489">2.93851e-12</wgt>
  <wgt id="490">2.93788e-12</wgt>
  <wgt id="491">2.99145e-12</wgt>
  <wgt id="492">2.93099e-12</wgt>
  <wgt id="493">2.91517e-12</wgt>
  <wgt id="494">2.93819e-12</wgt>
  <wgt id="495">3.10369e-12</wgt>
  <wgt id="496">2.92798e-12</wgt>
  <wgt id="497">2.90815e-12</wgt>
  <wgt id="498">3.06916e-12</wgt>
  <wgt id="499">2.94846e-12</wgt>
  <wgt id="500">2.98419e-12</wgt>
  <wgt id="501">3.1712e-12</wgt>
  <wgt id="502">2.94613e-12</wgt>
  <wgt id="503">3.02629e-12</wgt>
  <wgt id="504">3.05287e-12</wgt>
  <wgt id="505">3.00422e-12</wgt>
  <wgt id="506">3.123e-12</wgt>
  <wgt id="507">2.99713e-12</wgt>
  <wgt id="508">3.06355e-12</wgt>
  <wgt id="509">2.97079e-12</wgt>
  <wgt id="510">3.11276e-12</wgt>
  <wgt id="511">2.97255e-12</wgt>
  <wgt id="512">3.07041e-12</wgt>
  <wgt id="513">3.17177e-12</wgt>
  <wgt id="514">2.99949e-12</wgt>
  <wgt id="515">2.98282e-12</wgt>
  <wgt id="516">3.10585e-12</wgt>
  <wgt id="517">3.08867e-12</wgt>
  <wgt id="518">3.09432e-12</wgt>
  <wgt id="519">2.93768e-12</wgt>
  <wgt id="520">3.05682e-12</wgt>
  <wgt id="521">3.13532e-12</wgt>
  <wgt id="522">3.1434e-12</wgt>
  <wgt id="523">3.11404e-12</wgt>
  <wgt id="524">3.08037e-12</wgt>
  <wgt id="525">3.12983e-12</wgt>
  <wgt id="526">3.03771e-12</wgt>
  <wgt id="527">3.07453e-12</wgt>
  <wgt id="528">3.04669e-12</wgt>
  <wgt id="529">2.96971e-12</wgt>
  <wgt id="530">3.05461e-12</wgt>
  <wgt id="531">3.0011e-12</wgt>
  <wgt id="532">3.1978e-12</wgt>
  <wgt id="533">2.84141e-12</wgt>
  <wgt id="534">3.04763e-12</wgt>
  <wgt id="535">3.10134e-12</wgt>
  <wgt id="536">3.01242e-12</wgt>
  <wgt id="537">3.04228e-12</wgt>
  <wgt id="538">3.0611e-12</wgt>
  <wgt id="539">2.974e-12</wgt>
  <wgt id="540">2.95814e-12</wgt>
  <wgt id="541">2.94315e-12</wgt>
  <wgt id="542">2.97649e-12</wgt>
  <wgt id="543">3.02566e-12</wgt>
  <wgt id="544">3.18053e-12</wgt>
  <wgt id="545">2.99302e-12</wgt>
  <wgt id="546">2.9956e-12</wgt>
  <wgt id="547">2.9324e-12</wgt>
  <wgt id="548">2.9038e-12</wgt>
  <wgt id="549">2.97279e-12</wgt>
  <wgt id="550">3.01404e-12</wgt>
  <wgt id="551">3.05387e-12</wgt>
  <wgt id="552">3.01091e-12</wgt>
  <wgt id="553">3.02318e-12</wgt>
  <wgt id="554">3.25204e-12</wgt>
  <wgt id="555">3.1017e-12</wgt>
  <wgt id="556">2.93788e-12</wgt>
  <wgt id="557">3.07527e-12</wgt>
  <wgt id="558">2.92606e-12</wgt>
  <wgt id="559">2.99018e-12</wgt>
  <wgt id="560">3.27848e-12</wgt>
  <wgt id="561">2.9665e-12</wgt>
  <wgt id="562">3.07406e-12</wgt>
  <wgt id="563">2.92426e-12</wgt>
  <wgt id="564">3.0203e-12</wgt>
  <wgt id="565">2.90384e-12</wgt>
  <wgt id="566">3.08255e-12</wgt>
  <wgt id="567">2.98359e-12</wgt>
  <wgt id="568">3.01486e-12</wgt>
  <wgt id="569">3.09577e-12</wgt>
  <wgt id="570">2.93375e-12</wgt>
  <wgt id="571">3.3579e-12</wgt>
  <wgt id="572">2.95441e-12</wgt>
  <wgt id="573">2.88954e-12</wgt>
  <wgt id="574">2.91737e-12</wgt>
  <wgt id="575">3.33714e-12</wgt>
  <wgt id="576">3.30141e-12</wgt>
  <wgt id="577">3.42299e-12</wgt>
  <wgt id="578">3.42856e-12</wgt>
  <wgt id="579">3.3939e-12</wgt>
  <wgt id="580">3.39709e-12</wgt>
  <wgt id="581">3.5499e-12</wgt>
  <wgt id="582">3.29384e-12</wgt>
  <wgt id="583">3.37551e-12</wgt>
  <wgt id="584">3.34481e-12</wgt>
  <wgt id="585">3.37489e-12</wgt>
  <wgt id="586">3.26824e-12</wgt>
  <wgt id="587">3.38661e-12</wgt>
  <wgt id="588">3.31427e-12</wgt>
  <wgt id="589">3.39893e-12</wgt>
  <wgt id="590">3.40209e-12</wgt>
  <wgt id="591">3.46308e-12</wgt>
  <wgt id="592">3.27718e-12</wgt>
  <wgt id="593">3.326e-12</wgt>
  <wgt id="594">3.43708e-12</wgt>
  <wgt id="595">3.32074e-12</wgt>
  <wgt id="596">3.35051e-12</wgt>
  <wgt id="597">3.23238e-12</wgt>
  <wgt id="598">3.24484e-12</wgt>
  <wgt id="599">3.52804e-12</wgt>
  <wgt id="600">3.29793e-12</wgt>
  <wgt id="601">3.24561e-12</wgt>
  <wgt id="602">3.26987e-12</wgt>
  <wgt id="603">3.27584e-12</wgt>
  <wgt id="604">3.38693e-12</wgt>
  <wgt id="605">3.47492e-12</wgt>
  <wgt id="606">3.25509e-12</wgt>
  <wgt id="607">3.28922e-12</wgt>
  <wgt id="608">3.36216e-12</wgt>
  <wgt id="609">3.15204e-12</wgt>
  <wgt id="610">3.21119e-12</wgt>
  <wgt id="611">3.3731e-12</wgt>
  <wgt id="612">3.55685e-12</wgt>
  <wgt id="613">3.33425e-12</wgt>
  <wgt id="614">3.3874e-12</wgt>
  <wgt id="615">3.2646e-12</wgt>
  <wgt id="616">3.53122e-12</wgt>
  <wgt id="617">3.4631e-12</wgt>
  <wgt id="618">3.38306e-12</wgt>
  <wgt id="619">3.29584e-12</wgt>
  <wgt id="620">3.49079e-12</wgt>
  <wgt id="621">3.3914e-12</wgt>
  <wgt id="622">3.38661e-12</wgt>
  <wgt id="623">3.43796e-12</wgt>
  <wgt id="624">3.32577e-12</wgt>
  <wgt id="625">3.30349e-12</wgt>
  <wgt id="626">3.26125e-12</wgt>
  <wgt id="627">3.20806e-12</wgt>
  <wgt id="628">3.54355e-12</wgt>
  <wgt id="629">3.25414e-12</wgt>
  <wgt id="630">3.20176e-12</wgt>
  <wgt id="631">3.35493e-12</wgt>
  <wgt id="632">3.22586e-12</wgt>
  <wgt id="633">3.29892e-12</wgt>
  <wgt id="634">3.33241e-12</wgt>
  <wgt id="635">3.27402e-12</wgt>
  <wgt id="636">3.35367e-12</wgt>
  <wgt id="637">3.31926e-12</wgt>
  <wgt id="638">3.20471e-12</wgt>
  <wgt id="639">3.2928e-12</wgt>
  <wgt id="640">3.33938e-12</wgt>
  <wgt id="641">3.35346e-12</wgt>
  <wgt id="642">3.16818e-12</wgt>
  <wgt id="643">3.31751e-12</wgt>
  <wgt id="644">3.22018e-12</wgt>
  <wgt id="645">3.37243e-12</wgt>
  <wgt id="646">3.39329e-12</wgt>
  <wgt id="647">3.29545e-12</wgt>
  <wgt id="648">3.3517e-12</wgt>
  <wgt id="649">3.39124e-12</wgt>
  <wgt id="650">3.27959e-12</wgt>
  <wgt id="651">3.33807e-12</wgt>
  <wgt id="652">3.31558e-12</wgt>
  <wgt id="653">3.24319e-12</wgt>
  <wgt id="654">3.32224e-12</wgt>
  <wgt id="655">3.28787e-12</wgt>
  <wgt id="656">3.36556e-12</wgt>
  <wgt id="657">3.4554e-12</wgt>
  <wgt id="658">3.34346e-12</wgt>
  <wgt id="659">3.20458e-12</wgt>
  <wgt id="660">3.40861e-12</wgt>
  <wgt id="661">3.28028e-12</wgt>
  <wgt id="662">3.34482e-12</wgt>
  <wgt id="663">3.3362e-12</wgt>
  <wgt id="664">3.28629e-12</wgt>
  <wgt id="665">3.32599e-12</wgt>
  <wgt id="666">3.30899e-12</wgt>
  <wgt id="667">3.43773e-12</wgt>
  <wgt id="668">3.33446e-12</wgt>
  <wgt id="669">3.41958e-12</wgt>
  <wgt id="670">3.40249e-12</wgt>
  <wgt id="671">3.30828e-12</wgt>
  <wgt id="672">3.19792e-12</wgt>
  <wgt id="673">3.34069e-12</wgt>
  <wgt id="674">3.27643e-12</wgt>
  <wgt id="675">3.29593e-12</wgt>
  <wgt id="676">4.21614e-12</wgt>
  <wgt id="677">4.26084e-12</wgt>
  <wgt id="678">4.41198e-12</wgt>
  <wgt id="679">3.92932e-12</wgt>
  <wgt id="680">4.11198e-12</wgt>
  <wgt id="681">4.3161e-12</wgt>
  <wgt id="682">4.3471e-12</wgt>
  <wgt id="683">4.1637e-12</wgt>
  <wgt id="684">4.41112e-12</wgt>
  <wgt id="685">3.97944e-12</wgt>
  <wgt id="686">4.14004e-12</wgt>
  <wgt id="687">4.43366e-12</wgt>
  <wgt id="688">4.22017e-12</wgt>
  <wgt id="689">4.58461e-12</wgt>
  <wgt id="690">4.43731e-12</wgt>
  <wgt id="691">4.49961e-12</wgt>
  <wgt id="692">4.16647e-12</wgt>
  <wgt id="693">4.94071e-12</wgt>
  <wgt id="694">4.46213e-12</wgt>
  <wgt id="695">4.0891e-12</wgt>
  <wgt id="696">3.97653e-12</wgt>
  <wgt id="697">4.12747e-12</wgt>
  <wgt id="698">3.87768e-12</wgt>
  <wgt id="699">3.84769e-12</wgt>
  <wgt id="700">3.66873e-12</wgt>
  <wgt id="701">4.23432e-12</wgt>
  <wgt id="702">4.06799e-12</wgt>
  <wgt id="703">4.83715e-12</wgt>
  <wgt id="704">4.60023e-12</wgt>
  <wgt id="705">4.38402e-12</wgt>
  <wgt id="706">3.91835e-12</wgt>
  <wgt id="707">4.04922e-12</wgt>
  <wgt id="708">4.16374e-12</wgt>
  <wgt id="709">4.14369e-12</wgt>
  <wgt id="710">3.77478e-12</wgt>
  <wgt id="711">4.18664e-12</wgt>
  <wgt id="712">4.15189e-12</wgt>
  <wgt id="713">4.58155e-12</wgt>
  <wgt id="714">4.16051e-12</wgt>
  <wgt id="715">4.1804e-12</wgt>
  <wgt id="716">4.04763e-12</wgt>
  <wgt id="717">4.03375e-12</wgt>
  <wgt id="718">4.20127e-12</wgt>
  <wgt id="719">3.82321e-12</wgt>
  <wgt id="720">3.94824e-12</wgt>
  <wgt id="721">3.88926e-12</wgt>
  <wgt id="722">3.74526e-12</wgt>
  <wgt id="723">4.49488e-12</wgt>
  <wgt id="724">4.41421e-12</wgt>
  <wgt id="725">4.4542e-12</wgt>
  <wgt id="726">4.26096e-12</wgt>
  <wgt id="727">4.11195e-12</wgt>
  <wgt id="728">4.12554e-12</wgt>
  <wgt id="729">3.79175e-12</wgt>
  <wgt id="730">4.5641e-12</wgt>
  <wgt id="731">4.16595e-12</wgt>
  <wgt id="732">4.62742e-12</wgt>
  <wgt id="733">4.23002e-12</wgt>
  <wgt id="734">4.31965e-12</wgt>
  <wgt id="735">4.18907e-12</wgt>
  <wgt id="736">4.14191e-12</wgt>
  <wgt id="737">4.29417e-12</wgt>
  <wgt id="738">3.9906e-12</wgt>
  <wgt id="739">4.26606e-12</wgt>
  <wgt id="740">4.68158e-12</wgt>
  <wgt id="741">3.73726e-12</wgt>
  <wgt id="742">4.1436e-12</wgt>
  <wgt id="743">4.02541e-12</wgt>
  <wgt id="744">4.12978e-12</wgt>
  <wgt id="745">4.41165e-12</wgt>
  <wgt id="746">4.48378e-12</wgt>
  <wgt id="747">3.82371e-12</wgt>
  <wgt id="748">4.1692e-12</wgt>
  <wgt id="749">4.4449e-12</wgt>
  <wgt id="750">4.26496e-12</wgt>
  <wgt id="751">4.35904e-12</wgt>
  <wgt id="752">3.8584e-12</wgt>
  <wgt id="753">4.0231e-12</wgt>
  <wgt id="754">4.43951e-12</wgt>
  <wgt id="755">4.23472e-12</wgt>
  <wgt id="756">4.25486e-12</wgt>
  <wgt id="757">3.87863e-12</wgt>
  <wgt id="758">4.26059e-12</wgt>
  <wgt id="759">4.27867e-12</wgt>
  <wgt id="760">4.27369e-12</wgt>
  <wgt id="761">4.4364e-12</wgt>
  <wgt id="762">4.46914e-12</wgt>
  <wgt id="763">4.19525e-12</wgt>
  <wgt id="764">4.38612e-12</wgt>
  <wgt id="765">4.31882e-12</wgt>
  <wgt id="766">4.20865e-12</wgt>
  <wgt id="767">4.3325e-12</wgt>
  <wgt id="768">3.97694e-12</wgt>
  <wgt id="769">4.47766e-12</wgt>
  <wgt id="770">4.07963e-12</wgt>
  <wgt id="771">4.99697e-12</wgt>
  <wgt id="772">3.97225e-12</wgt>
  <wgt id="773">4.1826e-12</wgt>
  <wgt id="774">3.75953e-12</wgt>
  <wgt id="775">4.46777e-12</wgt>
  <wgt id="776">4.60638e-12</wgt>
  <wgt id="777">4.00542e-12</wgt>
  <wgt id="778">3.09978e-12</wgt>
  <wgt id="779">2.5813e-12</wgt>
  <wgt id="780">2.09012e-12</wgt>
  <wgt id="781">3.12352e-12</wgt>
  <wgt id="782">3.27732e-12</wgt>
  <wgt id="783">2.61052e-12</wgt>
  <wgt id="784">2.70666e-12</wgt>
  <wgt id="785">3.76484e-12</wgt>
  <wgt id="786">2.38778e-12</wgt>
  <wgt id="787">3.54305e-12</wgt>
  <wgt id="788">1.94378e-12</wgt>
  <wgt id="789">2.45442e-12</wgt>
  <wgt id="790">2.35414e-12</wgt>
  <wgt id="791">2.88085e-12</wgt>
  <wgt id="792">4.0317e-12</wgt>
  <wgt id="793">3.02419e-12</wgt>
  <wgt id="794">2.35724e-12</wgt>
  <wgt id="795">3.65579e-12</wgt>
  <wgt id="796">4.10262e-12</wgt>
  <wgt id="797">3.60243e-12</wgt>
  <wgt id="798">2.85861e-12</wgt>
  <wgt id="799">3.54588e-12</wgt>
  <wgt id="800">2.48317e-12</wgt>
  <wgt id="801">2.88663e-12</wgt>
  <wgt id="802">2.37486e-12</wgt>
  <wgt id="803">3.96463e-12</wgt>
  <wgt id="804">3.62472e-12</wgt>
  <wgt id="805">3.69943e-12</wgt>
  <wgt id="806">3.48316e-12</wgt>
  <wgt id="807">2.94134e-12</wgt>
  <wgt id="808">3.01802e-12</wgt>
  <wgt id="809">2.84879e-12</wgt>
  <wgt id="810">3.54168e-12</wgt>
  <wgt id="811">3.40322e-12</wgt>
  <wgt id="812">2.33315e-12</wgt>
  <wgt id="813">2.38871e-12</wgt>
  <wgt id="814">2.67943e-12</wgt>
  <wgt id="815">2.58747e-12</wgt>
  <wgt id="816">2.24392e-12</wgt>
  <wgt id="817">3.26286e-12</wgt>
  <wgt id="818">3.06171e-12</wgt>
  <wgt id="819">2.5747e-12</wgt>
  <wgt id="820">3.10896e-12</wgt>
  <wgt id="821">3.59729e-12</wgt>
  <wgt id="822">2.54989e-12</wgt>
  <wgt id="823">3.61865e-12</wgt>
  <wgt id="824">4.18158e-12</wgt>
  <wgt id="825">2.27621e-12</wgt>
  <wgt id="826">3.2861e-12</wgt>
  <wgt id="827">1.85851e-12</wgt>
  <wgt id="828">3.9891e-12</wgt>
  <wgt id="829">3.24356e-12</wgt>
  <wgt id="830">2.15624e-12</wgt>
  <wgt id="831">3.35058e-12</wgt>
  <wgt id="832">5.14861e-12</wgt>
  <wgt id="833">2.88365e-12</wgt>
  <wgt id="834">4.78566e-12</wgt>
  <wgt id="835">2.502e-12</wgt>
  <wgt id="836">3.09122e-12</wgt>
  <wgt id="837">3.55091e-12</wgt>
  <wgt id="838">2.96964e-12</wgt>
  <wgt id="839">3.32595e-12</wgt>
  <wgt id="840">2.8897e-12</wgt>
  <wgt id="841">3.85315e-12</wgt>
  <wgt id="842">2.78286e-12</wgt>
  <wgt id="843">3.04766e-12</wgt>
  <wgt id="844">3.2505e-12</wgt>
  <wgt id="845">4.37137e-12</wgt>
  <wgt id="846">2.83963e-12</wgt>
  <wgt id="847">3.15529e-12</wgt>
  <wgt id="848">2.67061e-12</wgt>
  <wgt id="849">3.18401e-12</wgt>
  <wgt id="850">4.08183e-12</wgt>
  <wgt id="851">3.40882e-12</wgt>
  <wgt id="852">2.66487e-12</wgt>
  <wgt id="853">3.41053e-12</wgt>
  <wgt id="854">3.79567e-12</wgt>
  <wgt id="855">3.6392e-12</wgt>
  <wgt id="856">2.21798e-12</wgt>
  <wgt id="857">3.11036e-12</wgt>
  <wgt id="858">3.10186e-12</wgt>
  <wgt id="859">2.86726e-12</wgt>
  <wgt id="860">3.34716e-12</wgt>
  <wgt id="861">2.70146e-12</wgt>
  <wgt id="862">3.17254e-12</wgt>
  <wgt id="863">3.29491e-12</wgt>
  <wgt id="864">3.32649e-12</wgt>
  <wgt id="865">4.51074e-12</wgt>
  <wgt id="866">4.92928e-12</wgt>
  <wgt id="867">3.18591e-12</wgt>
  <wgt id="868">3.08878e-12</wgt>
  <wgt id="869">2.39492e-12</wgt>
  <wgt id="870">2.51351e-12</wgt>
  <wgt id="871">2.43689e-12</wgt>
  <wgt id="872">3.73017e-12</wgt>
  <wgt id="873">2.51695e-12</wgt>
  <wgt id="874">3.27791e-12</wgt>
  <wgt id="875">2.69084e-12</wgt>
  <wgt id="876">3.74857e-12</wgt>
  <wgt id="877">3.59902e-12</wgt>
  <wgt id="878">2.64433e-12</wgt>
  <wgt id="879">4.21614e-12</wgt>
  <wgt id="880">4.26084e-12</wgt>
  <wgt id="881">4.41198e-12</wgt>
  <wgt id="882">3.92932e-12</wgt>
  <wgt id="883">4.11198e-12</wgt>
  <wgt id="884">4.3161e-12</wgt>
  <wgt id="885">4.3471e-12</wgt>
  <wgt id="886">4.1637e-12</wgt>
  <wgt id="887">4.41112e-12</wgt>
  <wgt id="888">3.97944e-12</wgt>
  <wgt id="889">4.14004e-12</wgt>
  <wgt id="890">4.43366e-12</wgt>
  <wgt id="891">4.22017e-12</wgt>
  <wgt id="892">4.58461e-12</wgt>
  <wgt id="893">4.43731e-12</wgt>
  <wgt id="894">4.49961e-12</wgt>
  <wgt id="895">4.16647e-12</wgt>
  <wgt id="896">4.94071e-12</wgt>
  <wgt id="897">4.46213e-12</wgt>
  <wgt id="898">4.0891e-12</wgt>
  <wgt id="899">3.97653e-12</wgt>
  <wgt id="900">4.12747e-12</wgt>
  <wgt id="901">3.87768e-12</wgt>
  <wgt id="902">3.84769e-12</wgt>
  <wgt id="903">3.66873e-12</wgt>
  <wgt id="904">4.23432e-12</wgt>
  <wgt id="905">4.06799e-12</wgt>
  <wgt id="906">4.83715e-12</wgt>
  <wgt id="907">4.60023e-12</wgt>
  <wgt id="908">4.38402e-12</wgt>
  <wgt id="909">3.91835e-12</wgt>
  <wgt id="910">4.04922e-12</wgt>
  <wgt id="911">4.16374e-12</wgt>
  <wgt id="912">4.14369e-12</wgt>
  <wgt id="913">3.77478e-12</wgt>
  <wgt id="914">4.18664e-12</wgt>
  <wgt id="915">4.15189e-12</wgt>
  <wgt id="916">4.58155e-12</wgt>
  <wgt id="917">4.16051e-12</wgt>
  <wgt id="918">4.1804e-12</wgt>
  <wgt id="919">4.04763e-12</wgt>
  <wgt id="920">4.03375e-12</wgt>
  <wgt id="921">4.20127e-12</wgt>
  <wgt id="922">3.82321e-12</wgt>
  <wgt id="923">3.94824e-12</wgt>
  <wgt id="924">3.88926e-12</wgt>
  <wgt id="925">3.74526e-12</wgt>
  <wgt id="926">4.49488e-12</wgt>
  <wgt id="927">4.41421e-12</wgt>
  <wgt id="928">4.4542e-12</wgt>
  <wgt id="929">4.26096e-12</wgt>
  <wgt id="930">4.11195e-12</wgt>
  <wgt id="931">4.12554e-12</wgt>
  <wgt id="932">3.79175e-12</wgt>
  <wgt id="933">4.5641e-12</wgt>
  <wgt id="934">4.16595e-12</wgt>
  <wgt id="935">4.62742e-12</wgt>
  <wgt id="936">4.23002e-12</wgt>
  <wgt id="937">4.31965e-12</wgt>
  <wgt id="938">4.18907e-12</wgt>
  <wgt id="939">4.14191e-12</wgt>
  <wgt id="940">4.29417e-12</wgt>
  <wgt id="941">3.9906e-12</wgt>
  <wgt id="942">4.26606e-12</wgt>
  <wgt id="943">4.68158e-12</wgt>
  <wgt id="944">3.73726e-12</wgt>
  <wgt id="945">4.1436e-12</wgt>
  <wgt id="946">4.02541e-12</wgt>
  <wgt id="947">4.12978e-12</wgt>
  <wgt id="948">4.41165e-12</wgt>
  <wgt id="949">4.48378e-12</wgt>
  <wgt id="950">3.82371e-12</wgt>
  <wgt id="951">4.1692e-12</wgt>
  <wgt id="952">4.4449e-12</wgt>
  <wgt id="953">4.26496e-12</wgt>
  <wgt id="954">4.35904e-12</wgt>
  <wgt id="955">3.8584e-12</wgt>
  <wgt id="956">4.0231e-12</wgt>
  <wgt id="957">4.43951e-12</wgt>
  <wgt id="958">4.23472e-12</wgt>
  <wgt id="959">4.25486e-12</wgt>
  <wgt id="960">3.87863e-12</wgt>
  <wgt id="961">4.26059e-12</wgt>
  <wgt id="962">4.27867e-12</wgt>
  <wgt id="963">4.27369e-12</wgt>
  <wgt id="964">4.4364e-12</wgt>
  <wgt id="965">4.46914e-12</wgt>
  <wgt id="966">4.19525e-12</wgt>
  <wgt id="967">4.38612e-12</wgt>
  <wgt id="968">4.31882e-12</wgt>
  <wgt id="969">4.20865e-12</wgt>
  <wgt id="970">4.3325e-12</wgt>
  <wgt id="971">3.97694e-12</wgt>
  <wgt id="972">4.47766e-12</wgt>
  <wgt id="973">4.07963e-12</wgt>
  <wgt id="974">4.99697e-12</wgt>
  <wgt id="975">3.97225e-12</wgt>
  <wgt id="976">4.1826e-12</wgt>
  <wgt id="977">3.75953e-12</wgt>
  <wgt id="978">4.46777e-12</wgt>
  <wgt id="979">4.60638e-12</wgt>
  <wgt id="980">4.21454e-12</wgt>
  <wgt id="981">4.24197e-12</wgt>
  <wgt id="982">4.09509e-12</wgt>
</rwgt>
</event>
<event>
 5   1  0.3028200E-11  0.2252937E+04  0.7818608E-02  0.7729219E-01
       21   -1    0    0  502  501  0.00000000000E+00  0.00000000000E+00  0.49051854928E+03  0.49051854928E+03  0.00000000000E+00 0. -1.
       21   -1    0    0  501  502 -0.00000000000E+00 -0.00000000000E+00 -0.25869189531E+04  0.25869189531E+04  0.00000000000E+00 0.  1.
       39    2    1    2    0    0  0.00000000000E+00  0.00000000000E+00 -0.20964004038E+04  0.30774375024E+04  0.22529373999E+04 0.  0.
       25    1    3    3    0    0  0.41358434072E+03  0.10398056067E+04 -0.10037479975E+04  0.15084371876E+04  0.12500000000E+03 0.  0.
       25    1    3    3    0    0 -0.41358434072E+03 -0.10398056067E+04 -0.10926524064E+04  0.15690003148E+04  0.12500000000E+03 0.  0.
<mgrwt>
<rscale>  0 0.22529374E+04</rscale>
<asrwt>0</asrwt>
<pdfrwt beam="1">  1       21 0.75464392E-01 0.22529374E+04</pdfrwt>
<pdfrwt beam="2">  1       21 0.39798753E+00 0.22529374E+04</pdfrwt>
<totfact> 0.48368722E+00</totfact>
</mgrwt>
<rwgt>
  <wgt id="1">3.0282e-12</wgt>
  <wgt id="2">2.58919e-12</wgt>
  <wgt id="3">3.58573e-12</wgt>
  <wgt id="4">3.0282e-12</wgt>
  <wgt id="5">2.58919e-12</wgt>
  <wgt id="6">3.58573e-12</wgt>
  <wgt id="7">3.0282e-12</wgt>
  <wgt id="8">2.58919e-12</wgt>
  <wgt id="9">3.58573e-12</wgt>
  <wgt id="10">3.23406e-12</wgt>
  <wgt id="11">3.23679e-12</wgt>
  <wgt id="12">3.22252e-12</wgt>
  <wgt id="13">3.23209e-12</wgt>
  <wgt id="14">3.23583e-12</wgt>
  <wgt id="15">3.23675e-12</wgt>
  <wgt id="16">3.21616e-12</wgt>
  <wgt id="17">3.26179e-12</wgt>
  <wgt id="18">3.23393e-12</wgt>
  <wgt id="19">3.25299e-12</wgt>
  <wgt id="20">3.24004e-12</wgt>
  <wgt id="21">3.19959e-12</wgt>
  <wgt id="22">3.20379e-12</wgt>
  <wgt id="23">3.17372e-12</wgt>
  <wgt id="24">3.20513e-12</wgt>
  <wgt id="25">3.22572e-12</wgt>
  <wgt id="26">3.24129e-12</wgt>
  <wgt id="27">3.22618e-12</wgt>
  <wgt id="28">3.2124e-12</wgt>
  <wgt id="29">3.23384e-12</wgt>
  <wgt id="30">3.19948e-12</wgt>
  <wgt id="31">3.24726e-12</wgt>
  <wgt id="32">3.19438e-12</wgt>
  <wgt id="33">3.23605e-12</wgt>
  <wgt id="34">3.20337e-12</wgt>
  <wgt id="35">3.19539e-12</wgt>
  <wgt id="36">3.25294e-12</wgt>
  <wgt id="37">3.22391e-12</wgt>
  <wgt id="38">3.21509e-12</wgt>
  <wgt id="39">3.30954e-12</wgt>
  <wgt id="40">3.24445e-12</wgt>
  <wgt id="41">3.2306e-12</wgt>
  <wgt id="42">3.23964e-12</wgt>
  <wgt id="43">3.2408e-12</wgt>
  <wgt id="44">3.26352e-12</wgt>
  <wgt id="45">3.24054e-12</wgt>
  <wgt id="46">3.20662e-12</wgt>
  <wgt id="47">3.29884e-12</wgt>
  <wgt id="48">3.27591e-12</wgt>
  <wgt id="49">3.21743e-12</wgt>
  <wgt id="50">3.18635e-12</wgt>
  <wgt id="51">3.20027e-12</wgt>
  <wgt id="52">3.23971e-12</wgt>
  <wgt id="53">3.31995e-12</wgt>
  <wgt id="54">3.26524e-12</wgt>
  <wgt id="55">3.22116e-12</wgt>
  <wgt id="56">3.16823e-12</wgt>
  <wgt id="57">3.17931e-12</wgt>
  <wgt id="58">3.23421e-12</wgt>
  <wgt id="59">3.2523e-12</wgt>
  <wgt id="60">3.1729e-12</wgt>
  <wgt id="61">3.23839e-12</wgt>
  <wgt id="62">3.25689e-12</wgt>
  <wgt id="63">3.22736e-12</wgt>
  <wgt id="64">3.22785e-12</wgt>
  <wgt id="65">3.20329e-12</wgt>
  <wgt id="66">3.26225e-12</wgt>
  <wgt id="67">3.27287e-12</wgt>
  <wgt id="68">3.23251e-12</wgt>
  <wgt id="69">3.22726e-12</wgt>
  <wgt id="70">3.19834e-12</wgt>
  <wgt id="71">3.2587e-12</wgt>
  <wgt id="72">3.24972e-12</wgt>
  <wgt id="73">3.2192e-12</wgt>
  <wgt id="74">3.26202e-12</wgt>
  <wgt id="75">3.19151e-12</wgt>
  <wgt id="76">3.26082e-12</wgt>
  <wgt id="77">3.22293e-12</wgt>
  <wgt id="78">3.23026e-12</wgt>
  <wgt id="79">3.24061e-12</wgt>
  <wgt id="80">3.20721e-12</wgt>
  <wgt id="81">3.22701e-12</wgt>
  <wgt id="82">3.23627e-12</wgt>
  <wgt id="83">3.2021e-12</wgt>
  <wgt id="84">3.20694e-12</wgt>
  <wgt id="85">3.20423e-12</wgt>
  <wgt id="86">3.27182e-12</wgt>
  <wgt id="87">3.17805e-12</wgt>
  <wgt id="88">3.25029e-12</wgt>
  <wgt id="89">3.24756e-12</wgt>
  <wgt id="90">3.2575e-12</wgt>
  <wgt id="91">3.23721e-12</wgt>
  <wgt id="92">3.25181e-12</wgt>
  <wgt id="93">3.23972e-12</wgt>
  <wgt id="94">3.21397e-12</wgt>
  <wgt id="95">3.25526e-12</wgt>
  <wgt id="96">3.25544e-12</wgt>
  <wgt id="97">3.20458e-12</wgt>
  <wgt id="98">3.23564e-12</wgt>
  <wgt id="99">3.22849e-12</wgt>
  <wgt id="100">3.24223e-12</wgt>
  <wgt id="101">3.22044e-12</wgt>
  <wgt id="102">3.22434e-12</wgt>
  <wgt id="103">3.25413e-12</wgt>
  <wgt id="104">3.23024e-12</wgt>
  <wgt id="105">3.2576e-12</wgt>
  <wgt id="106">3.21433e-12</wgt>
  <wgt id="107">3.27045e-12</wgt>
  <wgt id="108">3.22308e-12</wgt>
  <wgt id="109">3.23014e-12</wgt>
  <wgt id="110">3.23611e-12</wgt>
  <wgt id="111">3.19207e-12</wgt>
  <wgt id="112">3.30063e-12</wgt>
  <wgt id="113">4.97557e-12</wgt>
  <wgt id="114">4.11469e-12</wgt>
  <wgt id="115">4.03116e-12</wgt>
  <wgt id="116">5.48982e-12</wgt>
  <wgt id="117">3.5343e-12</wgt>
  <wgt id="118">3.54787e-12</wgt>
  <wgt id="119">3.52648e-12</wgt>
  <wgt id="120">3.53428e-12</wgt>
  <wgt id="121">3.53427e-12</wgt>
  <wgt id="122">3.52928e-12</wgt>
  <wgt id="123">3.54127e-12</wgt>
  <wgt id="124">3.52989e-12</wgt>
  <wgt id="125">3.53703e-12</wgt>
  <wgt id="126">3.53804e-12</wgt>
  <wgt id="127">3.53178e-12</wgt>
  <wgt id="128">3.54468e-12</wgt>
  <wgt id="129">3.52392e-12</wgt>
  <wgt id="130">3.54844e-12</wgt>
  <wgt id="131">3.51932e-12</wgt>
  <wgt id="132">3.43044e-12</wgt>
  <wgt id="133">3.65866e-12</wgt>
  <wgt id="134">3.49714e-12</wgt>
  <wgt id="135">3.56348e-12</wgt>
  <wgt id="136">3.59764e-12</wgt>
  <wgt id="137">3.45857e-12</wgt>
  <wgt id="138">3.71969e-12</wgt>
  <wgt id="139">3.36149e-12</wgt>
  <wgt id="140">3.52414e-12</wgt>
  <wgt id="141">3.54121e-12</wgt>
  <wgt id="142">3.5323e-12</wgt>
  <wgt id="143">3.54987e-12</wgt>
  <wgt id="144">3.34263e-12</wgt>
  <wgt id="145">3.72812e-12</wgt>
  <wgt id="146">3.59874e-12</wgt>
  <wgt id="147">3.48054e-12</wgt>
  <wgt id="148">3.5482e-12</wgt>
  <wgt id="149">3.53328e-12</wgt>
  <wgt id="150">3.56302e-12</wgt>
  <wgt id="151">3.5208e-12</wgt>
  <wgt id="152">3.53441e-12</wgt>
  <wgt id="153">3.53417e-12</wgt>
  <wgt id="154">3.52174e-12</wgt>
  <wgt id="155">3.53611e-12</wgt>
  <wgt id="156">3.70585e-12</wgt>
  <wgt id="157">3.38972e-12</wgt>
  <wgt id="158">4.20649e-12</wgt>
  <wgt id="159">4.22505e-12</wgt>
  <wgt id="160">4.19177e-12</wgt>
  <wgt id="161">4.19582e-12</wgt>
  <wgt id="162">4.21865e-12</wgt>
  <wgt id="163">4.20181e-12</wgt>
  <wgt id="164">4.2137e-12</wgt>
  <wgt id="165">4.20814e-12</wgt>
  <wgt id="166">4.20558e-12</wgt>
  <wgt id="167">4.20396e-12</wgt>
  <wgt id="168">4.2105e-12</wgt>
  <wgt id="169">4.19014e-12</wgt>
  <wgt id="170">4.21691e-12</wgt>
  <wgt id="171">4.20509e-12</wgt>
  <wgt id="172">4.20873e-12</wgt>
  <wgt id="173">4.19216e-12</wgt>
  <wgt id="174">4.21196e-12</wgt>
  <wgt id="175">4.07983e-12</wgt>
  <wgt id="176">4.37337e-12</wgt>
  <wgt id="177">4.22179e-12</wgt>
  <wgt id="178">4.1931e-12</wgt>
  <wgt id="179">4.46006e-12</wgt>
  <wgt id="180">3.82513e-12</wgt>
  <wgt id="181">4.04829e-12</wgt>
  <wgt id="182">4.3133e-12</wgt>
  <wgt id="183">4.1107e-12</wgt>
  <wgt id="184">4.25434e-12</wgt>
  <wgt id="185">4.14921e-12</wgt>
  <wgt id="186">4.27591e-12</wgt>
  <wgt id="187">4.14872e-12</wgt>
  <wgt id="188">4.3076e-12</wgt>
  <wgt id="189">4.16828e-12</wgt>
  <wgt id="190">4.22236e-12</wgt>
  <wgt id="191">4.22531e-12</wgt>
  <wgt id="192">4.19537e-12</wgt>
  <wgt id="193">4.28754e-12</wgt>
  <wgt id="194">4.16535e-12</wgt>
  <wgt id="195">4.00594e-12</wgt>
  <wgt id="196">4.5233e-12</wgt>
  <wgt id="197">4.22994e-12</wgt>
  <wgt id="198">4.20103e-12</wgt>
  <wgt id="199">4.20649e-12</wgt>
  <wgt id="200">4.252e-12</wgt>
  <wgt id="201">4.23758e-12</wgt>
  <wgt id="202">4.22322e-12</wgt>
  <wgt id="203">4.2043e-12</wgt>
  <wgt id="204">4.19367e-12</wgt>
  <wgt id="205">4.18516e-12</wgt>
  <wgt id="206">4.15151e-12</wgt>
  <wgt id="207">4.17678e-12</wgt>
  <wgt id="208">4.12625e-12</wgt>
  <wgt id="209">4.16323e-12</wgt>
  <wgt id="210">4.1429e-12</wgt>
  <wgt id="211">4.1501e-12</wgt>
  <wgt id="212">4.15249e-12</wgt>
  <wgt id="213">4.15095e-12</wgt>
  <wgt id="214">4.1518e-12</wgt>
  <wgt id="215">4.15446e-12</wgt>
  <wgt id="216">4.14946e-12</wgt>
  <wgt id="217">4.15838e-12</wgt>
  <wgt id="218">4.14572e-12</wgt>
  <wgt id="219">4.14527e-12</wgt>
  <wgt id="220">4.15531e-12</wgt>
  <wgt id="221">4.15587e-12</wgt>
  <wgt id="222">4.13891e-12</wgt>
  <wgt id="223">3.89392e-12</wgt>
  <wgt id="224">4.38881e-12</wgt>
  <wgt id="225">4.09868e-12</wgt>
  <wgt id="226">4.21896e-12</wgt>
  <wgt id="227">4.11069e-12</wgt>
  <wgt id="228">4.16944e-12</wgt>
  <wgt id="229">4.08866e-12</wgt>
  <wgt id="230">4.18242e-12</wgt>
  <wgt id="231">4.31712e-12</wgt>
  <wgt id="232">4.01681e-12</wgt>
  <wgt id="233">4.11833e-12</wgt>
  <wgt id="234">4.20812e-12</wgt>
  <wgt id="235">3.89179e-12</wgt>
  <wgt id="236">4.3587e-12</wgt>
  <wgt id="237">4.00786e-12</wgt>
  <wgt id="238">4.19917e-12</wgt>
  <wgt id="239">4.09504e-12</wgt>
  <wgt id="240">4.25259e-12</wgt>
  <wgt id="241">4.0912e-12</wgt>
  <wgt id="242">4.22108e-12</wgt>
  <wgt id="243">4.24797e-12</wgt>
  <wgt id="244">4.13218e-12</wgt>
  <wgt id="245">4.15134e-12</wgt>
  <wgt id="246">4.16692e-12</wgt>
  <wgt id="247">4.15151e-12</wgt>
  <wgt id="248">4.20384e-12</wgt>
  <wgt id="249">4.18712e-12</wgt>
  <wgt id="250">4.16711e-12</wgt>
  <wgt id="251">4.1434e-12</wgt>
  <wgt id="252">4.1297e-12</wgt>
  <wgt id="253">4.12112e-12</wgt>
  <wgt id="254">3.94701e-12</wgt>
  <wgt id="255">3.95011e-12</wgt>
  <wgt id="256">3.94338e-12</wgt>
  <wgt id="257">3.95002e-12</wgt>
  <wgt id="258">3.94449e-12</wgt>
  <wgt id="259">3.97343e-12</wgt>
  <wgt id="260">3.9213e-12</wgt>
  <wgt id="261">3.95356e-12</wgt>
  <wgt id="262">3.93918e-12</wgt>
  <wgt id="263">3.94305e-12</wgt>
  <wgt id="264">3.95114e-12</wgt>
  <wgt id="265">3.94207e-12</wgt>
  <wgt id="266">3.95662e-12</wgt>
  <wgt id="267">3.94832e-12</wgt>
  <wgt id="268">3.94525e-12</wgt>
  <wgt id="269">3.9584e-12</wgt>
  <wgt id="270">3.93905e-12</wgt>
  <wgt id="271">3.93211e-12</wgt>
  <wgt id="272">3.96368e-12</wgt>
  <wgt id="273">3.9379e-12</wgt>
  <wgt id="274">3.95373e-12</wgt>
  <wgt id="275">3.91544e-12</wgt>
  <wgt id="276">3.97966e-12</wgt>
  <wgt id="277">3.92524e-12</wgt>
  <wgt id="278">3.96683e-12</wgt>
  <wgt id="279">3.87397e-12</wgt>
  <wgt id="280">4.03914e-12</wgt>
  <wgt id="281">3.92402e-12</wgt>
  <wgt id="282">3.96108e-12</wgt>
  <wgt id="283">3.79887e-12</wgt>
  <wgt id="284">4.13451e-12</wgt>
  <wgt id="285">3.70362e-12</wgt>
  <wgt id="286">4.15737e-12</wgt>
  <wgt id="287">3.96247e-12</wgt>
  <wgt id="288">3.9269e-12</wgt>
  <wgt id="289">3.98358e-12</wgt>
  <wgt id="290">3.86934e-12</wgt>
  <wgt id="291">3.92898e-12</wgt>
  <wgt id="292">3.94238e-12</wgt>
  <wgt id="293">3.90727e-12</wgt>
  <wgt id="294">3.98657e-12</wgt>
  <wgt id="295">3.85046e-12</wgt>
  <wgt id="296">4.06508e-12</wgt>
  <wgt id="297">3.92613e-12</wgt>
  <wgt id="298">3.97264e-12</wgt>
  <wgt id="299">3.9324e-12</wgt>
  <wgt id="300">3.98542e-12</wgt>
  <wgt id="301">3.83644e-12</wgt>
  <wgt id="302">4.19018e-12</wgt>
  <wgt id="303">3.8869e-12</wgt>
  <wgt id="304">3.97997e-12</wgt>
  <wgt id="305">3.86091e-12</wgt>
  <wgt id="306">3.86426e-12</wgt>
  <wgt id="307">3.85735e-12</wgt>
  <wgt id="308">3.86439e-12</wgt>
  <wgt id="309">3.85896e-12</wgt>
  <wgt id="310">3.88757e-12</wgt>
  <wgt id="311">3.83668e-12</wgt>
  <wgt id="312">3.86754e-12</wgt>
  <wgt id="313">3.85406e-12</wgt>
  <wgt id="314">3.857e-12</wgt>
  <wgt id="315">3.86496e-12</wgt>
  <wgt id="316">3.85603e-12</wgt>
  <wgt id="317">3.87212e-12</wgt>
  <wgt id="318">3.86394e-12</wgt>
  <wgt id="319">3.85581e-12</wgt>
  <wgt id="320">3.87365e-12</wgt>
  <wgt id="321">3.8543e-12</wgt>
  <wgt id="322">3.84623e-12</wgt>
  <wgt id="323">3.87843e-12</wgt>
  <wgt id="324">3.85582e-12</wgt>
  <wgt id="325">3.86558e-12</wgt>
  <wgt id="326">3.83477e-12</wgt>
  <wgt id="327">3.89483e-12</wgt>
  <wgt id="328">3.8431e-12</wgt>
  <wgt id="329">3.87054e-12</wgt>
  <wgt id="330">3.96966e-12</wgt>
  <wgt id="331">3.75826e-12</wgt>
  <wgt id="332">3.84191e-12</wgt>
  <wgt id="333">3.87117e-12</wgt>
  <wgt id="334">3.75213e-12</wgt>
  <wgt id="335">3.9992e-12</wgt>
  <wgt id="336">3.69342e-12</wgt>
  <wgt id="337">4.07272e-12</wgt>
  <wgt id="338">3.91446e-12</wgt>
  <wgt id="339">3.8126e-12</wgt>
  <wgt id="340">3.89238e-12</wgt>
  <wgt id="341">3.78665e-12</wgt>
  <wgt id="342">3.84959e-12</wgt>
  <wgt id="343">3.84649e-12</wgt>
  <wgt id="344">3.82763e-12</wgt>
  <wgt id="345">3.89999e-12</wgt>
  <wgt id="346">3.76518e-12</wgt>
  <wgt id="347">3.97043e-12</wgt>
  <wgt id="348">3.84049e-12</wgt>
  <wgt id="349">3.88515e-12</wgt>
  <wgt id="350">3.84363e-12</wgt>
  <wgt id="351">3.90571e-12</wgt>
  <wgt id="352">3.75496e-12</wgt>
  <wgt id="353">4.08467e-12</wgt>
  <wgt id="354">3.78063e-12</wgt>
  <wgt id="355">3.90767e-12</wgt>
  <wgt id="356">3.94701e-12</wgt>
  <wgt id="357">3.85048e-12</wgt>
  <wgt id="358">3.86091e-12</wgt>
  <wgt id="359">3.92996e-12</wgt>
  <wgt id="360">4.06251e-12</wgt>
  <wgt id="361">3.9762e-12</wgt>
  <wgt id="362">4.06957e-12</wgt>
  <wgt id="363">4.05781e-12</wgt>
  <wgt id="364">4.03085e-12</wgt>
  <wgt id="365">4.01331e-12</wgt>
  <wgt id="366">3.99656e-12</wgt>
  <wgt id="367">3.96702e-12</wgt>
  <wgt id="368">3.94567e-12</wgt>
  <wgt id="369">3.92245e-12</wgt>
  <wgt id="370">3.9762e-12</wgt>
  <wgt id="371">3.99106e-12</wgt>
  <wgt id="372">3.98241e-12</wgt>
  <wgt id="373">3.97107e-12</wgt>
  <wgt id="374">3.9827e-12</wgt>
  <wgt id="375">4.93897e-12</wgt>
  <wgt id="376">4.93889e-12</wgt>
  <wgt id="377">4.93911e-12</wgt>
  <wgt id="378">4.95905e-12</wgt>
  <wgt id="379">4.91918e-12</wgt>
  <wgt id="380">4.95395e-12</wgt>
  <wgt id="381">4.93288e-12</wgt>
  <wgt id="382">4.95846e-12</wgt>
  <wgt id="383">4.91977e-12</wgt>
  <wgt id="384">4.94232e-12</wgt>
  <wgt id="385">4.93589e-12</wgt>
  <wgt id="386">4.94964e-12</wgt>
  <wgt id="387">4.93443e-12</wgt>
  <wgt id="388">4.93525e-12</wgt>
  <wgt id="389">4.94338e-12</wgt>
  <wgt id="390">4.94755e-12</wgt>
  <wgt id="391">4.93009e-12</wgt>
  <wgt id="392">4.88909e-12</wgt>
  <wgt id="393">4.9672e-12</wgt>
  <wgt id="394">4.93915e-12</wgt>
  <wgt id="395">4.9388e-12</wgt>
  <wgt id="396">4.9519e-12</wgt>
  <wgt id="397">4.92988e-12</wgt>
  <wgt id="398">4.94069e-12</wgt>
  <wgt id="399">4.93733e-12</wgt>
  <wgt id="400">4.931e-12</wgt>
  <wgt id="401">4.95664e-12</wgt>
  <wgt id="402">4.88262e-12</wgt>
  <wgt id="403">4.98516e-12</wgt>
  <wgt id="404">5.12039e-12</wgt>
  <wgt id="405">4.51394e-12</wgt>
  <wgt id="406">4.80752e-12</wgt>
  <wgt id="407">5.23612e-12</wgt>
  <wgt id="408">5.00769e-12</wgt>
  <wgt id="409">4.81456e-12</wgt>
  <wgt id="410">4.72882e-12</wgt>
  <wgt id="411">5.04278e-12</wgt>
  <wgt id="412">4.92464e-12</wgt>
  <wgt id="413">4.95866e-12</wgt>
  <wgt id="414">4.85609e-12</wgt>
  <wgt id="415">5.0034e-12</wgt>
  <wgt id="416">5.15994e-12</wgt>
  <wgt id="417">4.63954e-12</wgt>
  <wgt id="418">4.95294e-12</wgt>
  <wgt id="419">4.86346e-12</wgt>
  <wgt id="420">5.12136e-12</wgt>
  <wgt id="421">4.81093e-12</wgt>
  <wgt id="422">4.87917e-12</wgt>
  <wgt id="423">4.96552e-12</wgt>
  <wgt id="424">5.15147e-12</wgt>
  <wgt id="425">4.78991e-12</wgt>
  <wgt id="426">4.93897e-12</wgt>
  <wgt id="427">4.77162e-12</wgt>
  <wgt id="428">5.29016e-12</wgt>
  <wgt id="429">5.03607e-12</wgt>
  <wgt id="430">5.24319e-12</wgt>
  <wgt id="431">5.19936e-12</wgt>
  <wgt id="432">5.16209e-12</wgt>
  <wgt id="433">5.12494e-12</wgt>
  <wgt id="434">5.07575e-12</wgt>
  <wgt id="435">4.9868e-12</wgt>
  <wgt id="436">4.94317e-12</wgt>
  <wgt id="437">4.89911e-12</wgt>
  <wgt id="438">5.03607e-12</wgt>
  <wgt id="439">5.05025e-12</wgt>
  <wgt id="440">5.04049e-12</wgt>
  <wgt id="441">5.03357e-12</wgt>
  <wgt id="442">5.03185e-12</wgt>
  <wgt id="443">4.12178e-12</wgt>
  <wgt id="444">4.1859e-12</wgt>
  <wgt id="445">4.21905e-12</wgt>
  <wgt id="446">4.09386e-12</wgt>
  <wgt id="447">4.12114e-12</wgt>
  <wgt id="448">4.03374e-12</wgt>
  <wgt id="449">4.2456e-12</wgt>
  <wgt id="450">4.2239e-12</wgt>
  <wgt id="451">4.10831e-12</wgt>
  <wgt id="452">4.20776e-12</wgt>
  <wgt id="453">4.21107e-12</wgt>
  <wgt id="454">3.85621e-12</wgt>
  <wgt id="455">4.18545e-12</wgt>
  <wgt id="456">4.26096e-12</wgt>
  <wgt id="457">4.13364e-12</wgt>
  <wgt id="458">4.2163e-12</wgt>
  <wgt id="459">4.16108e-12</wgt>
  <wgt id="460">4.26664e-12</wgt>
  <wgt id="461">3.99856e-12</wgt>
  <wgt id="462">4.09008e-12</wgt>
  <wgt id="463">4.03877e-12</wgt>
  <wgt id="464">4.10449e-12</wgt>
  <wgt id="465">4.1641e-12</wgt>
  <wgt id="466">3.95345e-12</wgt>
  <wgt id="467">4.0991e-12</wgt>
  <wgt id="468">4.13197e-12</wgt>
  <wgt id="469">4.10546e-12</wgt>
  <wgt id="470">4.02968e-12</wgt>
  <wgt id="471">4.04834e-12</wgt>
  <wgt id="472">4.16215e-12</wgt>
  <wgt id="473">3.9689e-12</wgt>
  <wgt id="474">3.0282e-12</wgt>
  <wgt id="475">3.05993e-12</wgt>
  <wgt id="476">3.09128e-12</wgt>
  <wgt id="477">3.21671e-12</wgt>
  <wgt id="478">3.1815e-12</wgt>
  <wgt id="479">2.69649e-12</wgt>
  <wgt id="480">3.29434e-12</wgt>
  <wgt id="481">3.0906e-12</wgt>
  <wgt id="482">3.18831e-12</wgt>
  <wgt id="483">3.3401e-12</wgt>
  <wgt id="484">3.23254e-12</wgt>
  <wgt id="485">2.65729e-12</wgt>
  <wgt id="486">3.19843e-12</wgt>
  <wgt id="487">2.83997e-12</wgt>
  <wgt id="488">2.94441e-12</wgt>
  <wgt id="489">2.46032e-12</wgt>
  <wgt id="490">3.07907e-12</wgt>
  <wgt id="491">2.95979e-12</wgt>
  <wgt id="492">2.98304e-12</wgt>
  <wgt id="493">2.59006e-12</wgt>
  <wgt id="494">2.5703e-12</wgt>
  <wgt id="495">3.15593e-12</wgt>
  <wgt id="496">2.69827e-12</wgt>
  <wgt id="497">2.75856e-12</wgt>
  <wgt id="498">3.09293e-12</wgt>
  <wgt id="499">3.13312e-12</wgt>
  <wgt id="500">3.18326e-12</wgt>
  <wgt id="501">3.22833e-12</wgt>
  <wgt id="502">3.42892e-12</wgt>
  <wgt id="503">2.91556e-12</wgt>
  <wgt id="504">3.16384e-12</wgt>
  <wgt id="505">3.30352e-12</wgt>
  <wgt id="506">2.54264e-12</wgt>
  <wgt id="507">2.78738e-12</wgt>
  <wgt id="508">3.23643e-12</wgt>
  <wgt id="509">3.04481e-12</wgt>
  <wgt id="510">2.9539e-12</wgt>
  <wgt id="511">2.82498e-12</wgt>
  <wgt id="512">3.37905e-12</wgt>
  <wgt id="513">3.31572e-12</wgt>
  <wgt id="514">3.43103e-12</wgt>
  <wgt id="515">3.36412e-12</wgt>
  <wgt id="516">3.53786e-12</wgt>
  <wgt id="517">3.10499e-12</wgt>
  <wgt id="518">3.28198e-12</wgt>
  <wgt id="519">2.93001e-12</wgt>
  <wgt id="520">2.91928e-12</wgt>
  <wgt id="521">2.7837e-12</wgt>
  <wgt id="522">3.06122e-12</wgt>
  <wgt id="523">2.87575e-12</wgt>
  <wgt id="524">3.21788e-12</wgt>
  <wgt id="525">2.86845e-12</wgt>
  <wgt id="526">3.36609e-12</wgt>
  <wgt id="527">2.97867e-12</wgt>
  <wgt id="528">2.88898e-12</wgt>
  <wgt id="529">2.60926e-12</wgt>
  <wgt id="530">3.30704e-12</wgt>
  <wgt id="531">2.82828e-12</wgt>
  <wgt id="532">3.31118e-12</wgt>
  <wgt id="533">3.18945e-12</wgt>
  <wgt id="534">2.72594e-12</wgt>
  <wgt id="535">3.21268e-12</wgt>
  <wgt id="536">3.2713e-12</wgt>
  <wgt id="537">2.68725e-12</wgt>
  <wgt id="538">2.96746e-12</wgt>
  <wgt id="539">2.95425e-12</wgt>
  <wgt id="540">3.0264e-12</wgt>
  <wgt id="541">3.00647e-12</wgt>
  <wgt id="542">2.80743e-12</wgt>
  <wgt id="543">2.76294e-12</wgt>
  <wgt id="544">2.98046e-12</wgt>
  <wgt id="545">2.72524e-12</wgt>
  <wgt id="546">2.65559e-12</wgt>
  <wgt id="547">2.81676e-12</wgt>
  <wgt id="548">3.06999e-12</wgt>
  <wgt id="549">2.96974e-12</wgt>
  <wgt id="550">2.65745e-12</wgt>
  <wgt id="551">2.91285e-12</wgt>
  <wgt id="552">2.9453e-12</wgt>
  <wgt id="553">2.62046e-12</wgt>
  <wgt id="554">3.09276e-12</wgt>
  <wgt id="555">3.05029e-12</wgt>
  <wgt id="556">3.07907e-12</wgt>
  <wgt id="557">2.96899e-12</wgt>
  <wgt id="558">3.03043e-12</wgt>
  <wgt id="559">3.18525e-12</wgt>
  <wgt id="560">3.33016e-12</wgt>
  <wgt id="561">3.34461e-12</wgt>
  <wgt id="562">3.1816e-12</wgt>
  <wgt id="563">3.29006e-12</wgt>
  <wgt id="564">3.34888e-12</wgt>
  <wgt id="565">3.45092e-12</wgt>
  <wgt id="566">2.65362e-12</wgt>
  <wgt id="567">3.12903e-12</wgt>
  <wgt id="568">2.7235e-12</wgt>
  <wgt id="569">3.1071e-12</wgt>
  <wgt id="570">3.27656e-12</wgt>
  <wgt id="571">3.42126e-12</wgt>
  <wgt id="572">2.78247e-12</wgt>
  <wgt id="573">2.9514e-12</wgt>
  <wgt id="574">3.02464e-12</wgt>
  <wgt id="575">3.30139e-12</wgt>
  <wgt id="576">3.81241e-12</wgt>
  <wgt id="577">3.29509e-12</wgt>
  <wgt id="578">3.09866e-12</wgt>
  <wgt id="579">3.44404e-12</wgt>
  <wgt id="580">3.42089e-12</wgt>
  <wgt id="581">3.66194e-12</wgt>
  <wgt id="582">3.66739e-12</wgt>
  <wgt id="583">3.5303e-12</wgt>
  <wgt id="584">3.30048e-12</wgt>
  <wgt id="585">2.91635e-12</wgt>
  <wgt id="586">3.03496e-12</wgt>
  <wgt id="587">3.39124e-12</wgt>
  <wgt id="588">4.06415e-12</wgt>
  <wgt id="589">3.8996e-12</wgt>
  <wgt id="590">3.38656e-12</wgt>
  <wgt id="591">3.42166e-12</wgt>
  <wgt id="592">3.20354e-12</wgt>
  <wgt id="593">3.14225e-12</wgt>
  <wgt id="594">3.02441e-12</wgt>
  <wgt id="595">3.76436e-12</wgt>
  <wgt id="596">3.82206e-12</wgt>
  <wgt id="597">3.39347e-12</wgt>
  <wgt id="598">3.57805e-12</wgt>
  <wgt id="599">3.6931e-12</wgt>
  <wgt id="600">3.97074e-12</wgt>
  <wgt id="601">3.1222e-12</wgt>
  <wgt id="602">3.02846e-12</wgt>
  <wgt id="603">2.88435e-12</wgt>
  <wgt id="604">3.54453e-12</wgt>
  <wgt id="605">3.1873e-12</wgt>
  <wgt id="606">3.19106e-12</wgt>
  <wgt id="607">3.65248e-12</wgt>
  <wgt id="608">3.41624e-12</wgt>
  <wgt id="609">3.1868e-12</wgt>
  <wgt id="610">3.02655e-12</wgt>
  <wgt id="611">2.98652e-12</wgt>
  <wgt id="612">3.24681e-12</wgt>
  <wgt id="613">3.01766e-12</wgt>
  <wgt id="614">3.34026e-12</wgt>
  <wgt id="615">3.57483e-12</wgt>
  <wgt id="616">2.79479e-12</wgt>
  <wgt id="617">3.48978e-12</wgt>
  <wgt id="618">3.70232e-12</wgt>
  <wgt id="619">3.23446e-12</wgt>
  <wgt id="620">3.35262e-12</wgt>
  <wgt id="621">3.25315e-12</wgt>
  <wgt id="622">3.39124e-12</wgt>
  <wgt id="623">3.22254e-12</wgt>
  <wgt id="624">3.23995e-12</wgt>
  <wgt id="625">3.06938e-12</wgt>
  <wgt id="626">2.41345e-12</wgt>
  <wgt id="627">2.79417e-12</wgt>
  <wgt id="628">3.2748e-12</wgt>
  <wgt id="629">3.97849e-12</wgt>
  <wgt id="630">3.29165e-12</wgt>
  <wgt id="631">3.58303e-12</wgt>
  <wgt id="632">2.94374e-12</wgt>
  <wgt id="633">3.27075e-12</wgt>
  <wgt id="634">3.02225e-12</wgt>
  <wgt id="635">3.04885e-12</wgt>
  <wgt id="636">3.20136e-12</wgt>
  <wgt id="637">3.40611e-12</wgt>
  <wgt id="638">3.06003e-12</wgt>
  <wgt id="639">2.98898e-12</wgt>
  <wgt id="640">3.04917e-12</wgt>
  <wgt id="641">3.58818e-12</wgt>
  <wgt id="642">2.69344e-12</wgt>
  <wgt id="643">3.13508e-12</wgt>
  <wgt id="644">3.01677e-12</wgt>
  <wgt id="645">3.34616e-12</wgt>
  <wgt id="646">2.68375e-12</wgt>
  <wgt id="647">3.57232e-12</wgt>
  <wgt id="648">3.66282e-12</wgt>
  <wgt id="649">3.38997e-12</wgt>
  <wgt id="650">3.2939e-12</wgt>
  <wgt id="651">3.50019e-12</wgt>
  <wgt id="652">3.05799e-12</wgt>
  <wgt id="653">3.11392e-12</wgt>
  <wgt id="654">3.28819e-12</wgt>
  <wgt id="655">2.93837e-12</wgt>
  <wgt id="656">3.40547e-12</wgt>
  <wgt id="657">3.74595e-12</wgt>
  <wgt id="658">3.16883e-12</wgt>
  <wgt id="659">3.20598e-12</wgt>
  <wgt id="660">2.95513e-12</wgt>
  <wgt id="661">3.13206e-12</wgt>
  <wgt id="662">3.28608e-12</wgt>
  <wgt id="663">3.47155e-12</wgt>
  <wgt id="664">3.54722e-12</wgt>
  <wgt id="665">3.15576e-12</wgt>
  <wgt id="666">3.16525e-12</wgt>
  <wgt id="667">3.50818e-12</wgt>
  <wgt id="668">3.19602e-12</wgt>
  <wgt id="669">3.15121e-12</wgt>
  <wgt id="670">3.57474e-12</wgt>
  <wgt id="671">3.42279e-12</wgt>
  <wgt id="672">3.50575e-12</wgt>
  <wgt id="673">3.75386e-12</wgt>
  <wgt id="674">3.12613e-12</wgt>
  <wgt id="675">3.02911e-12</wgt>
  <wgt id="676">4.38954e-12</wgt>
  <wgt id="677">4.37387e-12</wgt>
  <wgt id="678">5.09919e-12</wgt>
  <wgt id="679">5.06069e-12</wgt>
  <wgt id="680">4.50506e-12</wgt>
  <wgt id="681">4.14383e-12</wgt>
  <wgt id="682">4.76164e-12</wgt>
  <wgt id="683">3.72213e-12</wgt>
  <wgt id="684">4.86709e-12</wgt>
  <wgt id="685">4.5597e-12</wgt>
  <wgt id="686">4.74937e-12</wgt>
  <wgt id="687">4.35501e-12</wgt>
  <wgt id="688">4.28501e-12</wgt>
  <wgt id="689">4.84896e-12</wgt>
  <wgt id="690">4.60455e-12</wgt>
  <wgt id="691">4.53855e-12</wgt>
  <wgt id="692">4.15206e-12</wgt>
  <wgt id="693">6.82001e-12</wgt>
  <wgt id="694">5.12684e-12</wgt>
  <wgt id="695">3.78658e-12</wgt>
  <wgt id="696">3.9271e-12</wgt>
  <wgt id="697">3.5221e-12</wgt>
  <wgt id="698">3.13493e-12</wgt>
  <wgt id="699">3.5653e-12</wgt>
  <wgt id="700">3.76295e-12</wgt>
  <wgt id="701">4.41218e-12</wgt>
  <wgt id="702">3.97217e-12</wgt>
  <wgt id="703">6.21626e-12</wgt>
  <wgt id="704">5.11679e-12</wgt>
  <wgt id="705">4.98339e-12</wgt>
  <wgt id="706">3.77184e-12</wgt>
  <wgt id="707">3.93333e-12</wgt>
  <wgt id="708">3.88018e-12</wgt>
  <wgt id="709">4.06539e-12</wgt>
  <wgt id="710">2.80198e-12</wgt>
  <wgt id="711">5.07367e-12</wgt>
  <wgt id="712">3.99861e-12</wgt>
  <wgt id="713">4.76127e-12</wgt>
  <wgt id="714">3.53776e-12</wgt>
  <wgt id="715">3.92704e-12</wgt>
  <wgt id="716">4.11045e-12</wgt>
  <wgt id="717">3.32477e-12</wgt>
  <wgt id="718">4.49711e-12</wgt>
  <wgt id="719">4.06536e-12</wgt>
  <wgt id="720">4.76403e-12</wgt>
  <wgt id="721">3.58109e-12</wgt>
  <wgt id="722">2.70716e-12</wgt>
  <wgt id="723">5.42494e-12</wgt>
  <wgt id="724">4.98461e-12</wgt>
  <wgt id="725">4.6945e-12</wgt>
  <wgt id="726">4.32062e-12</wgt>
  <wgt id="727">4.54085e-12</wgt>
  <wgt id="728">4.70984e-12</wgt>
  <wgt id="729">3.37144e-12</wgt>
  <wgt id="730">5.17437e-12</wgt>
  <wgt id="731">4.37196e-12</wgt>
  <wgt id="732">5.39182e-12</wgt>
  <wgt id="733">3.85418e-12</wgt>
  <wgt id="734">4.62948e-12</wgt>
  <wgt id="735">4.11691e-12</wgt>
  <wgt id="736">3.8139e-12</wgt>
  <wgt id="737">3.16749e-12</wgt>
  <wgt id="738">4.06216e-12</wgt>
  <wgt id="739">4.43603e-12</wgt>
  <wgt id="740">5.77415e-12</wgt>
  <wgt id="741">5.14692e-12</wgt>
  <wgt id="742">3.67496e-12</wgt>
  <wgt id="743">3.88564e-12</wgt>
  <wgt id="744">4.1479e-12</wgt>
  <wgt id="745">5.20138e-12</wgt>
  <wgt id="746">5.38983e-12</wgt>
  <wgt id="747">3.36514e-12</wgt>
  <wgt id="748">4.07913e-12</wgt>
  <wgt id="749">4.76316e-12</wgt>
  <wgt id="750">4.93123e-12</wgt>
  <wgt id="751">4.50158e-12</wgt>
  <wgt id="752">3.77875e-12</wgt>
  <wgt id="753">3.67704e-12</wgt>
  <wgt id="754">4.60347e-12</wgt>
  <wgt id="755">4.09703e-12</wgt>
  <wgt id="756">4.0857e-12</wgt>
  <wgt id="757">3.49923e-12</wgt>
  <wgt id="758">4.23396e-12</wgt>
  <wgt id="759">4.77386e-12</wgt>
  <wgt id="760">3.89857e-12</wgt>
  <wgt id="761">5.27849e-12</wgt>
  <wgt id="762">5.33938e-12</wgt>
  <wgt id="763">5.01847e-12</wgt>
  <wgt id="764">5.02427e-12</wgt>
  <wgt id="765">4.57187e-12</wgt>
  <wgt id="766">4.66414e-12</wgt>
  <wgt id="767">4.60567e-12</wgt>
  <wgt id="768">3.76864e-12</wgt>
  <wgt id="769">4.54973e-12</wgt>
  <wgt id="770">3.5374e-12</wgt>
  <wgt id="771">5.94666e-12</wgt>
  <wgt id="772">4.15268e-12</wgt>
  <wgt id="773">4.61935e-12</wgt>
  <wgt id="774">3.22365e-12</wgt>
  <wgt id="775">4.71633e-12</wgt>
  <wgt id="776">5.90664e-12</wgt>
  <wgt id="777">3.24784e-12</wgt>
  <wgt id="778">2.26106e-12</wgt>
  <wgt id="779">5.17711e-13</wgt>
  <wgt id="780">2.05914e-20</wgt>
  <wgt id="781">2.31099e-12</wgt>
  <wgt id="782">2.8476e-12</wgt>
  <wgt id="783">2.08596e-20</wgt>
  <wgt id="784">5.22213e-13</wgt>
  <wgt id="785">4.22773e-12</wgt>
  <wgt id="786">2.0429e-20</wgt>
  <wgt id="787">3.71246e-12</wgt>
  <wgt id="788">1.99679e-20</wgt>
  <wgt id="789">3.90773e-13</wgt>
  <wgt id="790">2.04299e-20</wgt>
  <wgt id="791">2.77614e-12</wgt>
  <wgt id="792">3.2955e-12</wgt>
  <wgt id="793">1.40603e-12</wgt>
  <wgt id="794">2.05095e-20</wgt>
  <wgt id="795">4.07726e-12</wgt>
  <wgt id="796">4.13922e-12</wgt>
  <wgt id="797">3.41099e-12</wgt>
  <wgt id="798">1.0005e-12</wgt>
  <wgt id="799">3.88762e-12</wgt>
  <wgt id="800">1.0432e-12</wgt>
  <wgt id="801">3.1014e-12</wgt>
  <wgt id="802">2.08986e-20</wgt>
  <wgt id="803">4.20997e-12</wgt>
  <wgt id="804">4.2176e-12</wgt>
  <wgt id="805">3.979e-12</wgt>
  <wgt id="806">2.98149e-12</wgt>
  <wgt id="807">2.32901e-12</wgt>
  <wgt id="808">2.50495e-12</wgt>
  <wgt id="809">1.67396e-12</wgt>
  <wgt id="810">4.71911e-12</wgt>
  <wgt id="811">2.60788e-12</wgt>
  <wgt id="812">2.08213e-20</wgt>
  <wgt id="813">2.04688e-20</wgt>
  <wgt id="814">8.96731e-13</wgt>
  <wgt id="815">2.07055e-20</wgt>
  <wgt id="816">2.97063e-13</wgt>
  <wgt id="817">2.60187e-12</wgt>
  <wgt id="818">3.87791e-12</wgt>
  <wgt id="819">4.30058e-13</wgt>
  <wgt id="820">1.77651e-12</wgt>
  <wgt id="821">3.29961e-12</wgt>
  <wgt id="822">1.27041e-12</wgt>
  <wgt id="823">3.80239e-12</wgt>
  <wgt id="824">3.81064e-12</wgt>
  <wgt id="825">2.04511e-20</wgt>
  <wgt id="826">4.02517e-12</wgt>
  <wgt id="827">2.04838e-20</wgt>
  <wgt id="828">3.27921e-12</wgt>
  <wgt id="829">2.48059e-12</wgt>
  <wgt id="830">2.0464e-20</wgt>
  <wgt id="831">3.39992e-12</wgt>
  <wgt id="832">5.43799e-12</wgt>
  <wgt id="833">1.29291e-12</wgt>
  <wgt id="834">5.50877e-12</wgt>
  <wgt id="835">5.72715e-13</wgt>
  <wgt id="836">1.03582e-12</wgt>
  <wgt id="837">3.22672e-12</wgt>
  <wgt id="838">9.60314e-13</wgt>
  <wgt id="839">3.62519e-12</wgt>
  <wgt id="840">1.72242e-12</wgt>
  <wgt id="841">3.93163e-12</wgt>
  <wgt id="842">2.52813e-12</wgt>
  <wgt id="843">2.33148e-12</wgt>
  <wgt id="844">3.146e-12</wgt>
  <wgt id="845">5.71967e-12</wgt>
  <wgt id="846">1.37971e-12</wgt>
  <wgt id="847">2.85849e-12</wgt>
  <wgt id="848">2.1145e-20</wgt>
  <wgt id="849">3.13991e-12</wgt>
  <wgt id="850">4.99288e-12</wgt>
  <wgt id="851">3.34454e-12</wgt>
  <wgt id="852">2.07428e-20</wgt>
  <wgt id="853">3.52584e-12</wgt>
  <wgt id="854">4.4438e-12</wgt>
  <wgt id="855">3.25255e-12</wgt>
  <wgt id="856">2.0421e-20</wgt>
  <wgt id="857">1.24197e-12</wgt>
  <wgt id="858">2.58859e-12</wgt>
  <wgt id="859">2.17681e-12</wgt>
  <wgt id="860">3.12622e-12</wgt>
  <wgt id="861">1.19926e-12</wgt>
  <wgt id="862">2.65951e-12</wgt>
  <wgt id="863">3.29293e-12</wgt>
  <wgt id="864">2.31329e-12</wgt>
  <wgt id="865">5.01452e-12</wgt>
  <wgt id="866">5.32267e-12</wgt>
  <wgt id="867">2.31856e-12</wgt>
  <wgt id="868">2.96369e-12</wgt>
  <wgt id="869">2.05985e-20</wgt>
  <wgt id="870">8.32378e-13</wgt>
  <wgt id="871">1.4046e-12</wgt>
  <wgt id="872">4.87751e-12</wgt>
  <wgt id="873">1.32076e-12</wgt>
  <wgt id="874">3.066e-12</wgt>
  <wgt id="875">8.58423e-13</wgt>
  <wgt id="876">4.41399e-12</wgt>
  <wgt id="877">3.07534e-12</wgt>
  <wgt id="878">1.27315e-12</wgt>
  <wgt id="879">4.38954e-12</wgt>
  <wgt id="880">4.37387e-12</wgt>
  <wgt id="881">5.09919e-12</wgt>
  <wgt id="882">5.06069e-12</wgt>
  <wgt id="883">4.50506e-12</wgt>
  <wgt id="884">4.14383e-12</wgt>
  <wgt id="885">4.76164e-12</wgt>
  <wgt id="886">3.72213e-12</wgt>
  <wgt id="887">4.86709e-12</wgt>
  <wgt id="888">4.5597e-12</wgt>
  <wgt id="889">4.74937e-12</wgt>
  <wgt id="890">4.35501e-12</wgt>
  <wgt id="891">4.28501e-12</wgt>
  <wgt id="892">4.84896e-12</wgt>
  <wgt id="893">4.60455e-12</wgt>
  <wgt id="894">4.53855e-12</wgt>
  <wgt id="895">4.15206e-12</wgt>
  <wgt id="896">6.82001e-12</wgt>
  <wgt id="897">5.12684e-12</wgt>
  <wgt id="898">3.78658e-12</wgt>
  <wgt id="899">3.9271e-12</wgt>
  <wgt id="900">3.5221e-12</wgt>
  <wgt id="901">3.13493e-12</wgt>
  <wgt id="902">3.5653e-12</wgt>
  <wgt id="903">3.76295e-12</wgt>
  <wgt id="904">4.41218e-12</wgt>
  <wgt id="905">3.97217e-12</wgt>
  <wgt id="906">6.21626e-12</wgt>
  <wgt id="907">5.11679e-12</wgt>
  <wgt id="908">4.98339e-12</wgt>
  <wgt id="909">3.77184e-12</wgt>
  <wgt id="910">3.93333e-12</wgt>
  <wgt id="911">3.88018e-12</wgt>
  <wgt id="912">4.06539e-12</wgt>
  <wgt id="913">2.80198e-12</wgt>
  <wgt id="914">5.07367e-12</wgt>
  <wgt id="915">3.99861e-12</wgt>
  <wgt id="916">4.76127e-12</wgt>
  <wgt id="917">3.53776e-12</wgt>
  <wgt id="918">3.92704e-12</wgt>
  <wgt id="919">4.11045e-12</wgt>
  <wgt id="920">3.32477e-12</wgt>
  <wgt id="921">4.49711e-12</wgt>
  <wgt id="922">4.06536e-12</wgt>
  <wgt id="923">4.76403e-12</wgt>
  <wgt id="924">3.58109e-12</wgt>
  <wgt id="925">2.70716e-12</wgt>
  <wgt id="926">5.42494e-12</wgt>
  <wgt id="927">4.98461e-12</wgt>
  <wgt id="928">4.6945e-12</wgt>
  <wgt id="929">4.32062e-12</wgt>
  <wgt id="930">4.54085e-12</wgt>
  <wgt id="931">4.70984e-12</wgt>
  <wgt id="932">3.37144e-12</wgt>
  <wgt id="933">5.17437e-12</wgt>
  <wgt id="934">4.37196e-12</wgt>
  <wgt id="935">5.39182e-12</wgt>
  <wgt id="936">3.85418e-12</wgt>
  <wgt id="937">4.62948e-12</wgt>
  <wgt id="938">4.11691e-12</wgt>
  <wgt id="939">3.8139e-12</wgt>
  <wgt id="940">3.16749e-12</wgt>
  <wgt id="941">4.06216e-12</wgt>
  <wgt id="942">4.43603e-12</wgt>
  <wgt id="943">5.77415e-12</wgt>
  <wgt id="944">5.14692e-12</wgt>
  <wgt id="945">3.67496e-12</wgt>
  <wgt id="946">3.88564e-12</wgt>
  <wgt id="947">4.1479e-12</wgt>
  <wgt id="948">5.20138e-12</wgt>
  <wgt id="949">5.38983e-12</wgt>
  <wgt id="950">3.36514e-12</wgt>
  <wgt id="951">4.07913e-12</wgt>
  <wgt id="952">4.76316e-12</wgt>
  <wgt id="953">4.93123e-12</wgt>
  <wgt id="954">4.50158e-12</wgt>
  <wgt id="955">3.77875e-12</wgt>
  <wgt id="956">3.67704e-12</wgt>
  <wgt id="957">4.60347e-12</wgt>
  <wgt id="958">4.09703e-12</wgt>
  <wgt id="959">4.0857e-12</wgt>
  <wgt id="960">3.49923e-12</wgt>
  <wgt id="961">4.23396e-12</wgt>
  <wgt id="962">4.77386e-12</wgt>
  <wgt id="963">3.89857e-12</wgt>
  <wgt id="964">5.27849e-12</wgt>
  <wgt id="965">5.33938e-12</wgt>
  <wgt id="966">5.01847e-12</wgt>
  <wgt id="967">5.02427e-12</wgt>
  <wgt id="968">4.57187e-12</wgt>
  <wgt id="969">4.66414e-12</wgt>
  <wgt id="970">4.60567e-12</wgt>
  <wgt id="971">3.76864e-12</wgt>
  <wgt id="972">4.54973e-12</wgt>
  <wgt id="973">3.5374e-12</wgt>
  <wgt id="974">5.94666e-12</wgt>
  <wgt id="975">4.15268e-12</wgt>
  <wgt id="976">4.61935e-12</wgt>
  <wgt id="977">3.22365e-12</wgt>
  <wgt id="978">4.71633e-12</wgt>
  <wgt id="979">5.90664e-12</wgt>
  <wgt id="980">4.34381e-12</wgt>
  <wgt id="981">4.63384e-12</wgt>
  <wgt id="982">4.3264e-12</wgt>
</rwgt>
</event>
<event>
 5   1  0.3028200E-11  0.2464347E+04  0.7818608E-02  0.7656036E-01
       21   -1    0    0  502  501  0.00000000000E+00  0.00000000000E+00  0.21145721290E+04  0.21145721290E+04  0.00000000000E+00 0.  1.
       21   -1    0    0  501  502 -0.00000000000E+00 -0.00000000000E+00 -0.71799463962E+03  0.71799463962E+03  0.00000000000E+00 0. -1.
       39    2    1    2    0    0  0.00000000000E+00  0.00000000000E+00  0.13965774894E+04  0.28325667686E+04  0.24643469348E+04 0.  0.
       25    1    3    3    0    0  0.56396947384E+03  0.10879961278E+04  0.73138945673E+03  0.14326034619E+04  0.12500000000E+03 0.  0.
       25    1    3    3    0    0 -0.56396947384E+03 -0.10879961278E+04  0.66518803266E+03  0.13999633068E+04  0.12500000000E+03 0.  0.
<mgrwt>
<rscale>  0 0.24643469E+04</rscale>
<asrwt>0</asrwt>
<pdfrwt beam="1">  1       21 0.32531879E+00 0.24643469E+04</pdfrwt>
<pdfrwt beam="2">  1       21 0.11046071E+00 0.24643469E+04</pdfrwt>
<totfact> 0.51097843E+00</totfact>
</mgrwt>
<rwgt>
  <wgt id="1">3.0282e-12</wgt>
  <wgt id="2">2.60783e-12</wgt>
  <wgt id="3">3.55644e-12</wgt>
  <wgt id="4">3.0282e-12</wgt>
  <wgt id="5">2.60783e-12</wgt>
  <wgt id="6">3.55644e-12</wgt>
  <wgt id="7">3.0282e-12</wgt>
  <wgt id="8">2.60783e-12</wgt>
  <wgt id="9">3.55644e-12</wgt>
  <wgt id="10">3.2004e-12</wgt>
  <wgt id="11">3.1994e-12</wgt>
  <wgt id="12">3.19231e-12</wgt>
  <wgt id="13">3.19362e-12</wgt>
  <wgt id="14">3.21062e-12</wgt>
  <wgt id="15">3.20565e-12</wgt>
  <wgt id="16">3.19215e-12</wgt>
  <wgt id="17">3.2181e-12</wgt>
  <wgt id="18">3.19762e-12</wgt>
  <wgt id="19">3.2138e-12</wgt>
  <wgt id="20">3.19912e-12</wgt>
  <wgt id="21">3.1743e-12</wgt>
  <wgt id="22">3.17693e-12</wgt>
  <wgt id="23">3.14983e-12</wgt>
  <wgt id="24">3.17496e-12</wgt>
  <wgt id="25">3.18781e-12</wgt>
  <wgt id="26">3.2094e-12</wgt>
  <wgt id="27">3.19388e-12</wgt>
  <wgt id="28">3.17914e-12</wgt>
  <wgt id="29">3.2014e-12</wgt>
  <wgt id="30">3.17324e-12</wgt>
  <wgt id="31">3.21498e-12</wgt>
  <wgt id="32">3.17476e-12</wgt>
  <wgt id="33">3.20466e-12</wgt>
  <wgt id="34">3.17886e-12</wgt>
  <wgt id="35">3.17685e-12</wgt>
  <wgt id="36">3.21582e-12</wgt>
  <wgt id="37">3.18907e-12</wgt>
  <wgt id="38">3.18649e-12</wgt>
  <wgt id="39">3.25987e-12</wgt>
  <wgt id="40">3.20515e-12</wgt>
  <wgt id="41">3.19787e-12</wgt>
  <wgt id="42">3.20907e-12</wgt>
  <wgt id="43">3.20386e-12</wgt>
  <wgt id="44">3.21505e-12</wgt>
  <wgt id="45">3.20429e-12</wgt>
  <wgt id="46">3.1865e-12</wgt>
  <wgt id="47">3.23093e-12</wgt>
  <wgt id="48">3.22062e-12</wgt>
  <wgt id="49">3.18533e-12</wgt>
  <wgt id="50">3.17362e-12</wgt>
  <wgt id="51">3.17976e-12</wgt>
  <wgt id="52">3.20594e-12</wgt>
  <wgt id="53">3.2331e-12</wgt>
  <wgt id="54">3.2169e-12</wgt>
  <wgt id="55">3.19838e-12</wgt>
  <wgt id="56">3.18309e-12</wgt>
  <wgt id="57">3.18e-12</wgt>
  <wgt id="58">3.19771e-12</wgt>
  <wgt id="59">3.20632e-12</wgt>
  <wgt id="60">3.17287e-12</wgt>
  <wgt id="61">3.18316e-12</wgt>
  <wgt id="62">3.19467e-12</wgt>
  <wgt id="63">3.19775e-12</wgt>
  <wgt id="64">3.19745e-12</wgt>
  <wgt id="65">3.18653e-12</wgt>
  <wgt id="66">3.20427e-12</wgt>
  <wgt id="67">3.19748e-12</wgt>
  <wgt id="68">3.1992e-12</wgt>
  <wgt id="69">3.1941e-12</wgt>
  <wgt id="70">3.18996e-12</wgt>
  <wgt id="71">3.19917e-12</wgt>
  <wgt id="72">3.18263e-12</wgt>
  <wgt id="73">3.21295e-12</wgt>
  <wgt id="74">3.21319e-12</wgt>
  <wgt id="75">3.19845e-12</wgt>
  <wgt id="76">3.22247e-12</wgt>
  <wgt id="77">3.19405e-12</wgt>
  <wgt id="78">3.19741e-12</wgt>
  <wgt id="79">3.20894e-12</wgt>
  <wgt id="80">3.17268e-12</wgt>
  <wgt id="81">3.19937e-12</wgt>
  <wgt id="82">3.20353e-12</wgt>
  <wgt id="83">3.17918e-12</wgt>
  <wgt id="84">3.1893e-12</wgt>
  <wgt id="85">3.18677e-12</wgt>
  <wgt id="86">3.21434e-12</wgt>
  <wgt id="87">3.16906e-12</wgt>
  <wgt id="88">3.20995e-12</wgt>
  <wgt id="89">3.20654e-12</wgt>
  <wgt id="90">3.21258e-12</wgt>
  <wgt id="91">3.20463e-12</wgt>
  <wgt id="92">3.21005e-12</wgt>
  <wgt id="93">3.20443e-12</wgt>
  <wgt id="94">3.19121e-12</wgt>
  <wgt id="95">3.21175e-12</wgt>
  <wgt id="96">3.20897e-12</wgt>
  <wgt id="97">3.18689e-12</wgt>
  <wgt id="98">3.20026e-12</wgt>
  <wgt id="99">3.19552e-12</wgt>
  <wgt id="100">3.20789e-12</wgt>
  <wgt id="101">3.19603e-12</wgt>
  <wgt id="102">3.19424e-12</wgt>
  <wgt id="103">3.21254e-12</wgt>
  <wgt id="104">3.19426e-12</wgt>
  <wgt id="105">3.20828e-12</wgt>
  <wgt id="106">3.19148e-12</wgt>
  <wgt id="107">3.22034e-12</wgt>
  <wgt id="108">3.19399e-12</wgt>
  <wgt id="109">3.20277e-12</wgt>
  <wgt id="110">3.19929e-12</wgt>
  <wgt id="111">3.2048e-12</wgt>
  <wgt id="112">3.24138e-12</wgt>
  <wgt id="113">4.64673e-12</wgt>
  <wgt id="114">4.32226e-12</wgt>
  <wgt id="115">4.24389e-12</wgt>
  <wgt id="116">5.98825e-12</wgt>
  <wgt id="117">3.55818e-12</wgt>
  <wgt id="118">3.57221e-12</wgt>
  <wgt id="119">3.55014e-12</wgt>
  <wgt id="120">3.55822e-12</wgt>
  <wgt id="121">3.55811e-12</wgt>
  <wgt id="122">3.55266e-12</wgt>
  <wgt id="123">3.56583e-12</wgt>
  <wgt id="124">3.55354e-12</wgt>
  <wgt id="125">3.56117e-12</wgt>
  <wgt id="126">3.56391e-12</wgt>
  <wgt id="127">3.55433e-12</wgt>
  <wgt id="128">3.569e-12</wgt>
  <wgt id="129">3.54737e-12</wgt>
  <wgt id="130">3.57629e-12</wgt>
  <wgt id="131">3.53938e-12</wgt>
  <wgt id="132">3.45757e-12</wgt>
  <wgt id="133">3.67838e-12</wgt>
  <wgt id="134">3.5187e-12</wgt>
  <wgt id="135">3.58916e-12</wgt>
  <wgt id="136">3.61425e-12</wgt>
  <wgt id="137">3.49084e-12</wgt>
  <wgt id="138">3.72448e-12</wgt>
  <wgt id="139">3.40068e-12</wgt>
  <wgt id="140">3.54123e-12</wgt>
  <wgt id="141">3.57102e-12</wgt>
  <wgt id="142">3.55732e-12</wgt>
  <wgt id="143">3.56939e-12</wgt>
  <wgt id="144">3.40478e-12</wgt>
  <wgt id="145">3.70782e-12</wgt>
  <wgt id="146">3.60777e-12</wgt>
  <wgt id="147">3.5176e-12</wgt>
  <wgt id="148">3.57162e-12</wgt>
  <wgt id="149">3.55723e-12</wgt>
  <wgt id="150">3.5888e-12</wgt>
  <wgt id="151">3.54379e-12</wgt>
  <wgt id="152">3.55931e-12</wgt>
  <wgt id="153">3.55778e-12</wgt>
  <wgt id="154">3.5661e-12</wgt>
  <wgt id="155">3.54211e-12</wgt>
  <wgt id="156">3.68406e-12</wgt>
  <wgt id="157">3.44443e-12</wgt>
  <wgt id="158">4.26142e-12</wgt>
  <wgt id="159">4.27958e-12</wgt>
  <wgt id="160">4.2467e-12</wgt>
  <wgt id="161">4.24987e-12</wgt>
  <wgt id="162">4.27421e-12</wgt>
  <wgt id="163">4.25627e-12</wgt>
  <wgt id="164">4.26897e-12</wgt>
  <wgt id="165">4.26297e-12</wgt>
  <wgt id="166">4.26014e-12</wgt>
  <wgt id="167">4.25842e-12</wgt>
  <wgt id="168">4.26543e-12</wgt>
  <wgt id="169">4.24416e-12</wgt>
  <wgt id="170">4.27206e-12</wgt>
  <wgt id="171">4.25771e-12</wgt>
  <wgt id="172">4.2665e-12</wgt>
  <wgt id="173">4.25359e-12</wgt>
  <wgt id="174">4.26398e-12</wgt>
  <wgt id="175">4.13294e-12</wgt>
  <wgt id="176">4.43004e-12</wgt>
  <wgt id="177">4.2824e-12</wgt>
  <wgt id="178">4.24234e-12</wgt>
  <wgt id="179">4.48481e-12</wgt>
  <wgt id="180">3.91784e-12</wgt>
  <wgt id="181">4.11468e-12</wgt>
  <wgt id="182">4.35932e-12</wgt>
  <wgt id="183">4.17242e-12</wgt>
  <wgt id="184">4.30558e-12</wgt>
  <wgt id="185">4.21321e-12</wgt>
  <wgt id="186">4.32003e-12</wgt>
  <wgt id="187">4.21291e-12</wgt>
  <wgt id="188">4.34706e-12</wgt>
  <wgt id="189">4.22692e-12</wgt>
  <wgt id="190">4.27531e-12</wgt>
  <wgt id="191">4.27686e-12</wgt>
  <wgt id="192">4.25222e-12</wgt>
  <wgt id="193">4.33557e-12</wgt>
  <wgt id="194">4.22417e-12</wgt>
  <wgt id="195">4.09848e-12</wgt>
  <wgt id="196">4.52673e-12</wgt>
  <wgt id="197">4.28516e-12</wgt>
  <wgt id="198">4.25567e-12</wgt>
  <wgt id="199">4.26142e-12</wgt>
  <wgt id="200">4.30376e-12</wgt>
  <wgt id="201">4.28934e-12</wgt>
  <wgt id="202">4.27538e-12</wgt>
  <wgt id="203">4.25519e-12</wgt>
  <wgt id="204">4.24505e-12</wgt>
  <wgt id="205">4.23678e-12</wgt>
  <wgt id="206">4.15666e-12</wgt>
  <wgt id="207">4.18183e-12</wgt>
  <wgt id="208">4.13182e-12</wgt>
  <wgt id="209">4.17051e-12</wgt>
  <wgt id="210">4.14667e-12</wgt>
  <wgt id="211">4.15499e-12</wgt>
  <wgt id="212">4.158e-12</wgt>
  <wgt id="213">4.15632e-12</wgt>
  <wgt id="214">4.15722e-12</wgt>
  <wgt id="215">4.1601e-12</wgt>
  <wgt id="216">4.15422e-12</wgt>
  <wgt id="217">4.16693e-12</wgt>
  <wgt id="218">4.14881e-12</wgt>
  <wgt id="219">4.15251e-12</wgt>
  <wgt id="220">4.15916e-12</wgt>
  <wgt id="221">4.15798e-12</wgt>
  <wgt id="222">4.15272e-12</wgt>
  <wgt id="223">3.91255e-12</wgt>
  <wgt id="224">4.38096e-12</wgt>
  <wgt id="225">4.10304e-12</wgt>
  <wgt id="226">4.22497e-12</wgt>
  <wgt id="227">4.11528e-12</wgt>
  <wgt id="228">4.17482e-12</wgt>
  <wgt id="229">4.09498e-12</wgt>
  <wgt id="230">4.18738e-12</wgt>
  <wgt id="231">4.30149e-12</wgt>
  <wgt id="232">4.0385e-12</wgt>
  <wgt id="233">4.12976e-12</wgt>
  <wgt id="234">4.20185e-12</wgt>
  <wgt id="235">3.98092e-12</wgt>
  <wgt id="236">4.30039e-12</wgt>
  <wgt id="237">4.05403e-12</wgt>
  <wgt id="238">4.19091e-12</wgt>
  <wgt id="239">4.1153e-12</wgt>
  <wgt id="240">4.23083e-12</wgt>
  <wgt id="241">4.10434e-12</wgt>
  <wgt id="242">4.21885e-12</wgt>
  <wgt id="243">4.2349e-12</wgt>
  <wgt id="244">4.15687e-12</wgt>
  <wgt id="245">4.15511e-12</wgt>
  <wgt id="246">4.18052e-12</wgt>
  <wgt id="247">4.15666e-12</wgt>
  <wgt id="248">4.20213e-12</wgt>
  <wgt id="249">4.18654e-12</wgt>
  <wgt id="250">4.17003e-12</wgt>
  <wgt id="251">4.14799e-12</wgt>
  <wgt id="252">4.1365e-12</wgt>
  <wgt id="253">4.12877e-12</wgt>
  <wgt id="254">4.01144e-12</wgt>
  <wgt id="255">4.0151e-12</wgt>
  <wgt id="256">4.00748e-12</wgt>
  <wgt id="257">4.01453e-12</wgt>
  <wgt id="258">4.00926e-12</wgt>
  <wgt id="259">4.03849e-12</wgt>
  <wgt id="260">3.98537e-12</wgt>
  <wgt id="261">4.01882e-12</wgt>
  <wgt id="262">4.00273e-12</wgt>
  <wgt id="263">4.00836e-12</wgt>
  <wgt id="264">4.01515e-12</wgt>
  <wgt id="265">4.00622e-12</wgt>
  <wgt id="266">4.02197e-12</wgt>
  <wgt id="267">4.01292e-12</wgt>
  <wgt id="268">4.00946e-12</wgt>
  <wgt id="269">4.02482e-12</wgt>
  <wgt id="270">4.0024e-12</wgt>
  <wgt id="271">4.00072e-12</wgt>
  <wgt id="272">4.02344e-12</wgt>
  <wgt id="273">4.00011e-12</wgt>
  <wgt id="274">4.0201e-12</wgt>
  <wgt id="275">3.98649e-12</wgt>
  <wgt id="276">4.03734e-12</wgt>
  <wgt id="277">3.98769e-12</wgt>
  <wgt id="278">4.03313e-12</wgt>
  <wgt id="279">3.93277e-12</wgt>
  <wgt id="280">4.11066e-12</wgt>
  <wgt id="281">3.99132e-12</wgt>
  <wgt id="282">4.01738e-12</wgt>
  <wgt id="283">3.87579e-12</wgt>
  <wgt id="284">4.18114e-12</wgt>
  <wgt id="285">3.78874e-12</wgt>
  <wgt id="286">4.20024e-12</wgt>
  <wgt id="287">4.02603e-12</wgt>
  <wgt id="288">3.99289e-12</wgt>
  <wgt id="289">4.04498e-12</wgt>
  <wgt id="290">3.93754e-12</wgt>
  <wgt id="291">3.99554e-12</wgt>
  <wgt id="292">4.01171e-12</wgt>
  <wgt id="293">3.97506e-12</wgt>
  <wgt id="294">4.04772e-12</wgt>
  <wgt id="295">3.92372e-12</wgt>
  <wgt id="296">4.11913e-12</wgt>
  <wgt id="297">4.00062e-12</wgt>
  <wgt id="298">4.03326e-12</wgt>
  <wgt id="299">3.99725e-12</wgt>
  <wgt id="300">4.04943e-12</wgt>
  <wgt id="301">3.92381e-12</wgt>
  <wgt id="302">4.21188e-12</wgt>
  <wgt id="303">3.96437e-12</wgt>
  <wgt id="304">4.03778e-12</wgt>
  <wgt id="305">3.97422e-12</wgt>
  <wgt id="306">3.97803e-12</wgt>
  <wgt id="307">3.97018e-12</wgt>
  <wgt id="308">3.9776e-12</wgt>
  <wgt id="309">3.97196e-12</wgt>
  <wgt id="310">4.00179e-12</wgt>
  <wgt id="311">3.94875e-12</wgt>
  <wgt id="312">3.98097e-12</wgt>
  <wgt id="313">3.96705e-12</wgt>
  <wgt id="314">3.97099e-12</wgt>
  <wgt id="315">3.97731e-12</wgt>
  <wgt id="316">3.96895e-12</wgt>
  <wgt id="317">3.98565e-12</wgt>
  <wgt id="318">3.9774e-12</wgt>
  <wgt id="319">3.96869e-12</wgt>
  <wgt id="320">3.98851e-12</wgt>
  <wgt id="321">3.96624e-12</wgt>
  <wgt id="322">3.96236e-12</wgt>
  <wgt id="323">3.98794e-12</wgt>
  <wgt id="324">3.96565e-12</wgt>
  <wgt id="325">3.98169e-12</wgt>
  <wgt id="326">3.95379e-12</wgt>
  <wgt id="327">4.00046e-12</wgt>
  <wgt id="328">3.95356e-12</wgt>
  <wgt id="329">3.98559e-12</wgt>
  <wgt id="330">4.09284e-12</wgt>
  <wgt id="331">3.86165e-12</wgt>
  <wgt id="332">3.95747e-12</wgt>
  <wgt id="333">3.97788e-12</wgt>
  <wgt id="334">3.87106e-12</wgt>
  <wgt id="335">4.10391e-12</wgt>
  <wgt id="336">3.81646e-12</wgt>
  <wgt id="337">4.17033e-12</wgt>
  <wgt id="338">4.02479e-12</wgt>
  <wgt id="339">3.92771e-12</wgt>
  <wgt id="340">4.00443e-12</wgt>
  <wgt id="341">3.89995e-12</wgt>
  <wgt id="342">3.96277e-12</wgt>
  <wgt id="343">3.96617e-12</wgt>
  <wgt id="344">3.94242e-12</wgt>
  <wgt id="345">4.01117e-12</wgt>
  <wgt id="346">3.88464e-12</wgt>
  <wgt id="347">4.07706e-12</wgt>
  <wgt id="348">3.96382e-12</wgt>
  <wgt id="349">3.99401e-12</wgt>
  <wgt id="350">3.95665e-12</wgt>
  <wgt id="351">4.01889e-12</wgt>
  <wgt id="352">3.88461e-12</wgt>
  <wgt id="353">4.17015e-12</wgt>
  <wgt id="354">3.90715e-12</wgt>
  <wgt id="355">4.01396e-12</wgt>
  <wgt id="356">4.01144e-12</wgt>
  <wgt id="357">3.97696e-12</wgt>
  <wgt id="358">3.97422e-12</wgt>
  <wgt id="359">4.01038e-12</wgt>
  <wgt id="360">4.0838e-12</wgt>
  <wgt id="361">4.03313e-12</wgt>
  <wgt id="362">4.11713e-12</wgt>
  <wgt id="363">4.10606e-12</wgt>
  <wgt id="364">4.08508e-12</wgt>
  <wgt id="365">4.06879e-12</wgt>
  <wgt id="366">4.05225e-12</wgt>
  <wgt id="367">4.02083e-12</wgt>
  <wgt id="368">4.00093e-12</wgt>
  <wgt id="369">3.97943e-12</wgt>
  <wgt id="370">4.03313e-12</wgt>
  <wgt id="371">4.05025e-12</wgt>
  <wgt id="372">4.04061e-12</wgt>
  <wgt id="373">4.02708e-12</wgt>
  <wgt id="374">4.03226e-12</wgt>
  <wgt id="375">4.62458e-12</wgt>
  <wgt id="376">4.625e-12</wgt>
  <wgt id="377">4.62396e-12</wgt>
  <wgt id="378">4.6423e-12</wgt>
  <wgt id="379">4.60696e-12</wgt>
  <wgt id="380">4.63772e-12</wgt>
  <wgt id="381">4.61932e-12</wgt>
  <wgt id="382">4.64743e-12</wgt>
  <wgt id="383">4.60197e-12</wgt>
  <wgt id="384">4.62759e-12</wgt>
  <wgt id="385">4.62165e-12</wgt>
  <wgt id="386">4.64087e-12</wgt>
  <wgt id="387">4.61754e-12</wgt>
  <wgt id="388">4.62035e-12</wgt>
  <wgt id="389">4.62977e-12</wgt>
  <wgt id="390">4.63569e-12</wgt>
  <wgt id="391">4.61273e-12</wgt>
  <wgt id="392">4.58077e-12</wgt>
  <wgt id="393">4.64939e-12</wgt>
  <wgt id="394">4.62809e-12</wgt>
  <wgt id="395">4.61951e-12</wgt>
  <wgt id="396">4.63331e-12</wgt>
  <wgt id="397">4.61834e-12</wgt>
  <wgt id="398">4.61367e-12</wgt>
  <wgt id="399">4.63507e-12</wgt>
  <wgt id="400">4.61655e-12</wgt>
  <wgt id="401">4.64259e-12</wgt>
  <wgt id="402">4.57932e-12</wgt>
  <wgt id="403">4.6533e-12</wgt>
  <wgt id="404">4.76431e-12</wgt>
  <wgt id="405">4.29336e-12</wgt>
  <wgt id="406">4.52448e-12</wgt>
  <wgt id="407">4.84739e-12</wgt>
  <wgt id="408">4.67704e-12</wgt>
  <wgt id="409">4.52799e-12</wgt>
  <wgt id="410">4.46249e-12</wgt>
  <wgt id="411">4.70285e-12</wgt>
  <wgt id="412">4.61337e-12</wgt>
  <wgt id="413">4.64126e-12</wgt>
  <wgt id="414">4.56005e-12</wgt>
  <wgt id="415">4.67476e-12</wgt>
  <wgt id="416">4.79076e-12</wgt>
  <wgt id="417">4.39719e-12</wgt>
  <wgt id="418">4.63417e-12</wgt>
  <wgt id="419">4.57289e-12</wgt>
  <wgt id="420">4.74692e-12</wgt>
  <wgt id="421">4.54343e-12</wgt>
  <wgt id="422">4.59352e-12</wgt>
  <wgt id="423">4.6391e-12</wgt>
  <wgt id="424">4.77214e-12</wgt>
  <wgt id="425">4.52476e-12</wgt>
  <wgt id="426">4.62458e-12</wgt>
  <wgt id="427">4.52776e-12</wgt>
  <wgt id="428">4.8474e-12</wgt>
  <wgt id="429">4.69138e-12</wgt>
  <wgt id="430">4.85296e-12</wgt>
  <wgt id="431">4.81985e-12</wgt>
  <wgt id="432">4.79013e-12</wgt>
  <wgt id="433">4.76093e-12</wgt>
  <wgt id="434">4.72345e-12</wgt>
  <wgt id="435">4.65117e-12</wgt>
  <wgt id="436">4.61474e-12</wgt>
  <wgt id="437">4.57917e-12</wgt>
  <wgt id="438">4.69138e-12</wgt>
  <wgt id="439">4.70578e-12</wgt>
  <wgt id="440">4.69678e-12</wgt>
  <wgt id="441">4.68759e-12</wgt>
  <wgt id="442">4.68468e-12</wgt>
  <wgt id="443">4.21302e-12</wgt>
  <wgt id="444">4.2588e-12</wgt>
  <wgt id="445">4.25351e-12</wgt>
  <wgt id="446">4.18222e-12</wgt>
  <wgt id="447">4.21128e-12</wgt>
  <wgt id="448">4.10557e-12</wgt>
  <wgt id="449">4.30577e-12</wgt>
  <wgt id="450">4.26468e-12</wgt>
  <wgt id="451">4.20073e-12</wgt>
  <wgt id="452">4.31144e-12</wgt>
  <wgt id="453">4.27136e-12</wgt>
  <wgt id="454">3.98581e-12</wgt>
  <wgt id="455">4.24826e-12</wgt>
  <wgt id="456">4.28823e-12</wgt>
  <wgt id="457">4.22898e-12</wgt>
  <wgt id="458">4.28902e-12</wgt>
  <wgt id="459">4.25198e-12</wgt>
  <wgt id="460">4.29871e-12</wgt>
  <wgt id="461">4.10563e-12</wgt>
  <wgt id="462">4.1784e-12</wgt>
  <wgt id="463">4.14295e-12</wgt>
  <wgt id="464">4.19015e-12</wgt>
  <wgt id="465">4.26179e-12</wgt>
  <wgt id="466">4.1057e-12</wgt>
  <wgt id="467">4.17723e-12</wgt>
  <wgt id="468">4.20919e-12</wgt>
  <wgt id="469">4.19959e-12</wgt>
  <wgt id="470">4.14418e-12</wgt>
  <wgt id="471">4.15615e-12</wgt>
  <wgt id="472">4.2449e-12</wgt>
  <wgt id="473">4.06059e-12</wgt>
  <wgt id="474">3.0282e-12</wgt>
  <wgt id="475">3.03789e-12</wgt>
  <wgt id="476">3.01704e-12</wgt>
  <wgt id="477">3.09994e-12</wgt>
  <wgt id="478">3.07285e-12</wgt>
  <wgt id="479">2.86924e-12</wgt>
  <wgt id="480">3.19235e-12</wgt>
  <wgt id="481">3.04475e-12</wgt>
  <wgt id="482">3.03055e-12</wgt>
  <wgt id="483">3.05403e-12</wgt>
  <wgt id="484">3.17181e-12</wgt>
  <wgt id="485">2.77091e-12</wgt>
  <wgt id="486">3.17863e-12</wgt>
  <wgt id="487">2.94157e-12</wgt>
  <wgt id="488">3.05199e-12</wgt>
  <wgt id="489">2.70511e-12</wgt>
  <wgt id="490">2.98034e-12</wgt>
  <wgt id="491">2.98145e-12</wgt>
  <wgt id="492">2.97189e-12</wgt>
  <wgt id="493">2.78696e-12</wgt>
  <wgt id="494">2.79733e-12</wgt>
  <wgt id="495">3.04637e-12</wgt>
  <wgt id="496">2.8635e-12</wgt>
  <wgt id="497">2.82154e-12</wgt>
  <wgt id="498">3.11484e-12</wgt>
  <wgt id="499">3.05454e-12</wgt>
  <wgt id="500">2.99795e-12</wgt>
  <wgt id="501">3.16498e-12</wgt>
  <wgt id="502">3.15739e-12</wgt>
  <wgt id="503">2.96718e-12</wgt>
  <wgt id="504">3.13081e-12</wgt>
  <wgt id="505">3.16323e-12</wgt>
  <wgt id="506">2.79984e-12</wgt>
  <wgt id="507">2.96288e-12</wgt>
  <wgt id="508">3.19188e-12</wgt>
  <wgt id="509">2.92975e-12</wgt>
  <wgt id="510">3.05578e-12</wgt>
  <wgt id="511">2.86798e-12</wgt>
  <wgt id="512">3.24804e-12</wgt>
  <wgt id="513">3.17066e-12</wgt>
  <wgt id="514">3.20627e-12</wgt>
  <wgt id="515">3.12052e-12</wgt>
  <wgt id="516">3.35847e-12</wgt>
  <wgt id="517">3.10502e-12</wgt>
  <wgt id="518">3.14935e-12</wgt>
  <wgt id="519">2.90142e-12</wgt>
  <wgt id="520">3.06651e-12</wgt>
  <wgt id="521">2.9552e-12</wgt>
  <wgt id="522">3.15191e-12</wgt>
  <wgt id="523">2.8837e-12</wgt>
  <wgt id="524">3.11071e-12</wgt>
  <wgt id="525">2.96025e-12</wgt>
  <wgt id="526">3.19689e-12</wgt>
  <wgt id="527">2.99362e-12</wgt>
  <wgt id="528">3.01495e-12</wgt>
  <wgt id="529">2.87519e-12</wgt>
  <wgt id="530">3.18914e-12</wgt>
  <wgt id="531">2.89514e-12</wgt>
  <wgt id="532">3.29749e-12</wgt>
  <wgt id="533">3.01502e-12</wgt>
  <wgt id="534">2.90043e-12</wgt>
  <wgt id="535">3.07788e-12</wgt>
  <wgt id="536">3.14249e-12</wgt>
  <wgt id="537">2.86624e-12</wgt>
  <wgt id="538">3.00459e-12</wgt>
  <wgt id="539">2.95077e-12</wgt>
  <wgt id="540">3.20212e-12</wgt>
  <wgt id="541">3.01614e-12</wgt>
  <wgt id="542">2.95329e-12</wgt>
  <wgt id="543">2.91011e-12</wgt>
  <wgt id="544">3.05844e-12</wgt>
  <wgt id="545">2.85698e-12</wgt>
  <wgt id="546">2.78868e-12</wgt>
  <wgt id="547">2.91083e-12</wgt>
  <wgt id="548">2.92788e-12</wgt>
  <wgt id="549">2.96566e-12</wgt>
  <wgt id="550">2.93245e-12</wgt>
  <wgt id="551">3.03608e-12</wgt>
  <wgt id="552">2.78987e-12</wgt>
  <wgt id="553">2.8298e-12</wgt>
  <wgt id="554">3.18646e-12</wgt>
  <wgt id="555">3.10285e-12</wgt>
  <wgt id="556">2.98034e-12</wgt>
  <wgt id="557">3.08903e-12</wgt>
  <wgt id="558">2.9949e-12</wgt>
  <wgt id="559">3.06538e-12</wgt>
  <wgt id="560">3.36049e-12</wgt>
  <wgt id="561">3.11389e-12</wgt>
  <wgt id="562">3.14059e-12</wgt>
  <wgt id="563">3.33776e-12</wgt>
  <wgt id="564">3.20792e-12</wgt>
  <wgt id="565">3.14637e-12</wgt>
  <wgt id="566">2.91767e-12</wgt>
  <wgt id="567">3.02853e-12</wgt>
  <wgt id="568">2.90752e-12</wgt>
  <wgt id="569">3.05189e-12</wgt>
  <wgt id="570">3.04245e-12</wgt>
  <wgt id="571">3.37011e-12</wgt>
  <wgt id="572">2.91205e-12</wgt>
  <wgt id="573">2.93638e-12</wgt>
  <wgt id="574">2.95703e-12</wgt>
  <wgt id="575">3.35651e-12</wgt>
  <wgt id="576">3.67096e-12</wgt>
  <wgt id="577">3.49646e-12</wgt>
  <wgt id="578">3.38694e-12</wgt>
  <wgt id="579">3.48745e-12</wgt>
  <wgt id="580">3.57669e-12</wgt>
  <wgt id="581">3.71078e-12</wgt>
  <wgt id="582">3.59239e-12</wgt>
  <wgt id="583">3.43238e-12</wgt>
  <wgt id="584">3.3218e-12</wgt>
  <wgt id="585">3.10074e-12</wgt>
  <wgt id="586">3.14734e-12</wgt>
  <wgt id="587">3.42115e-12</wgt>
  <wgt id="588">3.70471e-12</wgt>
  <wgt id="589">3.69242e-12</wgt>
  <wgt id="590">3.33907e-12</wgt>
  <wgt id="591">3.45304e-12</wgt>
  <wgt id="592">3.14918e-12</wgt>
  <wgt id="593">3.24866e-12</wgt>
  <wgt id="594">3.26563e-12</wgt>
  <wgt id="595">3.54364e-12</wgt>
  <wgt id="596">3.97282e-12</wgt>
  <wgt id="597">3.40554e-12</wgt>
  <wgt id="598">3.4334e-12</wgt>
  <wgt id="599">3.58941e-12</wgt>
  <wgt id="600">3.61326e-12</wgt>
  <wgt id="601">3.20961e-12</wgt>
  <wgt id="602">3.24105e-12</wgt>
  <wgt id="603">3.12925e-12</wgt>
  <wgt id="604">3.452e-12</wgt>
  <wgt id="605">3.38042e-12</wgt>
  <wgt id="606">3.40566e-12</wgt>
  <wgt id="607">3.5247e-12</wgt>
  <wgt id="608">3.4849e-12</wgt>
  <wgt id="609">3.30738e-12</wgt>
  <wgt id="610">3.19623e-12</wgt>
  <wgt id="611">3.19641e-12</wgt>
  <wgt id="612">3.47007e-12</wgt>
  <wgt id="613">3.18441e-12</wgt>
  <wgt id="614">3.32917e-12</wgt>
  <wgt id="615">3.42325e-12</wgt>
  <wgt id="616">3.19733e-12</wgt>
  <wgt id="617">3.49682e-12</wgt>
  <wgt id="618">3.68546e-12</wgt>
  <wgt id="619">3.28625e-12</wgt>
  <wgt id="620">3.46071e-12</wgt>
  <wgt id="621">3.31461e-12</wgt>
  <wgt id="622">3.42115e-12</wgt>
  <wgt id="623">3.35831e-12</wgt>
  <wgt id="624">3.37015e-12</wgt>
  <wgt id="625">3.18679e-12</wgt>
  <wgt id="626">2.95261e-12</wgt>
  <wgt id="627">3.01345e-12</wgt>
  <wgt id="628">3.3427e-12</wgt>
  <wgt id="629">3.45254e-12</wgt>
  <wgt id="630">3.27616e-12</wgt>
  <wgt id="631">3.45492e-12</wgt>
  <wgt id="632">3.05334e-12</wgt>
  <wgt id="633">3.33147e-12</wgt>
  <wgt id="634">3.20481e-12</wgt>
  <wgt id="635">3.09108e-12</wgt>
  <wgt id="636">3.38599e-12</wgt>
  <wgt id="637">3.35073e-12</wgt>
  <wgt id="638">3.18565e-12</wgt>
  <wgt id="639">3.19351e-12</wgt>
  <wgt id="640">3.25967e-12</wgt>
  <wgt id="641">3.52609e-12</wgt>
  <wgt id="642">3.04874e-12</wgt>
  <wgt id="643">3.25907e-12</wgt>
  <wgt id="644">3.0129e-12</wgt>
  <wgt id="645">3.35162e-12</wgt>
  <wgt id="646">3.06168e-12</wgt>
  <wgt id="647">3.40828e-12</wgt>
  <wgt id="648">3.52889e-12</wgt>
  <wgt id="649">3.37813e-12</wgt>
  <wgt id="650">3.20459e-12</wgt>
  <wgt id="651">3.59592e-12</wgt>
  <wgt id="652">3.2053e-12</wgt>
  <wgt id="653">3.21777e-12</wgt>
  <wgt id="654">3.41899e-12</wgt>
  <wgt id="655">3.19205e-12</wgt>
  <wgt id="656">3.36558e-12</wgt>
  <wgt id="657">3.68026e-12</wgt>
  <wgt id="658">3.37489e-12</wgt>
  <wgt id="659">3.21004e-12</wgt>
  <wgt id="660">3.22681e-12</wgt>
  <wgt id="661">3.25723e-12</wgt>
  <wgt id="662">3.29534e-12</wgt>
  <wgt id="663">3.42139e-12</wgt>
  <wgt id="664">3.40705e-12</wgt>
  <wgt id="665">3.30631e-12</wgt>
  <wgt id="666">3.27104e-12</wgt>
  <wgt id="667">3.54877e-12</wgt>
  <wgt id="668">3.30363e-12</wgt>
  <wgt id="669">3.33797e-12</wgt>
  <wgt id="670">3.53096e-12</wgt>
  <wgt id="671">3.39604e-12</wgt>
  <wgt id="672">3.28101e-12</wgt>
  <wgt id="673">3.58904e-12</wgt>
  <wgt id="674">3.24519e-12</wgt>
  <wgt id="675">3.20901e-12</wgt>
  <wgt id="676">4.38378e-12</wgt>
  <wgt id="677">4.42289e-12</wgt>
  <wgt id="678">4.84379e-12</wgt>
  <wgt id="679">4.53129e-12</wgt>
  <wgt id="680">4.41957e-12</wgt>
  <wgt id="681">4.26558e-12</wgt>
  <wgt id="682">4.60859e-12</wgt>
  <wgt id="683">3.99764e-12</wgt>
  <wgt id="684">4.64896e-12</wgt>
  <wgt id="685">4.36796e-12</wgt>
  <wgt id="686">4.5142e-12</wgt>
  <wgt id="687">4.54151e-12</wgt>
  <wgt id="688">4.23493e-12</wgt>
  <wgt id="689">4.62424e-12</wgt>
  <wgt id="690">4.51934e-12</wgt>
  <wgt id="691">4.48732e-12</wgt>
  <wgt id="692">4.2622e-12</wgt>
  <wgt id="693">5.93114e-12</wgt>
  <wgt id="694">4.86154e-12</wgt>
  <wgt id="695">4.06756e-12</wgt>
  <wgt id="696">4.15321e-12</wgt>
  <wgt id="697">3.90519e-12</wgt>
  <wgt id="698">3.56571e-12</wgt>
  <wgt id="699">3.6691e-12</wgt>
  <wgt id="700">3.84579e-12</wgt>
  <wgt id="701">4.38353e-12</wgt>
  <wgt id="702">4.17348e-12</wgt>
  <wgt id="703">5.54168e-12</wgt>
  <wgt id="704">4.97475e-12</wgt>
  <wgt id="705">4.94145e-12</wgt>
  <wgt id="706">4.0416e-12</wgt>
  <wgt id="707">4.08068e-12</wgt>
  <wgt id="708">4.1677e-12</wgt>
  <wgt id="709">4.23392e-12</wgt>
  <wgt id="710">3.5896e-12</wgt>
  <wgt id="711">4.72005e-12</wgt>
  <wgt id="712">4.09764e-12</wgt>
  <wgt id="713">4.73268e-12</wgt>
  <wgt id="714">3.91085e-12</wgt>
  <wgt id="715">4.15698e-12</wgt>
  <wgt id="716">4.20616e-12</wgt>
  <wgt id="717">3.76104e-12</wgt>
  <wgt id="718">4.48068e-12</wgt>
  <wgt id="719">3.98406e-12</wgt>
  <wgt id="720">4.5009e-12</wgt>
  <wgt id="721">3.71984e-12</wgt>
  <wgt id="722">3.37493e-12</wgt>
  <wgt id="723">4.98827e-12</wgt>
  <wgt id="724">4.78658e-12</wgt>
  <wgt id="725">4.60819e-12</wgt>
  <wgt id="726">4.36336e-12</wgt>
  <wgt id="727">4.40966e-12</wgt>
  <wgt id="728">4.31858e-12</wgt>
  <wgt id="729">3.94161e-12</wgt>
  <wgt id="730">4.91159e-12</wgt>
  <wgt id="731">4.32275e-12</wgt>
  <wgt id="732">5.16003e-12</wgt>
  <wgt id="733">4.0527e-12</wgt>
  <wgt id="734">4.55557e-12</wgt>
  <wgt id="735">4.35679e-12</wgt>
  <wgt id="736">4.03687e-12</wgt>
  <wgt id="737">4.02541e-12</wgt>
  <wgt id="738">4.14872e-12</wgt>
  <wgt id="739">4.6673e-12</wgt>
  <wgt id="740">5.26934e-12</wgt>
  <wgt id="741">4.61715e-12</wgt>
  <wgt id="742">4.16626e-12</wgt>
  <wgt id="743">3.96235e-12</wgt>
  <wgt id="744">4.2931e-12</wgt>
  <wgt id="745">4.85062e-12</wgt>
  <wgt id="746">4.99094e-12</wgt>
  <wgt id="747">3.60273e-12</wgt>
  <wgt id="748">4.20062e-12</wgt>
  <wgt id="749">4.58806e-12</wgt>
  <wgt id="750">4.73802e-12</wgt>
  <wgt id="751">4.4318e-12</wgt>
  <wgt id="752">3.91541e-12</wgt>
  <wgt id="753">3.8903e-12</wgt>
  <wgt id="754">4.58479e-12</wgt>
  <wgt id="755">4.273e-12</wgt>
  <wgt id="756">4.24133e-12</wgt>
  <wgt id="757">3.74265e-12</wgt>
  <wgt id="758">4.26881e-12</wgt>
  <wgt id="759">4.78935e-12</wgt>
  <wgt id="760">4.18487e-12</wgt>
  <wgt id="761">4.91238e-12</wgt>
  <wgt id="762">4.93895e-12</wgt>
  <wgt id="763">4.52266e-12</wgt>
  <wgt id="764">4.72395e-12</wgt>
  <wgt id="765">4.43006e-12</wgt>
  <wgt id="766">4.45716e-12</wgt>
  <wgt id="767">4.48712e-12</wgt>
  <wgt id="768">3.95939e-12</wgt>
  <wgt id="769">4.62334e-12</wgt>
  <wgt id="770">4.06219e-12</wgt>
  <wgt id="771">5.48146e-12</wgt>
  <wgt id="772">4.25465e-12</wgt>
  <wgt id="773">4.41424e-12</wgt>
  <wgt id="774">3.42812e-12</wgt>
  <wgt id="775">4.60914e-12</wgt>
  <wgt id="776">5.1465e-12</wgt>
  <wgt id="777">3.8294e-12</wgt>
  <wgt id="778">2.80459e-12</wgt>
  <wgt id="779">1.64014e-12</wgt>
  <wgt id="780">8.95322e-13</wgt>
  <wgt id="781">3.16273e-12</wgt>
  <wgt id="782">3.47257e-12</wgt>
  <wgt id="783">1.41916e-12</wgt>
  <wgt id="784">1.87729e-12</wgt>
  <wgt id="785">4.31161e-12</wgt>
  <wgt id="786">1.38582e-12</wgt>
  <wgt id="787">3.7483e-12</wgt>
  <wgt id="788">3.21882e-13</wgt>
  <wgt id="789">1.82664e-12</wgt>
  <wgt id="790">1.439e-12</wgt>
  <wgt id="791">3.29297e-12</wgt>
  <wgt id="792">3.84339e-12</wgt>
  <wgt id="793">2.58759e-12</wgt>
  <wgt id="794">1.28895e-12</wgt>
  <wgt id="795">4.03232e-12</wgt>
  <wgt id="796">4.09066e-12</wgt>
  <wgt id="797">3.70193e-12</wgt>
  <wgt id="798">2.07572e-12</wgt>
  <wgt id="799">3.69078e-12</wgt>
  <wgt id="800">2.06848e-12</wgt>
  <wgt id="801">2.79255e-12</wgt>
  <wgt id="802">1.23428e-12</wgt>
  <wgt id="803">4.62901e-12</wgt>
  <wgt id="804">4.02433e-12</wgt>
  <wgt id="805">3.93062e-12</wgt>
  <wgt id="806">3.13526e-12</wgt>
  <wgt id="807">2.77172e-12</wgt>
  <wgt id="808">2.71972e-12</wgt>
  <wgt id="809">2.47728e-12</wgt>
  <wgt id="810">3.56976e-12</wgt>
  <wgt id="811">2.97815e-12</wgt>
  <wgt id="812">1.47924e-12</wgt>
  <wgt id="813">1.61019e-12</wgt>
  <wgt id="814">1.85356e-12</wgt>
  <wgt id="815">1.4707e-12</wgt>
  <wgt id="816">1.69442e-12</wgt>
  <wgt id="817">2.87854e-12</wgt>
  <wgt id="818">3.90342e-12</wgt>
  <wgt id="819">1.60345e-12</wgt>
  <wgt id="820">2.61541e-12</wgt>
  <wgt id="821">3.52329e-12</wgt>
  <wgt id="822">2.22743e-12</wgt>
  <wgt id="823">3.73486e-12</wgt>
  <wgt id="824">4.3775e-12</wgt>
  <wgt id="825">1.12303e-12</wgt>
  <wgt id="826">3.68936e-12</wgt>
  <wgt id="827">1.04373e-12</wgt>
  <wgt id="828">3.69948e-12</wgt>
  <wgt id="829">2.92318e-12</wgt>
  <wgt id="830">1.07151e-12</wgt>
  <wgt id="831">3.42989e-12</wgt>
  <wgt id="832">5.29754e-12</wgt>
  <wgt id="833">2.17106e-12</wgt>
  <wgt id="834">5.19526e-12</wgt>
  <wgt id="835">1.83002e-12</wgt>
  <wgt id="836">2.20699e-12</wgt>
  <wgt id="837">3.42023e-12</wgt>
  <wgt id="838">2.15825e-12</wgt>
  <wgt id="839">3.43577e-12</wgt>
  <wgt id="840">2.35066e-12</wgt>
  <wgt id="841">4.13759e-12</wgt>
  <wgt id="842">2.85032e-12</wgt>
  <wgt id="843">3.05973e-12</wgt>
  <wgt id="844">3.22181e-12</wgt>
  <wgt id="845">5.25759e-12</wgt>
  <wgt id="846">2.72679e-12</wgt>
  <wgt id="847">3.05526e-12</wgt>
  <wgt id="848">1.5341e-12</wgt>
  <wgt id="849">3.15817e-12</wgt>
  <wgt id="850">4.6037e-12</wgt>
  <wgt id="851">3.44166e-12</wgt>
  <wgt id="852">1.22322e-12</wgt>
  <wgt id="853">3.61807e-12</wgt>
  <wgt id="854">4.148e-12</wgt>
  <wgt id="855">3.61771e-12</wgt>
  <wgt id="856">1.05474e-12</wgt>
  <wgt id="857">2.3765e-12</wgt>
  <wgt id="858">2.68364e-12</wgt>
  <wgt id="859">2.70485e-12</wgt>
  <wgt id="860">3.75371e-12</wgt>
  <wgt id="861">2.2422e-12</wgt>
  <wgt id="862">2.9291e-12</wgt>
  <wgt id="863">3.36227e-12</wgt>
  <wgt id="864">2.90024e-12</wgt>
  <wgt id="865">4.85741e-12</wgt>
  <wgt id="866">5.33262e-12</wgt>
  <wgt id="867">2.87012e-12</wgt>
  <wgt id="868">3.02074e-12</wgt>
  <wgt id="869">1.41619e-12</wgt>
  <wgt id="870">1.81325e-12</wgt>
  <wgt id="871">1.87497e-12</wgt>
  <wgt id="872">4.31533e-12</wgt>
  <wgt id="873">2.14774e-12</wgt>
  <wgt id="874">3.20947e-12</wgt>
  <wgt id="875">2.0638e-12</wgt>
  <wgt id="876">4.09948e-12</wgt>
  <wgt id="877">3.30772e-12</wgt>
  <wgt id="878">2.22685e-12</wgt>
  <wgt id="879">4.38378e-12</wgt>
  <wgt id="880">4.42289e-12</wgt>
  <wgt id="881">4.84379e-12</wgt>
  <wgt id="882">4.53129e-12</wgt>
  <wgt id="883">4.41957e-12</wgt>
  <wgt id="884">4.26558e-12</wgt>
  <wgt id="885">4.60859e-12</wgt>
  <wgt id="886">3.99764e-12</wgt>
  <wgt id="887">4.64896e-12</wgt>
  <wgt id="888">4.36796e-12</wgt>
  <wgt id="889">4.5142e-12</wgt>
  <wgt id="890">4.54151e-12</wgt>
  <wgt id="891">4.23493e-12</wgt>
  <wgt id="892">4.62424e-12</wgt>
  <wgt id="893">4.51934e-12</wgt>
  <wgt id="894">4.48732e-12</wgt>
  <wgt id="895">4.2622e-12</wgt>
  <wgt id="896">5.93114e-12</wgt>
  <wgt id="897">4.86154e-12</wgt>
  <wgt id="898">4.06756e-12</wgt>
  <wgt id="899">4.15321e-12</wgt>
  <wgt id="900">3.90519e-12</wgt>
  <wgt id="901">3.56571e-12</wgt>
  <wgt id="902">3.6691e-12</wgt>
  <wgt id="903">3.84579e-12</wgt>
  <wgt id="904">4.38353e-12</wgt>
  <wgt id="905">4.17348e-12</wgt>
  <wgt id="906">5.54168e-12</wgt>
  <wgt id="907">4.97475e-12</wgt>
  <wgt id="908">4.94145e-12</wgt>
  <wgt id="909">4.0416e-12</wgt>
  <wgt id="910">4.08068e-12</wgt>
  <wgt id="911">4.1677e-12</wgt>
  <wgt id="912">4.23392e-12</wgt>
  <wgt id="913">3.5896e-12</wgt>
  <wgt id="914">4.72005e-12</wgt>
  <wgt id="915">4.09764e-12</wgt>
  <wgt id="916">4.73268e-12</wgt>
  <wgt id="917">3.91085e-12</wgt>
  <wgt id="918">4.15698e-12</wgt>
  <wgt id="919">4.20616e-12</wgt>
  <wgt id="920">3.76104e-12</wgt>
  <wgt id="921">4.48068e-12</wgt>
  <wgt id="922">3.98406e-12</wgt>
  <wgt id="923">4.5009e-12</wgt>
  <wgt id="924">3.71984e-12</wgt>
  <wgt id="925">3.37493e-12</wgt>
  <wgt id="926">4.98827e-12</wgt>
  <wgt id="927">4.78658e-12</wgt>
  <wgt id="928">4.60819e-12</wgt>
  <wgt id="929">4.36336e-12</wgt>
  <wgt id="930">4.40966e-12</wgt>
  <wgt id="931">4.31858e-12</wgt>
  <wgt id="932">3.94161e-12</wgt>
  <wgt id="933">4.91159e-12</wgt>
  <wgt id="934">4.32275e-12</wgt>
  <wgt id="935">5.16003e-12</wgt>
  <wgt id="936">4.0527e-12</wgt>
  <wgt id="937">4.55557e-12</wgt>
  <wgt id="938">4.35679e-12</wgt>
  <wgt id="939">4.03687e-12</wgt>
  <wgt id="940">4.02541e-12</wgt>
  <wgt id="941">4.14872e-12</wgt>
  <wgt id="942">4.6673e-12</wgt>
  <wgt id="943">5.26934e-12</wgt>
  <wgt id="944">4.61715e-12</wgt>
  <wgt id="945">4.16626e-12</wgt>
  <wgt id="946">3.96235e-12</wgt>
  <wgt id="947">4.2931e-12</wgt>
  <wgt id="948">4.85062e-12</wgt>
  <wgt id="949">4.99094e-12</wgt>
  <wgt id="950">3.60273e-12</wgt>
  <wgt id="951">4.20062e-12</wgt>
  <wgt id="952">4.58806e-12</wgt>
  <wgt id="953">4.73802e-12</wgt>
  <wgt id="954">4.4318e-12</wgt>
  <wgt id="955">3.91541e-12</wgt>
  <wgt id="956">3.8903e-12</wgt>
  <wgt id="957">4.58479e-12</wgt>
  <wgt id="958">4.273e-12</wgt>
  <wgt id="959">4.24133e-12</wgt>
  <wgt id="960">3.74265e-12</wgt>
  <wgt id="961">4.26881e-12</wgt>
  <wgt id="962">4.78935e-12</wgt>
  <wgt id="963">4.18487e-12</wgt>
  <wgt id="964">4.91238e-12</wgt>
  <wgt id="965">4.93895e-12</wgt>
  <wgt id="966">4.52266e-12</wgt>
  <wgt id="967">4.72395e-12</wgt>
  <wgt id="968">4.43006e-12</wgt>
  <wgt id="969">4.45716e-12</wgt>
  <wgt id="970">4.48712e-12</wgt>
  <wgt id="971">3.95939e-12</wgt>
  <wgt id="972">4.62334e-12</wgt>
  <wgt id="973">4.06219e-12</wgt>
  <wgt id="974">5.48146e-12</wgt>
  <wgt id="975">4.25465e-12</wgt>
  <wgt id="976">4.41424e-12</wgt>
  <wgt id="977">3.42812e-12</wgt>
  <wgt id="978">4.60914e-12</wgt>
  <wgt id="979">5.1465e-12</wgt>
  <wgt id="980">4.35175e-12</wgt>
  <wgt id="981">4.49608e-12</wgt>
  <wgt id="982">4.25216e-12</wgt>
</rwgt>
</event>
<event>
 5   1  0.3028200E-11  0.2477305E+04  0.7818608E-02  0.7651801E-01
       21   -1    0    0  502  501  0.00000000000E+00  0.00000000000E+00  0.73364373143E+03  0.73364373143E+03  0.00000000000E+00 0. -1.
       21   -1    0    0  501  502 -0.00000000000E+00 -0.00000000000E+00 -0.20912875778E+04  0.20912875778E+04  0.00000000000E+00 0.  1.
       39    2    1    2    0    0  0.00000000000E+00  0.00000000000E+00 -0.13576438463E+04  0.28249313092E+04  0.24773050051E+04 0.  0.
       25    1    3    3    0    0 -0.35069968474E+03  0.10728391356E+04 -0.12428630012E+04  0.16835401746E+04  0.12500000000E+03 0.  0.
       25    1    3    3    0    0  0.35069968474E+03 -0.10728391356E+04 -0.11478084511E+03  0.11413911346E+04  0.12500000000E+03 0.  0.
<mgrwt>
<rscale>  0 0.24773050E+04</rscale>
<asrwt>0</asrwt>
<pdfrwt beam="1">  1       21 0.11286827E+00 0.24773050E+04</pdfrwt>
<pdfrwt beam="2">  1       21 0.32173655E+00 0.24773050E+04</pdfrwt>
<totfact> 0.50686584E+00</totfact>
</mgrwt>
<rwgt>
  <wgt id="1">3.0282e-12</wgt>
  <wgt id="2">2.60836e-12</wgt>
  <wgt id="3">3.55562e-12</wgt>
  <wgt id="4">3.0282e-12</wgt>
  <wgt id="5">2.60836e-12</wgt>
  <wgt id="6">3.55562e-12</wgt>
  <wgt id="7">3.0282e-12</wgt>
  <wgt id="8">2.60836e-12</wgt>
  <wgt id="9">3.55562e-12</wgt>
  <wgt id="10">3.1992e-12</wgt>
  <wgt id="11">3.19806e-12</wgt>
  <wgt id="12">3.19124e-12</wgt>
  <wgt id="13">3.1922e-12</wgt>
  <wgt id="14">3.20958e-12</wgt>
  <wgt id="15">3.20448e-12</wgt>
  <wgt id="16">3.19121e-12</wgt>
  <wgt id="17">3.21635e-12</wgt>
  <wgt id="18">3.19618e-12</wgt>
  <wgt id="19">3.2123e-12</wgt>
  <wgt id="20">3.19755e-12</wgt>
  <wgt id="21">3.1733e-12</wgt>
  <wgt id="22">3.17612e-12</wgt>
  <wgt id="23">3.14941e-12</wgt>
  <wgt id="24">3.17422e-12</wgt>
  <wgt id="25">3.18668e-12</wgt>
  <wgt id="26">3.20843e-12</wgt>
  <wgt id="27">3.1929e-12</wgt>
  <wgt id="28">3.17817e-12</wgt>
  <wgt id="29">3.20028e-12</wgt>
  <wgt id="30">3.17277e-12</wgt>
  <wgt id="31">3.21373e-12</wgt>
  <wgt id="32">3.17455e-12</wgt>
  <wgt id="33">3.20366e-12</wgt>
  <wgt id="34">3.17808e-12</wgt>
  <wgt id="35">3.17672e-12</wgt>
  <wgt id="36">3.21453e-12</wgt>
  <wgt id="37">3.18797e-12</wgt>
  <wgt id="38">3.18547e-12</wgt>
  <wgt id="39">3.25763e-12</wgt>
  <wgt id="40">3.20384e-12</wgt>
  <wgt id="41">3.19668e-12</wgt>
  <wgt id="42">3.20776e-12</wgt>
  <wgt id="43">3.20239e-12</wgt>
  <wgt id="44">3.21279e-12</wgt>
  <wgt id="45">3.20324e-12</wgt>
  <wgt id="46">3.18608e-12</wgt>
  <wgt id="47">3.2278e-12</wgt>
  <wgt id="48">3.21837e-12</wgt>
  <wgt id="49">3.18465e-12</wgt>
  <wgt id="50">3.17403e-12</wgt>
  <wgt id="51">3.17978e-12</wgt>
  <wgt id="52">3.2047e-12</wgt>
  <wgt id="53">3.22919e-12</wgt>
  <wgt id="54">3.21471e-12</wgt>
  <wgt id="55">3.19749e-12</wgt>
  <wgt id="56">3.18374e-12</wgt>
  <wgt id="57">3.18032e-12</wgt>
  <wgt id="58">3.196e-12</wgt>
  <wgt id="59">3.20435e-12</wgt>
  <wgt id="60">3.17325e-12</wgt>
  <wgt id="61">3.18154e-12</wgt>
  <wgt id="62">3.19287e-12</wgt>
  <wgt id="63">3.19652e-12</wgt>
  <wgt id="64">3.19645e-12</wgt>
  <wgt id="65">3.18637e-12</wgt>
  <wgt id="66">3.20242e-12</wgt>
  <wgt id="67">3.19511e-12</wgt>
  <wgt id="68">3.19804e-12</wgt>
  <wgt id="69">3.19319e-12</wgt>
  <wgt id="70">3.18961e-12</wgt>
  <wgt id="71">3.1974e-12</wgt>
  <wgt id="72">3.18114e-12</wgt>
  <wgt id="73">3.21201e-12</wgt>
  <wgt id="74">3.21128e-12</wgt>
  <wgt id="75">3.19796e-12</wgt>
  <wgt id="76">3.22079e-12</wgt>
  <wgt id="77">3.19304e-12</wgt>
  <wgt id="78">3.19618e-12</wgt>
  <wgt id="79">3.20782e-12</wgt>
  <wgt id="80">3.17197e-12</wgt>
  <wgt id="81">3.19839e-12</wgt>
  <wgt id="82">3.20222e-12</wgt>
  <wgt id="83">3.17852e-12</wgt>
  <wgt id="84">3.18873e-12</wgt>
  <wgt id="85">3.18604e-12</wgt>
  <wgt id="86">3.21255e-12</wgt>
  <wgt id="87">3.16877e-12</wgt>
  <wgt id="88">3.20829e-12</wgt>
  <wgt id="89">3.20495e-12</wgt>
  <wgt id="90">3.2112e-12</wgt>
  <wgt id="91">3.20336e-12</wgt>
  <wgt id="92">3.20853e-12</wgt>
  <wgt id="93">3.20334e-12</wgt>
  <wgt id="94">3.19043e-12</wgt>
  <wgt id="95">3.21057e-12</wgt>
  <wgt id="96">3.2074e-12</wgt>
  <wgt id="97">3.18611e-12</wgt>
  <wgt id="98">3.19906e-12</wgt>
  <wgt id="99">3.19393e-12</wgt>
  <wgt id="100">3.20682e-12</wgt>
  <wgt id="101">3.1953e-12</wgt>
  <wgt id="102">3.19342e-12</wgt>
  <wgt id="103">3.21106e-12</wgt>
  <wgt id="104">3.19312e-12</wgt>
  <wgt id="105">3.20674e-12</wgt>
  <wgt id="106">3.19051e-12</wgt>
  <wgt id="107">3.2187e-12</wgt>
  <wgt id="108">3.19287e-12</wgt>
  <wgt id="109">3.20187e-12</wgt>
  <wgt id="110">3.19797e-12</wgt>
  <wgt id="111">3.20548e-12</wgt>
  <wgt id="112">3.23869e-12</wgt>
  <wgt id="113">4.63759e-12</wgt>
  <wgt id="114">4.33369e-12</wgt>
  <wgt id="115">4.25586e-12</wgt>
  <wgt id="116">6.01904e-12</wgt>
  <wgt id="117">3.5639e-12</wgt>
  <wgt id="118">3.57799e-12</wgt>
  <wgt id="119">3.55583e-12</wgt>
  <wgt id="120">3.56396e-12</wgt>
  <wgt id="121">3.56383e-12</wgt>
  <wgt id="122">3.55836e-12</wgt>
  <wgt id="123">3.5716e-12</wgt>
  <wgt id="124">3.55925e-12</wgt>
  <wgt id="125">3.5669e-12</wgt>
  <wgt id="126">3.56975e-12</wgt>
  <wgt id="127">3.55998e-12</wgt>
  <wgt id="128">3.57476e-12</wgt>
  <wgt id="129">3.55306e-12</wgt>
  <wgt id="130">3.58222e-12</wgt>
  <wgt id="131">3.54492e-12</wgt>
  <wgt id="132">3.46326e-12</wgt>
  <wgt id="133">3.68415e-12</wgt>
  <wgt id="134">3.52424e-12</wgt>
  <wgt id="135">3.59502e-12</wgt>
  <wgt id="136">3.61979e-12</wgt>
  <wgt id="137">3.49677e-12</wgt>
  <wgt id="138">3.72976e-12</wgt>
  <wgt id="139">3.40674e-12</wgt>
  <wgt id="140">3.54664e-12</wgt>
  <wgt id="141">3.577e-12</wgt>
  <wgt id="142">3.56309e-12</wgt>
  <wgt id="143">3.57492e-12</wgt>
  <wgt id="144">3.41174e-12</wgt>
  <wgt id="145">3.71214e-12</wgt>
  <wgt id="146">3.61306e-12</wgt>
  <wgt id="147">3.52373e-12</wgt>
  <wgt id="148">3.57733e-12</wgt>
  <wgt id="149">3.56295e-12</wgt>
  <wgt id="150">3.59467e-12</wgt>
  <wgt id="151">3.54944e-12</wgt>
  <wgt id="152">3.56509e-12</wgt>
  <wgt id="153">3.56349e-12</wgt>
  <wgt id="154">3.57264e-12</wgt>
  <wgt id="155">3.54711e-12</wgt>
  <wgt id="156">3.68828e-12</wgt>
  <wgt id="157">3.45114e-12</wgt>
  <wgt id="158">4.26917e-12</wgt>
  <wgt id="159">4.28735e-12</wgt>
  <wgt id="160">4.25443e-12</wgt>
  <wgt id="161">4.25755e-12</wgt>
  <wgt id="162">4.28203e-12</wgt>
  <wgt id="163">4.26399e-12</wgt>
  <wgt id="164">4.27676e-12</wgt>
  <wgt id="165">4.27073e-12</wgt>
  <wgt id="166">4.26789e-12</wgt>
  <wgt id="167">4.26617e-12</wgt>
  <wgt id="168">4.27319e-12</wgt>
  <wgt id="169">4.25186e-12</wgt>
  <wgt id="170">4.27984e-12</wgt>
  <wgt id="171">4.26536e-12</wgt>
  <wgt id="172">4.27438e-12</wgt>
  <wgt id="173">4.26162e-12</wgt>
  <wgt id="174">4.27163e-12</wgt>
  <wgt id="175">4.1404e-12</wgt>
  <wgt id="176">4.43816e-12</wgt>
  <wgt id="177">4.29045e-12</wgt>
  <wgt id="178">4.24981e-12</wgt>
  <wgt id="179">4.49176e-12</wgt>
  <wgt id="180">3.92653e-12</wgt>
  <wgt id="181">4.12264e-12</wgt>
  <wgt id="182">4.36689e-12</wgt>
  <wgt id="183">4.18028e-12</wgt>
  <wgt id="184">4.31328e-12</wgt>
  <wgt id="185">4.22136e-12</wgt>
  <wgt id="186">4.32736e-12</wgt>
  <wgt id="187">4.22097e-12</wgt>
  <wgt id="188">4.35436e-12</wgt>
  <wgt id="189">4.23478e-12</wgt>
  <wgt id="190">4.28302e-12</wgt>
  <wgt id="191">4.28451e-12</wgt>
  <wgt id="192">4.26003e-12</wgt>
  <wgt id="193">4.34319e-12</wgt>
  <wgt id="194">4.23202e-12</wgt>
  <wgt id="195">4.10723e-12</wgt>
  <wgt id="196">4.53316e-12</wgt>
  <wgt id="197">4.29295e-12</wgt>
  <wgt id="198">4.26341e-12</wgt>
  <wgt id="199">4.26917e-12</wgt>
  <wgt id="200">4.31144e-12</wgt>
  <wgt id="201">4.297e-12</wgt>
  <wgt id="202">4.28303e-12</wgt>
  <wgt id="203">4.26279e-12</wgt>
  <wgt id="204">4.25264e-12</wgt>
  <wgt id="205">4.24436e-12</wgt>
  <wgt id="206">4.16161e-12</wgt>
  <wgt id="207">4.18679e-12</wgt>
  <wgt id="208">4.13675e-12</wgt>
  <wgt id="209">4.17557e-12</wgt>
  <wgt id="210">4.15151e-12</wgt>
  <wgt id="211">4.15992e-12</wgt>
  <wgt id="212">4.16296e-12</wgt>
  <wgt id="213">4.16126e-12</wgt>
  <wgt id="214">4.16216e-12</wgt>
  <wgt id="215">4.16507e-12</wgt>
  <wgt id="216">4.15914e-12</wgt>
  <wgt id="217">4.17202e-12</wgt>
  <wgt id="218">4.15363e-12</wgt>
  <wgt id="219">4.15756e-12</wgt>
  <wgt id="220">4.16405e-12</wgt>
  <wgt id="221">4.16277e-12</wgt>
  <wgt id="222">4.15803e-12</wgt>
  <wgt id="223">3.91761e-12</wgt>
  <wgt id="224">4.38575e-12</wgt>
  <wgt id="225">4.10784e-12</wgt>
  <wgt id="226">4.23007e-12</wgt>
  <wgt id="227">4.12013e-12</wgt>
  <wgt id="228">4.17981e-12</wgt>
  <wgt id="229">4.09987e-12</wgt>
  <wgt id="230">4.19236e-12</wgt>
  <wgt id="231">4.30579e-12</wgt>
  <wgt id="232">4.04395e-12</wgt>
  <wgt id="233">4.13486e-12</wgt>
  <wgt id="234">4.20648e-12</wgt>
  <wgt id="235">3.98888e-12</wgt>
  <wgt id="236">4.30312e-12</wgt>
  <wgt id="237">4.06043e-12</wgt>
  <wgt id="238">4.19537e-12</wgt>
  <wgt id="239">4.12077e-12</wgt>
  <wgt id="240">4.23484e-12</wgt>
  <wgt id="241">4.1095e-12</wgt>
  <wgt id="242">4.22361e-12</wgt>
  <wgt id="243">4.23948e-12</wgt>
  <wgt id="244">4.16249e-12</wgt>
  <wgt id="245">4.16002e-12</wgt>
  <wgt id="246">4.18574e-12</wgt>
  <wgt id="247">4.16161e-12</wgt>
  <wgt id="248">4.20681e-12</wgt>
  <wgt id="249">4.19124e-12</wgt>
  <wgt id="250">4.17487e-12</wgt>
  <wgt id="251">4.15286e-12</wgt>
  <wgt id="252">4.14147e-12</wgt>
  <wgt id="253">4.13377e-12</wgt>
  <wgt id="254">4.01913e-12</wgt>
  <wgt id="255">4.02282e-12</wgt>
  <wgt id="256">4.01515e-12</wgt>
  <wgt id="257">4.02222e-12</wgt>
  <wgt id="258">4.01695e-12</wgt>
  <wgt id="259">4.04624e-12</wgt>
  <wgt id="260">3.993e-12</wgt>
  <wgt id="261">4.02658e-12</wgt>
  <wgt id="262">4.01035e-12</wgt>
  <wgt id="263">4.01608e-12</wgt>
  <wgt id="264">4.02283e-12</wgt>
  <wgt id="265">4.01389e-12</wgt>
  <wgt id="266">4.02974e-12</wgt>
  <wgt id="267">4.02062e-12</wgt>
  <wgt id="268">4.01715e-12</wgt>
  <wgt id="269">4.03263e-12</wgt>
  <wgt id="270">4.01002e-12</wgt>
  <wgt id="271">4.00858e-12</wgt>
  <wgt id="272">4.03095e-12</wgt>
  <wgt id="273">4.00769e-12</wgt>
  <wgt id="274">4.0279e-12</wgt>
  <wgt id="275">3.99444e-12</wgt>
  <wgt id="276">4.04479e-12</wgt>
  <wgt id="277">3.99529e-12</wgt>
  <wgt id="278">4.04092e-12</wgt>
  <wgt id="279">3.94005e-12</wgt>
  <wgt id="280">4.11888e-12</wgt>
  <wgt id="281">3.99902e-12</wgt>
  <wgt id="282">4.02482e-12</wgt>
  <wgt id="283">3.88375e-12</wgt>
  <wgt id="284">4.18842e-12</wgt>
  <wgt id="285">3.79686e-12</wgt>
  <wgt id="286">4.20743e-12</wgt>
  <wgt id="287">4.03369e-12</wgt>
  <wgt id="288">4.00061e-12</wgt>
  <wgt id="289">4.0526e-12</wgt>
  <wgt id="290">3.94527e-12</wgt>
  <wgt id="291">4.0033e-12</wgt>
  <wgt id="292">4.01958e-12</wgt>
  <wgt id="293">3.98284e-12</wgt>
  <wgt id="294">4.05535e-12</wgt>
  <wgt id="295">3.93159e-12</wgt>
  <wgt id="296">4.12662e-12</wgt>
  <wgt id="297">4.00867e-12</wgt>
  <wgt id="298">4.04086e-12</wgt>
  <wgt id="299">4.00492e-12</wgt>
  <wgt id="300">4.05719e-12</wgt>
  <wgt id="301">3.93211e-12</wgt>
  <wgt id="302">4.2185e-12</wgt>
  <wgt id="303">3.97246e-12</wgt>
  <wgt id="304">4.04529e-12</wgt>
  <wgt id="305">3.98385e-12</wgt>
  <wgt id="306">3.98769e-12</wgt>
  <wgt id="307">3.97979e-12</wgt>
  <wgt id="308">3.98723e-12</wgt>
  <wgt id="309">3.98162e-12</wgt>
  <wgt id="310">4.01151e-12</wgt>
  <wgt id="311">3.95832e-12</wgt>
  <wgt id="312">3.99065e-12</wgt>
  <wgt id="313">3.97665e-12</wgt>
  <wgt id="314">3.98066e-12</wgt>
  <wgt id="315">3.98692e-12</wgt>
  <wgt id="316">3.97856e-12</wgt>
  <wgt id="317">3.99534e-12</wgt>
  <wgt id="318">3.98705e-12</wgt>
  <wgt id="319">3.97829e-12</wgt>
  <wgt id="320">3.99826e-12</wgt>
  <wgt id="321">3.97581e-12</wgt>
  <wgt id="322">3.97213e-12</wgt>
  <wgt id="323">3.99743e-12</wgt>
  <wgt id="324">3.97513e-12</wgt>
  <wgt id="325">3.99146e-12</wgt>
  <wgt id="326">3.96365e-12</wgt>
  <wgt id="327">4.00981e-12</wgt>
  <wgt id="328">3.96309e-12</wgt>
  <wgt id="329">3.99528e-12</wgt>
  <wgt id="330">4.10313e-12</wgt>
  <wgt id="331">3.87064e-12</wgt>
  <wgt id="332">3.96711e-12</wgt>
  <wgt id="333">3.98734e-12</wgt>
  <wgt id="334">3.88074e-12</wgt>
  <wgt id="335">4.11343e-12</wgt>
  <wgt id="336">3.82621e-12</wgt>
  <wgt id="337">4.17967e-12</wgt>
  <wgt id="338">4.03439e-12</wgt>
  <wgt id="339">3.93737e-12</wgt>
  <wgt id="340">4.01406e-12</wgt>
  <wgt id="341">3.90949e-12</wgt>
  <wgt id="342">3.97244e-12</wgt>
  <wgt id="343">3.97602e-12</wgt>
  <wgt id="344">3.95207e-12</wgt>
  <wgt id="345">4.0208e-12</wgt>
  <wgt id="346">3.89436e-12</wgt>
  <wgt id="347">4.08663e-12</wgt>
  <wgt id="348">3.97385e-12</wgt>
  <wgt id="349">4.00352e-12</wgt>
  <wgt id="350">3.96625e-12</wgt>
  <wgt id="351">4.02863e-12</wgt>
  <wgt id="352">3.89456e-12</wgt>
  <wgt id="353">4.17926e-12</wgt>
  <wgt id="354">3.91712e-12</wgt>
  <wgt id="355">4.02342e-12</wgt>
  <wgt id="356">4.01913e-12</wgt>
  <wgt id="357">3.98716e-12</wgt>
  <wgt id="358">3.98385e-12</wgt>
  <wgt id="359">4.01873e-12</wgt>
  <wgt id="360">4.08986e-12</wgt>
  <wgt id="361">4.04055e-12</wgt>
  <wgt id="362">4.12435e-12</wgt>
  <wgt id="363">4.11326e-12</wgt>
  <wgt id="364">4.09249e-12</wgt>
  <wgt id="365">4.07624e-12</wgt>
  <wgt id="366">4.05965e-12</wgt>
  <wgt id="367">4.02809e-12</wgt>
  <wgt id="368">4.00821e-12</wgt>
  <wgt id="369">3.98675e-12</wgt>
  <wgt id="370">4.04055e-12</wgt>
  <wgt id="371">4.05778e-12</wgt>
  <wgt id="372">4.04808e-12</wgt>
  <wgt id="373">4.03444e-12</wgt>
  <wgt id="374">4.03938e-12</wgt>
  <wgt id="375">4.61888e-12</wgt>
  <wgt id="376">4.61931e-12</wgt>
  <wgt id="377">4.61823e-12</wgt>
  <wgt id="378">4.63653e-12</wgt>
  <wgt id="379">4.60131e-12</wgt>
  <wgt id="380">4.63194e-12</wgt>
  <wgt id="381">4.61364e-12</wgt>
  <wgt id="382">4.6419e-12</wgt>
  <wgt id="383">4.59607e-12</wgt>
  <wgt id="384">4.62189e-12</wgt>
  <wgt id="385">4.61594e-12</wgt>
  <wgt id="386">4.63541e-12</wgt>
  <wgt id="387">4.61172e-12</wgt>
  <wgt id="388">4.61461e-12</wgt>
  <wgt id="389">4.62409e-12</wgt>
  <wgt id="390">4.63012e-12</wgt>
  <wgt id="391">4.60689e-12</wgt>
  <wgt id="392">4.5752e-12</wgt>
  <wgt id="393">4.64362e-12</wgt>
  <wgt id="394">4.62253e-12</wgt>
  <wgt id="395">4.6136e-12</wgt>
  <wgt id="396">4.62745e-12</wgt>
  <wgt id="397">4.61274e-12</wgt>
  <wgt id="398">4.60736e-12</wgt>
  <wgt id="399">4.62995e-12</wgt>
  <wgt id="400">4.61079e-12</wgt>
  <wgt id="401">4.63698e-12</wgt>
  <wgt id="402">4.57386e-12</wgt>
  <wgt id="403">4.64706e-12</wgt>
  <wgt id="404">4.75733e-12</wgt>
  <wgt id="405">4.29047e-12</wgt>
  <wgt id="406">4.51973e-12</wgt>
  <wgt id="407">4.8394e-12</wgt>
  <wgt id="408">4.67081e-12</wgt>
  <wgt id="409">4.52312e-12</wgt>
  <wgt id="410">4.45824e-12</wgt>
  <wgt id="411">4.69635e-12</wgt>
  <wgt id="412">4.60776e-12</wgt>
  <wgt id="413">4.63545e-12</wgt>
  <wgt id="414">4.5549e-12</wgt>
  <wgt id="415">4.66862e-12</wgt>
  <wgt id="416">4.78345e-12</wgt>
  <wgt id="417">4.39357e-12</wgt>
  <wgt id="418">4.62831e-12</wgt>
  <wgt id="419">4.56802e-12</wgt>
  <wgt id="420">4.73943e-12</wgt>
  <wgt id="421">4.53914e-12</wgt>
  <wgt id="422">4.58871e-12</wgt>
  <wgt id="423">4.63302e-12</wgt>
  <wgt id="424">4.76452e-12</wgt>
  <wgt id="425">4.52053e-12</wgt>
  <wgt id="426">4.61888e-12</wgt>
  <wgt id="427">4.52448e-12</wgt>
  <wgt id="428">4.8375e-12</wgt>
  <wgt id="429">4.68473e-12</wgt>
  <wgt id="430">4.84506e-12</wgt>
  <wgt id="431">4.81224e-12</wgt>
  <wgt id="432">4.78273e-12</wgt>
  <wgt id="433">4.75371e-12</wgt>
  <wgt id="434">4.7166e-12</wgt>
  <wgt id="435">4.64476e-12</wgt>
  <wgt id="436">4.60855e-12</wgt>
  <wgt id="437">4.57322e-12</wgt>
  <wgt id="438">4.68473e-12</wgt>
  <wgt id="439">4.69918e-12</wgt>
  <wgt id="440">4.69017e-12</wgt>
  <wgt id="441">4.6809e-12</wgt>
  <wgt id="442">4.67795e-12</wgt>
  <wgt id="443">4.21968e-12</wgt>
  <wgt id="444">4.26467e-12</wgt>
  <wgt id="445">4.25731e-12</wgt>
  <wgt id="446">4.18884e-12</wgt>
  <wgt id="447">4.21747e-12</wgt>
  <wgt id="448">4.11121e-12</wgt>
  <wgt id="449">4.31136e-12</wgt>
  <wgt id="450">4.26852e-12</wgt>
  <wgt id="451">4.2075e-12</wgt>
  <wgt id="452">4.31879e-12</wgt>
  <wgt id="453">4.27719e-12</wgt>
  <wgt id="454">3.99419e-12</wgt>
  <wgt id="455">4.25355e-12</wgt>
  <wgt id="456">4.29115e-12</wgt>
  <wgt id="457">4.23591e-12</wgt>
  <wgt id="458">4.29472e-12</wgt>
  <wgt id="459">4.25848e-12</wgt>
  <wgt id="460">4.30253e-12</wgt>
  <wgt id="461">4.11281e-12</wgt>
  <wgt id="462">4.18467e-12</wgt>
  <wgt id="463">4.15021e-12</wgt>
  <wgt id="464">4.19653e-12</wgt>
  <wgt id="465">4.2688e-12</wgt>
  <wgt id="466">4.11484e-12</wgt>
  <wgt id="467">4.18316e-12</wgt>
  <wgt id="468">4.21527e-12</wgt>
  <wgt id="469">4.20623e-12</wgt>
  <wgt id="470">4.15195e-12</wgt>
  <wgt id="471">4.16339e-12</wgt>
  <wgt id="472">4.25112e-12</wgt>
  <wgt id="473">4.06654e-12</wgt>
  <wgt id="474">3.0282e-12</wgt>
  <wgt id="475">3.04119e-12</wgt>
  <wgt id="476">3.01448e-12</wgt>
  <wgt id="477">3.09447e-12</wgt>
  <wgt id="478">3.07009e-12</wgt>
  <wgt id="479">2.87414e-12</wgt>
  <wgt id="480">3.18934e-12</wgt>
  <wgt id="481">3.04275e-12</wgt>
  <wgt id="482">3.02566e-12</wgt>
  <wgt id="483">3.04508e-12</wgt>
  <wgt id="484">3.17175e-12</wgt>
  <wgt id="485">2.78064e-12</wgt>
  <wgt id="486">3.17734e-12</wgt>
  <wgt id="487">2.94821e-12</wgt>
  <wgt id="488">3.05446e-12</wgt>
  <wgt id="489">2.7148e-12</wgt>
  <wgt id="490">2.9755e-12</wgt>
  <wgt id="491">2.98238e-12</wgt>
  <wgt id="492">2.97088e-12</wgt>
  <wgt id="493">2.79376e-12</wgt>
  <wgt id="494">2.80555e-12</wgt>
  <wgt id="495">3.04586e-12</wgt>
  <wgt id="496">2.86833e-12</wgt>
  <wgt id="497">2.825e-12</wgt>
  <wgt id="498">3.11471e-12</wgt>
  <wgt id="499">3.05001e-12</wgt>
  <wgt id="500">2.99106e-12</wgt>
  <wgt id="501">3.16504e-12</wgt>
  <wgt id="502">3.14667e-12</wgt>
  <wgt id="503">2.9701e-12</wgt>
  <wgt id="504">3.12892e-12</wgt>
  <wgt id="505">3.15802e-12</wgt>
  <wgt id="506">2.81181e-12</wgt>
  <wgt id="507">2.96972e-12</wgt>
  <wgt id="508">3.18772e-12</wgt>
  <wgt id="509">2.92789e-12</wgt>
  <wgt id="510">3.06079e-12</wgt>
  <wgt id="511">2.87213e-12</wgt>
  <wgt id="512">3.24051e-12</wgt>
  <wgt id="513">3.16946e-12</wgt>
  <wgt id="514">3.1964e-12</wgt>
  <wgt id="515">3.1122e-12</wgt>
  <wgt id="516">3.34828e-12</wgt>
  <wgt id="517">3.10435e-12</wgt>
  <wgt id="518">3.14536e-12</wgt>
  <wgt id="519">2.90166e-12</wgt>
  <wgt id="520">3.06945e-12</wgt>
  <wgt id="521">2.96373e-12</wgt>
  <wgt id="522">3.15336e-12</wgt>
  <wgt id="523">2.89004e-12</wgt>
  <wgt id="524">3.10478e-12</wgt>
  <wgt id="525">2.96993e-12</wgt>
  <wgt id="526">3.18957e-12</wgt>
  <wgt id="527">2.99617e-12</wgt>
  <wgt id="528">3.01846e-12</wgt>
  <wgt id="529">2.88235e-12</wgt>
  <wgt id="530">3.18403e-12</wgt>
  <wgt id="531">2.89942e-12</wgt>
  <wgt id="532">3.29457e-12</wgt>
  <wgt id="533">3.00652e-12</wgt>
  <wgt id="534">2.90789e-12</wgt>
  <wgt id="535">3.07257e-12</wgt>
  <wgt id="536">3.13694e-12</wgt>
  <wgt id="537">2.8745e-12</wgt>
  <wgt id="538">3.00646e-12</wgt>
  <wgt id="539">2.95135e-12</wgt>
  <wgt id="540">3.19852e-12</wgt>
  <wgt id="541">3.01552e-12</wgt>
  <wgt id="542">2.95706e-12</wgt>
  <wgt id="543">2.91564e-12</wgt>
  <wgt id="544">3.06265e-12</wgt>
  <wgt id="545">2.86334e-12</wgt>
  <wgt id="546">2.7972e-12</wgt>
  <wgt id="547">2.91335e-12</wgt>
  <wgt id="548">2.92492e-12</wgt>
  <wgt id="549">2.96539e-12</wgt>
  <wgt id="550">2.93942e-12</wgt>
  <wgt id="551">3.0387e-12</wgt>
  <wgt id="552">2.79425e-12</wgt>
  <wgt id="553">2.83951e-12</wgt>
  <wgt id="554">3.19011e-12</wgt>
  <wgt id="555">3.10331e-12</wgt>
  <wgt id="556">2.9755e-12</wgt>
  <wgt id="557">3.09139e-12</wgt>
  <wgt id="558">2.99206e-12</wgt>
  <wgt id="559">3.06121e-12</wgt>
  <wgt id="560">3.36013e-12</wgt>
  <wgt id="561">3.10564e-12</wgt>
  <wgt id="562">3.13855e-12</wgt>
  <wgt id="563">3.32881e-12</wgt>
  <wgt id="564">3.20077e-12</wgt>
  <wgt id="565">3.13237e-12</wgt>
  <wgt id="566">2.92768e-12</wgt>
  <wgt id="567">3.0259e-12</wgt>
  <wgt id="568">2.91351e-12</wgt>
  <wgt id="569">3.04983e-12</wgt>
  <wgt id="570">3.02857e-12</wgt>
  <wgt id="571">3.36958e-12</wgt>
  <wgt id="572">2.91538e-12</wgt>
  <wgt id="573">2.93505e-12</wgt>
  <wgt id="574">2.95444e-12</wgt>
  <wgt id="575">3.35782e-12</wgt>
  <wgt id="576">3.65803e-12</wgt>
  <wgt id="577">3.49894e-12</wgt>
  <wgt id="578">3.39449e-12</wgt>
  <wgt id="579">3.48742e-12</wgt>
  <wgt id="580">3.57449e-12</wgt>
  <wgt id="581">3.70836e-12</wgt>
  <wgt id="582">3.58315e-12</wgt>
  <wgt id="583">3.4299e-12</wgt>
  <wgt id="584">3.32411e-12</wgt>
  <wgt id="585">3.11195e-12</wgt>
  <wgt id="586">3.15358e-12</wgt>
  <wgt id="587">3.42148e-12</wgt>
  <wgt id="588">3.68578e-12</wgt>
  <wgt id="589">3.68108e-12</wgt>
  <wgt id="590">3.3409e-12</wgt>
  <wgt id="591">3.45475e-12</wgt>
  <wgt id="592">3.14812e-12</wgt>
  <wgt id="593">3.2542e-12</wgt>
  <wgt id="594">3.27561e-12</wgt>
  <wgt id="595">3.53365e-12</wgt>
  <wgt id="596">3.95765e-12</wgt>
  <wgt id="597">3.40168e-12</wgt>
  <wgt id="598">3.42549e-12</wgt>
  <wgt id="599">3.58488e-12</wgt>
  <wgt id="600">3.59627e-12</wgt>
  <wgt id="601">3.21294e-12</wgt>
  <wgt id="602">3.2464e-12</wgt>
  <wgt id="603">3.13805e-12</wgt>
  <wgt id="604">3.44959e-12</wgt>
  <wgt id="605">3.38768e-12</wgt>
  <wgt id="606">3.40535e-12</wgt>
  <wgt id="607">3.51554e-12</wgt>
  <wgt id="608">3.48422e-12</wgt>
  <wgt id="609">3.30491e-12</wgt>
  <wgt id="610">3.20119e-12</wgt>
  <wgt id="611">3.20624e-12</wgt>
  <wgt id="612">3.47882e-12</wgt>
  <wgt id="613">3.19123e-12</wgt>
  <wgt id="614">3.33223e-12</wgt>
  <wgt id="615">3.41656e-12</wgt>
  <wgt id="616">3.21447e-12</wgt>
  <wgt id="617">3.49727e-12</wgt>
  <wgt id="618">3.68085e-12</wgt>
  <wgt id="619">3.28734e-12</wgt>
  <wgt id="620">3.46498e-12</wgt>
  <wgt id="621">3.31902e-12</wgt>
  <wgt id="622">3.42148e-12</wgt>
  <wgt id="623">3.36436e-12</wgt>
  <wgt id="624">3.37266e-12</wgt>
  <wgt id="625">3.1928e-12</wgt>
  <wgt id="626">2.97165e-12</wgt>
  <wgt id="627">3.02383e-12</wgt>
  <wgt id="628">3.35127e-12</wgt>
  <wgt id="629">3.43665e-12</wgt>
  <wgt id="630">3.27792e-12</wgt>
  <wgt id="631">3.45129e-12</wgt>
  <wgt id="632">3.0597e-12</wgt>
  <wgt id="633">3.33287e-12</wgt>
  <wgt id="634">3.21151e-12</wgt>
  <wgt id="635">3.09529e-12</wgt>
  <wgt id="636">3.38901e-12</wgt>
  <wgt id="637">3.35204e-12</wgt>
  <wgt id="638">3.18936e-12</wgt>
  <wgt id="639">3.20058e-12</wgt>
  <wgt id="640">3.2663e-12</wgt>
  <wgt id="641">3.52183e-12</wgt>
  <wgt id="642">3.07034e-12</wgt>
  <wgt id="643">3.26395e-12</wgt>
  <wgt id="644">3.01581e-12</wgt>
  <wgt id="645">3.35391e-12</wgt>
  <wgt id="646">3.07915e-12</wgt>
  <wgt id="647">3.40292e-12</wgt>
  <wgt id="648">3.52246e-12</wgt>
  <wgt id="649">3.37951e-12</wgt>
  <wgt id="650">3.20562e-12</wgt>
  <wgt id="651">3.59225e-12</wgt>
  <wgt id="652">3.2115e-12</wgt>
  <wgt id="653">3.22161e-12</wgt>
  <wgt id="654">3.41389e-12</wgt>
  <wgt id="655">3.2002e-12</wgt>
  <wgt id="656">3.36574e-12</wgt>
  <wgt id="657">3.6746e-12</wgt>
  <wgt id="658">3.38077e-12</wgt>
  <wgt id="659">3.21164e-12</wgt>
  <wgt id="660">3.23777e-12</wgt>
  <wgt id="661">3.26091e-12</wgt>
  <wgt id="662">3.29698e-12</wgt>
  <wgt id="663">3.41937e-12</wgt>
  <wgt id="664">3.40196e-12</wgt>
  <wgt id="665">3.31065e-12</wgt>
  <wgt id="666">3.27453e-12</wgt>
  <wgt id="667">3.54658e-12</wgt>
  <wgt id="668">3.30829e-12</wgt>
  <wgt id="669">3.3446e-12</wgt>
  <wgt id="670">3.52837e-12</wgt>
  <wgt id="671">3.39374e-12</wgt>
  <wgt id="672">3.27474e-12</wgt>
  <wgt id="673">3.57987e-12</wgt>
  <wgt id="674">3.24897e-12</wgt>
  <wgt id="675">3.21595e-12</wgt>
  <wgt id="676">4.38454e-12</wgt>
  <wgt id="677">4.42445e-12</wgt>
  <wgt id="678">4.83305e-12</wgt>
  <wgt id="679">4.50469e-12</wgt>
  <wgt id="680">4.41666e-12</wgt>
  <wgt id="681">4.27409e-12</wgt>
  <wgt id="682">4.60543e-12</wgt>
  <wgt id="683">4.01573e-12</wgt>
  <wgt id="684">4.64491e-12</wgt>
  <wgt id="685">4.35899e-12</wgt>
  <wgt id="686">4.49798e-12</wgt>
  <wgt id="687">4.54903e-12</wgt>
  <wgt id="688">4.23717e-12</wgt>
  <wgt id="689">4.62872e-12</wgt>
  <wgt id="690">4.52139e-12</wgt>
  <wgt id="691">4.49169e-12</wgt>
  <wgt id="692">4.26618e-12</wgt>
  <wgt id="693">5.89717e-12</wgt>
  <wgt id="694">4.85262e-12</wgt>
  <wgt id="695">4.07845e-12</wgt>
  <wgt id="696">4.15597e-12</wgt>
  <wgt id="697">3.9211e-12</wgt>
  <wgt id="698">3.58435e-12</wgt>
  <wgt id="699">3.6792e-12</wgt>
  <wgt id="700">3.84325e-12</wgt>
  <wgt id="701">4.3852e-12</wgt>
  <wgt id="702">4.18205e-12</wgt>
  <wgt id="703">5.51886e-12</wgt>
  <wgt id="704">4.97131e-12</wgt>
  <wgt id="705">4.93173e-12</wgt>
  <wgt id="706">4.04704e-12</wgt>
  <wgt id="707">4.08728e-12</wgt>
  <wgt id="708">4.17999e-12</wgt>
  <wgt id="709">4.23957e-12</wgt>
  <wgt id="710">3.61567e-12</wgt>
  <wgt id="711">4.6997e-12</wgt>
  <wgt id="712">4.10596e-12</wgt>
  <wgt id="713">4.73405e-12</wgt>
  <wgt id="714">3.92867e-12</wgt>
  <wgt id="715">4.1662e-12</wgt>
  <wgt id="716">4.20967e-12</wgt>
  <wgt id="717">3.77951e-12</wgt>
  <wgt id="718">4.47853e-12</wgt>
  <wgt id="719">3.98121e-12</wgt>
  <wgt id="720">4.48312e-12</wgt>
  <wgt id="721">3.72725e-12</wgt>
  <wgt id="722">3.39848e-12</wgt>
  <wgt id="723">4.9744e-12</wgt>
  <wgt id="724">4.7793e-12</wgt>
  <wgt id="725">4.6087e-12</wgt>
  <wgt id="726">4.36693e-12</wgt>
  <wgt id="727">4.40435e-12</wgt>
  <wgt id="728">4.31033e-12</wgt>
  <wgt id="729">3.96047e-12</wgt>
  <wgt id="730">4.90706e-12</wgt>
  <wgt id="731">4.32231e-12</wgt>
  <wgt id="732">5.14806e-12</wgt>
  <wgt id="733">4.06625e-12</wgt>
  <wgt id="734">4.55364e-12</wgt>
  <wgt id="735">4.36182e-12</wgt>
  <wgt id="736">4.04842e-12</wgt>
  <wgt id="737">4.05643e-12</wgt>
  <wgt id="738">4.14964e-12</wgt>
  <wgt id="739">4.67436e-12</wgt>
  <wgt id="740">5.25086e-12</wgt>
  <wgt id="741">4.58413e-12</wgt>
  <wgt id="742">4.18299e-12</wgt>
  <wgt id="743">3.96845e-12</wgt>
  <wgt id="744">4.29581e-12</wgt>
  <wgt id="745">4.83921e-12</wgt>
  <wgt id="746">4.97819e-12</wgt>
  <wgt id="747">3.61595e-12</wgt>
  <wgt id="748">4.20765e-12</wgt>
  <wgt id="749">4.58727e-12</wgt>
  <wgt id="750">4.72982e-12</wgt>
  <wgt id="751">4.43402e-12</wgt>
  <wgt id="752">3.92016e-12</wgt>
  <wgt id="753">3.9016e-12</wgt>
  <wgt id="754">4.58535e-12</wgt>
  <wgt id="755">4.28033e-12</wgt>
  <wgt id="756">4.24981e-12</wgt>
  <wgt id="757">3.75664e-12</wgt>
  <wgt id="758">4.27496e-12</wgt>
  <wgt id="759">4.78495e-12</wgt>
  <wgt id="760">4.19743e-12</wgt>
  <wgt id="761">4.89797e-12</wgt>
  <wgt id="762">4.9251e-12</wgt>
  <wgt id="763">4.50993e-12</wgt>
  <wgt id="764">4.71599e-12</wgt>
  <wgt id="765">4.428e-12</wgt>
  <wgt id="766">4.45303e-12</wgt>
  <wgt id="767">4.48738e-12</wgt>
  <wgt id="768">3.96798e-12</wgt>
  <wgt id="769">4.62792e-12</wgt>
  <wgt id="770">4.0765e-12</wgt>
  <wgt id="771">5.46992e-12</wgt>
  <wgt id="772">4.25329e-12</wgt>
  <wgt id="773">4.40902e-12</wgt>
  <wgt id="774">3.44174e-12</wgt>
  <wgt id="775">4.60921e-12</wgt>
  <wgt id="776">5.12566e-12</wgt>
  <wgt id="777">3.84797e-12</wgt>
  <wgt id="778">2.82553e-12</wgt>
  <wgt id="779">1.68444e-12</wgt>
  <wgt id="780">9.48068e-13</wgt>
  <wgt id="781">3.19003e-12</wgt>
  <wgt id="782">3.48382e-12</wgt>
  <wgt id="783">1.47926e-12</wgt>
  <wgt id="784">1.92293e-12</wgt>
  <wgt id="785">4.31316e-12</wgt>
  <wgt id="786">1.44669e-12</wgt>
  <wgt id="787">3.74745e-12</wgt>
  <wgt id="788">4.05532e-13</wgt>
  <wgt id="789">1.86906e-12</wgt>
  <wgt id="790">1.48993e-12</wgt>
  <wgt id="791">3.28916e-12</wgt>
  <wgt id="792">3.86188e-12</wgt>
  <wgt id="793">2.6227e-12</wgt>
  <wgt id="794">1.34498e-12</wgt>
  <wgt id="795">4.02696e-12</wgt>
  <wgt id="796">4.09619e-12</wgt>
  <wgt id="797">3.71749e-12</wgt>
  <wgt id="798">2.11601e-12</wgt>
  <wgt id="799">3.68728e-12</wgt>
  <wgt id="800">2.0988e-12</wgt>
  <wgt id="801">2.78793e-12</wgt>
  <wgt id="802">1.2892e-12</wgt>
  <wgt id="803">4.63666e-12</wgt>
  <wgt id="804">4.01531e-12</wgt>
  <wgt id="805">3.93004e-12</wgt>
  <wgt id="806">3.14604e-12</wgt>
  <wgt id="807">2.78305e-12</wgt>
  <wgt id="808">2.73369e-12</wgt>
  <wgt id="809">2.50202e-12</wgt>
  <wgt id="810">3.53687e-12</wgt>
  <wgt id="811">3.00067e-12</wgt>
  <wgt id="812">1.52933e-12</wgt>
  <wgt id="813">1.66111e-12</wgt>
  <wgt id="814">1.89346e-12</wgt>
  <wgt id="815">1.52699e-12</wgt>
  <wgt id="816">1.72849e-12</wgt>
  <wgt id="817">2.89575e-12</wgt>
  <wgt id="818">3.87709e-12</wgt>
  <wgt id="819">1.64965e-12</wgt>
  <wgt id="820">2.64521e-12</wgt>
  <wgt id="821">3.53486e-12</wgt>
  <wgt id="822">2.24704e-12</wgt>
  <wgt id="823">3.73603e-12</wgt>
  <wgt id="824">4.40174e-12</wgt>
  <wgt id="825">1.18731e-12</wgt>
  <wgt id="826">3.67611e-12</wgt>
  <wgt id="827">1.08888e-12</wgt>
  <wgt id="828">3.7168e-12</wgt>
  <wgt id="829">2.94372e-12</wgt>
  <wgt id="830">1.12939e-12</wgt>
  <wgt id="831">3.43171e-12</wgt>
  <wgt id="832">5.29992e-12</wgt>
  <wgt id="833">2.20544e-12</wgt>
  <wgt id="834">5.18758e-12</wgt>
  <wgt id="835">1.87046e-12</wgt>
  <wgt id="836">2.25239e-12</wgt>
  <wgt id="837">3.43283e-12</wgt>
  <wgt id="838">2.20227e-12</wgt>
  <wgt id="839">3.43278e-12</wgt>
  <wgt id="840">2.37637e-12</wgt>
  <wgt id="841">4.14094e-12</wgt>
  <wgt id="842">2.84963e-12</wgt>
  <wgt id="843">3.07504e-12</wgt>
  <wgt id="844">3.22763e-12</wgt>
  <wgt id="845">5.23089e-12</wgt>
  <wgt id="846">2.76523e-12</wgt>
  <wgt id="847">3.06351e-12</wgt>
  <wgt id="848">1.59257e-12</wgt>
  <wgt id="849">3.16185e-12</wgt>
  <wgt id="850">4.59021e-12</wgt>
  <wgt id="851">3.44591e-12</wgt>
  <wgt id="852">1.29483e-12</wgt>
  <wgt id="853">3.6174e-12</wgt>
  <wgt id="854">4.138e-12</wgt>
  <wgt id="855">3.63024e-12</wgt>
  <wgt id="856">1.11429e-12</wgt>
  <wgt id="857">2.41694e-12</wgt>
  <wgt id="858">2.69458e-12</wgt>
  <wgt id="859">2.71966e-12</wgt>
  <wgt id="860">3.75394e-12</wgt>
  <wgt id="861">2.2735e-12</wgt>
  <wgt id="862">2.94333e-12</wgt>
  <wgt id="863">3.36738e-12</wgt>
  <wgt id="864">2.92542e-12</wgt>
  <wgt id="865">4.85527e-12</wgt>
  <wgt id="866">5.33207e-12</wgt>
  <wgt id="867">2.89378e-12</wgt>
  <wgt id="868">3.02711e-12</wgt>
  <wgt id="869">1.46842e-12</wgt>
  <wgt id="870">1.84769e-12</wgt>
  <wgt id="871">1.89523e-12</wgt>
  <wgt id="872">4.29587e-12</wgt>
  <wgt id="873">2.17383e-12</wgt>
  <wgt id="874">3.21829e-12</wgt>
  <wgt id="875">2.10185e-12</wgt>
  <wgt id="876">4.09143e-12</wgt>
  <wgt id="877">3.3251e-12</wgt>
  <wgt id="878">2.2447e-12</wgt>
  <wgt id="879">4.38454e-12</wgt>
  <wgt id="880">4.42445e-12</wgt>
  <wgt id="881">4.83305e-12</wgt>
  <wgt id="882">4.50469e-12</wgt>
  <wgt id="883">4.41666e-12</wgt>
  <wgt id="884">4.27409e-12</wgt>
  <wgt id="885">4.60543e-12</wgt>
  <wgt id="886">4.01573e-12</wgt>
  <wgt id="887">4.64491e-12</wgt>
  <wgt id="888">4.35899e-12</wgt>
  <wgt id="889">4.49798e-12</wgt>
  <wgt id="890">4.54903e-12</wgt>
  <wgt id="891">4.23717e-12</wgt>
  <wgt id="892">4.62872e-12</wgt>
  <wgt id="893">4.52139e-12</wgt>
  <wgt id="894">4.49169e-12</wgt>
  <wgt id="895">4.26618e-12</wgt>
  <wgt id="896">5.89717e-12</wgt>
  <wgt id="897">4.85262e-12</wgt>
  <wgt id="898">4.07845e-12</wgt>
  <wgt id="899">4.15597e-12</wgt>
  <wgt id="900">3.9211e-12</wgt>
  <wgt id="901">3.58435e-12</wgt>
  <wgt id="902">3.6792e-12</wgt>
  <wgt id="903">3.84325e-12</wgt>
  <wgt id="904">4.3852e-12</wgt>
  <wgt id="905">4.18205e-12</wgt>
  <wgt id="906">5.51886e-12</wgt>
  <wgt id="907">4.97131e-12</wgt>
  <wgt id="908">4.93173e-12</wgt>
  <wgt id="909">4.04704e-12</wgt>
  <wgt id="910">4.08728e-12</wgt>
  <wgt id="911">4.17999e-12</wgt>
  <wgt id="912">4.23957e-12</wgt>
  <wgt id="913">3.61567e-12</wgt>
  <wgt id="914">4.6997e-12</wgt>
  <wgt id="915">4.10596e-12</wgt>
  <wgt id="916">4.73405e-12</wgt>
  <wgt id="917">3.92867e-12</wgt>
  <wgt id="918">4.1662e-12</wgt>
  <wgt id="919">4.20967e-12</wgt>
  <wgt id="920">3.77951e-12</wgt>
  <wgt id="921">4.47853e-12</wgt>
  <wgt id="922">3.98121e-12</wgt>
  <wgt id="923">4.48312e-12</wgt>
  <wgt id="924">3.72725e-12</wgt>
  <wgt id="925">3.39848e-12</wgt>
  <wgt id="926">4.9744e-12</wgt>
  <wgt id="927">4.7793e-12</wgt>
  <wgt id="928">4.6087e-12</wgt>
  <wgt id="929">4.36693e-12</wgt>
  <wgt id="930">4.40435e-12</wgt>
  <wgt id="931">4.31033e-12</wgt>
  <wgt id="932">3.96047e-12</wgt>
  <wgt id="933">4.90706e-12</wgt>
  <wgt id="934">4.32231e-12</wgt>
  <wgt id="935">5.14806e-12</wgt>
  <wgt id="936">4.06625e-12</wgt>
  <wgt id="937">4.55364e-12</wgt>
  <wgt id="938">4.36182e-12</wgt>
  <wgt id="939">4.04842e-12</wgt>
  <wgt id="940">4.05643e-12</wgt>
  <wgt id="941">4.14964e-12</wgt>
  <wgt id="942">4.67436e-12</wgt>
  <wgt id="943">5.25086e-12</wgt>
  <wgt id="944">4.58413e-12</wgt>
  <wgt id="945">4.18299e-12</wgt>
  <wgt id="946">3.96845e-12</wgt>
  <wgt id="947">4.29581e-12</wgt>
  <wgt id="948">4.83921e-12</wgt>
  <wgt id="949">4.97819e-12</wgt>
  <wgt id="950">3.61595e-12</wgt>
  <wgt id="951">4.20765e-12</wgt>
  <wgt id="952">4.58727e-12</wgt>
  <wgt id="953">4.72982e-12</wgt>
  <wgt id="954">4.43402e-12</wgt>
  <wgt id="955">3.92016e-12</wgt>
  <wgt id="956">3.9016e-12</wgt>
  <wgt id="957">4.58535e-12</wgt>
  <wgt id="958">4.28033e-12</wgt>
  <wgt id="959">4.24981e-12</wgt>
  <wgt id="960">3.75664e-12</wgt>
  <wgt id="961">4.27496e-12</wgt>
  <wgt id="962">4.78495e-12</wgt>
  <wgt id="963">4.19743e-12</wgt>
  <wgt id="964">4.89797e-12</wgt>
  <wgt id="965">4.9251e-12</wgt>
  <wgt id="966">4.50993e-12</wgt>
  <wgt id="967">4.71599e-12</wgt>
  <wgt id="968">4.428e-12</wgt>
  <wgt id="969">4.45303e-12</wgt>
  <wgt id="970">4.48738e-12</wgt>
  <wgt id="971">3.96798e-12</wgt>
  <wgt id="972">4.62792e-12</wgt>
  <wgt id="973">4.0765e-12</wgt>
  <wgt id="974">5.46992e-12</wgt>
  <wgt id="975">4.25329e-12</wgt>
  <wgt id="976">4.40902e-12</wgt>
  <wgt id="977">3.44174e-12</wgt>
  <wgt id="978">4.60921e-12</wgt>
  <wgt id="979">5.12566e-12</wgt>
  <wgt id="980">4.35334e-12</wgt>
  <wgt id="981">4.49246e-12</wgt>
  <wgt id="982">4.252e-12</wgt>
</rwgt>
</event>
<event>
 5   1  0.3028200E-11  0.2278928E+04  0.7818608E-02  0.7719777E-01
       21   -1    0    0  502  501  0.00000000000E+00  0.00000000000E+00  0.65062521207E+03  0.65062521207E+03  0.00000000000E+00 0.  1.
       21   -1    0    0  501  502 -0.00000000000E+00 -0.00000000000E+00 -0.19955860826E+04  0.19955860826E+04  0.00000000000E+00 0. -1.
       39    2    1    2    0    0  0.00000000000E+00  0.00000000000E+00 -0.13449608706E+04  0.26462112947E+04  0.22789283606E+04 0.  0.
       25    1    3    3    0    0 -0.10219662864E+04  0.40479930874E+03 -0.35559509003E+03  0.11620457990E+04  0.12500000000E+03 0.  0.
       25    1    3    3    0    0  0.10219662864E+04 -0.40479930874E+03 -0.98936578054E+03  0.14841654957E+04  0.12500000000E+03 0.  0.
<mgrwt>
<rscale>  0 0.22789284E+04</rscale>
<asrwt>0</asrwt>
<pdfrwt beam="1">  1       21 0.10009619E+00 0.22789284E+04</pdfrwt>
<pdfrwt beam="2">  1       21 0.30701324E+00 0.22789284E+04</pdfrwt>
<totfact> 0.89707328E+00</totfact>
</mgrwt>
<rwgt>
  <wgt id="1">3.0282e-12</wgt>
  <wgt id="2">2.62082e-12</wgt>
  <wgt id="3">3.53709e-12</wgt>
  <wgt id="4">3.0282e-12</wgt>
  <wgt id="5">2.62082e-12</wgt>
  <wgt id="6">3.53709e-12</wgt>
  <wgt id="7">3.0282e-12</wgt>
  <wgt id="8">2.62082e-12</wgt>
  <wgt id="9">3.53709e-12</wgt>
  <wgt id="10">3.17485e-12</wgt>
  <wgt id="11">3.17349e-12</wgt>
  <wgt id="12">3.16817e-12</wgt>
  <wgt id="13">3.1677e-12</wgt>
  <wgt id="14">3.1858e-12</wgt>
  <wgt id="15">3.1802e-12</wgt>
  <wgt id="16">3.16845e-12</wgt>
  <wgt id="17">3.19019e-12</wgt>
  <wgt id="18">3.17112e-12</wgt>
  <wgt id="19">3.18623e-12</wgt>
  <wgt id="20">3.17249e-12</wgt>
  <wgt id="21">3.14945e-12</wgt>
  <wgt id="22">3.15254e-12</wgt>
  <wgt id="23">3.12809e-12</wgt>
  <wgt id="24">3.15134e-12</wgt>
  <wgt id="25">3.16258e-12</wgt>
  <wgt id="26">3.18405e-12</wgt>
  <wgt id="27">3.16917e-12</wgt>
  <wgt id="28">3.15442e-12</wgt>
  <wgt id="29">3.17612e-12</wgt>
  <wgt id="30">3.14988e-12</wgt>
  <wgt id="31">3.18942e-12</wgt>
  <wgt id="32">3.15319e-12</wgt>
  <wgt id="33">3.17941e-12</wgt>
  <wgt id="34">3.15466e-12</wgt>
  <wgt id="35">3.15594e-12</wgt>
  <wgt id="36">3.18978e-12</wgt>
  <wgt id="37">3.16433e-12</wgt>
  <wgt id="38">3.16179e-12</wgt>
  <wgt id="39">3.22907e-12</wgt>
  <wgt id="40">3.17756e-12</wgt>
  <wgt id="41">3.17281e-12</wgt>
  <wgt id="42">3.18093e-12</wgt>
  <wgt id="43">3.17631e-12</wgt>
  <wgt id="44">3.1886e-12</wgt>
  <wgt id="45">3.17903e-12</wgt>
  <wgt id="46">3.16427e-12</wgt>
  <wgt id="47">3.19953e-12</wgt>
  <wgt id="48">3.18869e-12</wgt>
  <wgt id="49">3.1576e-12</wgt>
  <wgt id="50">3.1523e-12</wgt>
  <wgt id="51">3.15825e-12</wgt>
  <wgt id="52">3.18339e-12</wgt>
  <wgt id="53">3.19416e-12</wgt>
  <wgt id="54">3.18775e-12</wgt>
  <wgt id="55">3.17395e-12</wgt>
  <wgt id="56">3.16791e-12</wgt>
  <wgt id="57">3.16213e-12</wgt>
  <wgt id="58">3.17122e-12</wgt>
  <wgt id="59">3.17743e-12</wgt>
  <wgt id="60">3.15666e-12</wgt>
  <wgt id="61">3.1555e-12</wgt>
  <wgt id="62">3.16536e-12</wgt>
  <wgt id="63">3.17117e-12</wgt>
  <wgt id="64">3.17291e-12</wgt>
  <wgt id="65">3.16656e-12</wgt>
  <wgt id="66">3.17577e-12</wgt>
  <wgt id="67">3.16589e-12</wgt>
  <wgt id="68">3.17426e-12</wgt>
  <wgt id="69">3.17048e-12</wgt>
  <wgt id="70">3.16887e-12</wgt>
  <wgt id="71">3.17212e-12</wgt>
  <wgt id="72">3.15737e-12</wgt>
  <wgt id="73">3.18705e-12</wgt>
  <wgt id="74">3.18394e-12</wgt>
  <wgt id="75">3.1751e-12</wgt>
  <wgt id="76">3.19338e-12</wgt>
  <wgt id="77">3.16987e-12</wgt>
  <wgt id="78">3.17198e-12</wgt>
  <wgt id="79">3.18332e-12</wgt>
  <wgt id="80">3.15098e-12</wgt>
  <wgt id="81">3.17445e-12</wgt>
  <wgt id="82">3.17734e-12</wgt>
  <wgt id="83">3.15707e-12</wgt>
  <wgt id="84">3.16663e-12</wgt>
  <wgt id="85">3.16374e-12</wgt>
  <wgt id="86">3.18575e-12</wgt>
  <wgt id="87">3.14857e-12</wgt>
  <wgt id="88">3.18223e-12</wgt>
  <wgt id="89">3.17919e-12</wgt>
  <wgt id="90">3.18541e-12</wgt>
  <wgt id="91">3.1786e-12</wgt>
  <wgt id="92">3.18275e-12</wgt>
  <wgt id="93">3.17894e-12</wgt>
  <wgt id="94">3.16774e-12</wgt>
  <wgt id="95">3.18542e-12</wgt>
  <wgt id="96">3.1817e-12</wgt>
  <wgt id="97">3.16379e-12</wgt>
  <wgt id="98">3.1747e-12</wgt>
  <wgt id="99">3.16901e-12</wgt>
  <wgt id="100">3.18255e-12</wgt>
  <wgt id="101">3.17252e-12</wgt>
  <wgt id="102">3.1706e-12</wgt>
  <wgt id="103">3.18522e-12</wgt>
  <wgt id="104">3.16904e-12</wgt>
  <wgt id="105">3.18067e-12</wgt>
  <wgt id="106">3.16741e-12</wgt>
  <wgt id="107">3.19188e-12</wgt>
  <wgt id="108">3.16909e-12</wgt>
  <wgt id="109">3.17862e-12</wgt>
  <wgt id="110">3.17321e-12</wgt>
  <wgt id="111">3.18412e-12</wgt>
  <wgt id="112">3.2089e-12</wgt>
  <wgt id="113">4.49385e-12</wgt>
  <wgt id="114">4.27164e-12</wgt>
  <wgt id="115">4.19391e-12</wgt>
  <wgt id="116">5.77645e-12</wgt>
  <wgt id="117">3.49963e-12</wgt>
  <wgt id="118">3.51236e-12</wgt>
  <wgt id="119">3.49241e-12</wgt>
  <wgt id="120">3.4998e-12</wgt>
  <wgt id="121">3.49954e-12</wgt>
  <wgt id="122">3.49399e-12</wgt>
  <wgt id="123">3.50747e-12</wgt>
  <wgt id="124">3.4949e-12</wgt>
  <wgt id="125">3.50271e-12</wgt>
  <wgt id="126">3.50488e-12</wgt>
  <wgt id="127">3.49615e-12</wgt>
  <wgt id="128">3.51036e-12</wgt>
  <wgt id="129">3.48897e-12</wgt>
  <wgt id="130">3.51745e-12</wgt>
  <wgt id="131">3.4812e-12</wgt>
  <wgt id="132">3.4043e-12</wgt>
  <wgt id="133">3.61298e-12</wgt>
  <wgt id="134">3.46217e-12</wgt>
  <wgt id="135">3.52903e-12</wgt>
  <wgt id="136">3.55118e-12</wgt>
  <wgt id="137">3.43763e-12</wgt>
  <wgt id="138">3.6531e-12</wgt>
  <wgt id="139">3.35346e-12</wgt>
  <wgt id="140">3.48148e-12</wgt>
  <wgt id="141">3.51345e-12</wgt>
  <wgt id="142">3.49902e-12</wgt>
  <wgt id="143">3.50936e-12</wgt>
  <wgt id="144">3.3654e-12</wgt>
  <wgt id="145">3.6289e-12</wgt>
  <wgt id="146">3.54243e-12</wgt>
  <wgt id="147">3.46482e-12</wgt>
  <wgt id="148">3.51205e-12</wgt>
  <wgt id="149">3.49873e-12</wgt>
  <wgt id="150">3.52921e-12</wgt>
  <wgt id="151">3.48582e-12</wgt>
  <wgt id="152">3.50072e-12</wgt>
  <wgt id="153">3.49925e-12</wgt>
  <wgt id="154">3.51207e-12</wgt>
  <wgt id="155">3.4795e-12</wgt>
  <wgt id="156">3.60659e-12</wgt>
  <wgt id="157">3.39964e-12</wgt>
  <wgt id="158">4.19829e-12</wgt>
  <wgt id="159">4.21612e-12</wgt>
  <wgt id="160">4.18397e-12</wgt>
  <wgt id="161">4.18776e-12</wgt>
  <wgt id="162">4.21006e-12</wgt>
  <wgt id="163">4.1936e-12</wgt>
  <wgt id="164">4.2052e-12</wgt>
  <wgt id="165">4.19991e-12</wgt>
  <wgt id="166">4.19705e-12</wgt>
  <wgt id="167">4.19531e-12</wgt>
  <wgt id="168">4.20243e-12</wgt>
  <wgt id="169">4.1809e-12</wgt>
  <wgt id="170">4.20914e-12</wgt>
  <wgt id="171">4.19492e-12</wgt>
  <wgt id="172">4.20308e-12</wgt>
  <wgt id="173">4.19219e-12</wgt>
  <wgt id="174">4.20036e-12</wgt>
  <wgt id="175">4.0776e-12</wgt>
  <wgt id="176">4.35633e-12</wgt>
  <wgt id="177">4.21834e-12</wgt>
  <wgt id="178">4.18002e-12</wgt>
  <wgt id="179">4.40299e-12</wgt>
  <wgt id="180">3.88127e-12</wgt>
  <wgt id="181">4.06248e-12</wgt>
  <wgt id="182">4.2887e-12</wgt>
  <wgt id="183">4.11583e-12</wgt>
  <wgt id="184">4.23925e-12</wgt>
  <wgt id="185">4.15419e-12</wgt>
  <wgt id="186">4.25144e-12</wgt>
  <wgt id="187">4.15296e-12</wgt>
  <wgt id="188">4.27844e-12</wgt>
  <wgt id="189">4.16672e-12</wgt>
  <wgt id="190">4.21111e-12</wgt>
  <wgt id="191">4.21259e-12</wgt>
  <wgt id="192">4.18988e-12</wgt>
  <wgt id="193">4.26615e-12</wgt>
  <wgt id="194">4.16421e-12</wgt>
  <wgt id="195">4.0587e-12</wgt>
  <wgt id="196">4.43013e-12</wgt>
  <wgt id="197">4.22046e-12</wgt>
  <wgt id="198">4.19297e-12</wgt>
  <wgt id="199">4.19829e-12</wgt>
  <wgt id="200">4.23801e-12</wgt>
  <wgt id="201">4.22434e-12</wgt>
  <wgt id="202">4.21106e-12</wgt>
  <wgt id="203">4.19188e-12</wgt>
  <wgt id="204">4.1823e-12</wgt>
  <wgt id="205">4.17442e-12</wgt>
  <wgt id="206">4.10189e-12</wgt>
  <wgt id="207">4.12631e-12</wgt>
  <wgt id="208">4.07769e-12</wgt>
  <wgt id="209">4.11398e-12</wgt>
  <wgt id="210">4.09301e-12</wgt>
  <wgt id="211">4.10048e-12</wgt>
  <wgt id="212">4.10296e-12</wgt>
  <wgt id="213">4.1015e-12</wgt>
  <wgt id="214">4.10242e-12</wgt>
  <wgt id="215">4.10487e-12</wgt>
  <wgt id="216">4.09977e-12</wgt>
  <wgt id="217">4.11168e-12</wgt>
  <wgt id="218">4.09429e-12</wgt>
  <wgt id="219">4.09671e-12</wgt>
  <wgt id="220">4.10501e-12</wgt>
  <wgt id="221">4.10272e-12</wgt>
  <wgt id="222">4.09899e-12</wgt>
  <wgt id="223">3.87291e-12</wgt>
  <wgt id="224">4.31155e-12</wgt>
  <wgt id="225">4.05152e-12</wgt>
  <wgt id="226">4.16575e-12</wgt>
  <wgt id="227">4.06274e-12</wgt>
  <wgt id="228">4.11905e-12</wgt>
  <wgt id="229">4.04367e-12</wgt>
  <wgt id="230">4.13076e-12</wgt>
  <wgt id="231">4.23611e-12</wgt>
  <wgt id="232">3.992e-12</wgt>
  <wgt id="233">4.07705e-12</wgt>
  <wgt id="234">4.14301e-12</wgt>
  <wgt id="235">3.95226e-12</wgt>
  <wgt id="236">4.22598e-12</wgt>
  <wgt id="237">4.01296e-12</wgt>
  <wgt id="238">4.13155e-12</wgt>
  <wgt id="239">4.06557e-12</wgt>
  <wgt id="240">4.16702e-12</wgt>
  <wgt id="241">4.05382e-12</wgt>
  <wgt id="242">4.1589e-12</wgt>
  <wgt id="243">4.16773e-12</wgt>
  <wgt id="244">4.10675e-12</wgt>
  <wgt id="245">4.09992e-12</wgt>
  <wgt id="246">4.12616e-12</wgt>
  <wgt id="247">4.10189e-12</wgt>
  <wgt id="248">4.14412e-12</wgt>
  <wgt id="249">4.12938e-12</wgt>
  <wgt id="250">4.1142e-12</wgt>
  <wgt id="251">4.09338e-12</wgt>
  <wgt id="252">4.0829e-12</wgt>
  <wgt id="253">4.0756e-12</wgt>
  <wgt id="254">3.96687e-12</wgt>
  <wgt id="255">3.9704e-12</wgt>
  <wgt id="256">3.96303e-12</wgt>
  <wgt id="257">3.96999e-12</wgt>
  <wgt id="258">3.96457e-12</wgt>
  <wgt id="259">3.99342e-12</wgt>
  <wgt id="260">3.94125e-12</wgt>
  <wgt id="261">3.97286e-12</wgt>
  <wgt id="262">3.95983e-12</wgt>
  <wgt id="263">3.9642e-12</wgt>
  <wgt id="264">3.96995e-12</wgt>
  <wgt id="265">3.96218e-12</wgt>
  <wgt id="266">3.9763e-12</wgt>
  <wgt id="267">3.96817e-12</wgt>
  <wgt id="268">3.96495e-12</wgt>
  <wgt id="269">3.97909e-12</wgt>
  <wgt id="270">3.95857e-12</wgt>
  <wgt id="271">3.95687e-12</wgt>
  <wgt id="272">3.97802e-12</wgt>
  <wgt id="273">3.95607e-12</wgt>
  <wgt id="274">3.97508e-12</wgt>
  <wgt id="275">3.94448e-12</wgt>
  <wgt id="276">3.99004e-12</wgt>
  <wgt id="277">3.94384e-12</wgt>
  <wgt id="278">3.98793e-12</wgt>
  <wgt id="279">3.89318e-12</wgt>
  <wgt id="280">4.05962e-12</wgt>
  <wgt id="281">3.94863e-12</wgt>
  <wgt id="282">3.9711e-12</wgt>
  <wgt id="283">3.84122e-12</wgt>
  <wgt id="284">4.12328e-12</wgt>
  <wgt id="285">3.75904e-12</wgt>
  <wgt id="286">4.1418e-12</wgt>
  <wgt id="287">3.98062e-12</wgt>
  <wgt id="288">3.94925e-12</wgt>
  <wgt id="289">3.99803e-12</wgt>
  <wgt id="290">3.89745e-12</wgt>
  <wgt id="291">3.95247e-12</wgt>
  <wgt id="292">3.96777e-12</wgt>
  <wgt id="293">3.93298e-12</wgt>
  <wgt id="294">4.00052e-12</wgt>
  <wgt id="295">3.88465e-12</wgt>
  <wgt id="296">4.06753e-12</wgt>
  <wgt id="297">3.95936e-12</wgt>
  <wgt id="298">3.98572e-12</wgt>
  <wgt id="299">3.95354e-12</wgt>
  <wgt id="300">4.00217e-12</wgt>
  <wgt id="301">3.89262e-12</wgt>
  <wgt id="302">4.14077e-12</wgt>
  <wgt id="303">3.92625e-12</wgt>
  <wgt id="304">3.98969e-12</wgt>
  <wgt id="305">3.9418e-12</wgt>
  <wgt id="306">3.9455e-12</wgt>
  <wgt id="307">3.93782e-12</wgt>
  <wgt id="308">3.94519e-12</wgt>
  <wgt id="309">3.93951e-12</wgt>
  <wgt id="310">3.96896e-12</wgt>
  <wgt id="311">3.91672e-12</wgt>
  <wgt id="312">3.947e-12</wgt>
  <wgt id="313">3.93628e-12</wgt>
  <wgt id="314">3.93902e-12</wgt>
  <wgt id="315">3.94441e-12</wgt>
  <wgt id="316">3.93712e-12</wgt>
  <wgt id="317">3.95198e-12</wgt>
  <wgt id="318">3.94469e-12</wgt>
  <wgt id="319">3.9367e-12</wgt>
  <wgt id="320">3.95489e-12</wgt>
  <wgt id="321">3.93451e-12</wgt>
  <wgt id="322">3.9306e-12</wgt>
  <wgt id="323">3.95486e-12</wgt>
  <wgt id="324">3.93364e-12</wgt>
  <wgt id="325">3.94888e-12</wgt>
  <wgt id="326">3.92341e-12</wgt>
  <wgt id="327">3.96537e-12</wgt>
  <wgt id="328">3.92115e-12</wgt>
  <wgt id="329">3.95341e-12</wgt>
  <wgt id="330">4.05443e-12</wgt>
  <wgt id="331">3.83467e-12</wgt>
  <wgt id="332">3.92668e-12</wgt>
  <wgt id="333">3.94441e-12</wgt>
  <wgt id="334">3.8456e-12</wgt>
  <wgt id="335">4.06228e-12</wgt>
  <wgt id="336">3.79381e-12</wgt>
  <wgt id="337">4.12461e-12</wgt>
  <wgt id="338">3.9896e-12</wgt>
  <wgt id="339">3.89772e-12</wgt>
  <wgt id="340">3.97019e-12</wgt>
  <wgt id="341">3.87145e-12</wgt>
  <wgt id="342">3.93154e-12</wgt>
  <wgt id="343">3.93518e-12</wgt>
  <wgt id="344">3.91198e-12</wgt>
  <wgt id="345">3.97651e-12</wgt>
  <wgt id="346">3.85756e-12</wgt>
  <wgt id="347">4.03852e-12</wgt>
  <wgt id="348">3.93527e-12</wgt>
  <wgt id="349">3.95846e-12</wgt>
  <wgt id="350">3.92531e-12</wgt>
  <wgt id="351">3.98366e-12</wgt>
  <wgt id="352">3.86549e-12</wgt>
  <wgt id="353">4.11358e-12</wgt>
  <wgt id="354">3.88353e-12</wgt>
  <wgt id="355">3.9766e-12</wgt>
  <wgt id="356">3.96687e-12</wgt>
  <wgt id="357">3.94762e-12</wgt>
  <wgt id="358">3.9418e-12</wgt>
  <wgt id="359">3.96941e-12</wgt>
  <wgt id="360">4.02647e-12</wgt>
  <wgt id="361">3.98578e-12</wgt>
  <wgt id="362">4.06289e-12</wgt>
  <wgt id="363">4.05275e-12</wgt>
  <wgt id="364">4.03414e-12</wgt>
  <wgt id="365">4.01921e-12</wgt>
  <wgt id="366">4.00368e-12</wgt>
  <wgt id="367">3.97374e-12</wgt>
  <wgt id="368">3.95515e-12</wgt>
  <wgt id="369">3.93509e-12</wgt>
  <wgt id="370">3.98578e-12</wgt>
  <wgt id="371">4.00256e-12</wgt>
  <wgt id="372">3.99313e-12</wgt>
  <wgt id="373">3.97981e-12</wgt>
  <wgt id="374">3.98351e-12</wgt>
  <wgt id="375">4.4869e-12</wgt>
  <wgt id="376">4.48727e-12</wgt>
  <wgt id="377">4.48648e-12</wgt>
  <wgt id="378">4.50384e-12</wgt>
  <wgt id="379">4.47018e-12</wgt>
  <wgt id="380">4.49975e-12</wgt>
  <wgt id="381">4.48182e-12</wgt>
  <wgt id="382">4.50806e-12</wgt>
  <wgt id="383">4.46604e-12</wgt>
  <wgt id="384">4.48983e-12</wgt>
  <wgt id="385">4.48422e-12</wgt>
  <wgt id="386">4.50205e-12</wgt>
  <wgt id="387">4.48045e-12</wgt>
  <wgt id="388">4.48303e-12</wgt>
  <wgt id="389">4.49178e-12</wgt>
  <wgt id="390">4.49745e-12</wgt>
  <wgt id="391">4.47575e-12</wgt>
  <wgt id="392">4.44824e-12</wgt>
  <wgt id="393">4.50886e-12</wgt>
  <wgt id="394">4.49068e-12</wgt>
  <wgt id="395">4.48165e-12</wgt>
  <wgt id="396">4.49386e-12</wgt>
  <wgt id="397">4.48198e-12</wgt>
  <wgt id="398">4.47724e-12</wgt>
  <wgt id="399">4.49633e-12</wgt>
  <wgt id="400">4.48015e-12</wgt>
  <wgt id="401">4.50203e-12</wgt>
  <wgt id="402">4.4468e-12</wgt>
  <wgt id="403">4.51081e-12</wgt>
  <wgt id="404">4.61109e-12</wgt>
  <wgt id="405">4.19117e-12</wgt>
  <wgt id="406">4.39739e-12</wgt>
  <wgt id="407">4.68517e-12</wgt>
  <wgt id="408">4.53358e-12</wgt>
  <wgt id="409">4.40047e-12</wgt>
  <wgt id="410">4.34165e-12</wgt>
  <wgt id="411">4.5565e-12</wgt>
  <wgt id="412">4.47691e-12</wgt>
  <wgt id="413">4.50174e-12</wgt>
  <wgt id="414">4.42892e-12</wgt>
  <wgt id="415">4.53203e-12</wgt>
  <wgt id="416">4.63291e-12</wgt>
  <wgt id="417">4.28629e-12</wgt>
  <wgt id="418">4.4955e-12</wgt>
  <wgt id="419">4.44096e-12</wgt>
  <wgt id="420">4.58691e-12</wgt>
  <wgt id="421">4.42167e-12</wgt>
  <wgt id="422">4.46405e-12</wgt>
  <wgt id="423">4.49783e-12</wgt>
  <wgt id="424">4.61141e-12</wgt>
  <wgt id="425">4.40322e-12</wgt>
  <wgt id="426">4.4869e-12</wgt>
  <wgt id="427">4.40797e-12</wgt>
  <wgt id="428">4.67296e-12</wgt>
  <wgt id="429">4.54375e-12</wgt>
  <wgt id="430">4.68834e-12</wgt>
  <wgt id="431">4.65908e-12</wgt>
  <wgt id="432">4.63233e-12</wgt>
  <wgt id="433">4.6061e-12</wgt>
  <wgt id="434">4.57287e-12</wgt>
  <wgt id="435">4.50731e-12</wgt>
  <wgt id="436">4.47409e-12</wgt>
  <wgt id="437">4.44189e-12</wgt>
  <wgt id="438">4.54375e-12</wgt>
  <wgt id="439">4.55778e-12</wgt>
  <wgt id="440">4.54912e-12</wgt>
  <wgt id="441">4.53992e-12</wgt>
  <wgt id="442">4.53688e-12</wgt>
  <wgt id="443">4.16219e-12</wgt>
  <wgt id="444">4.20268e-12</wgt>
  <wgt id="445">4.19559e-12</wgt>
  <wgt id="446">4.13141e-12</wgt>
  <wgt id="447">4.16195e-12</wgt>
  <wgt id="448">4.05912e-12</wgt>
  <wgt id="449">4.24485e-12</wgt>
  <wgt id="450">4.20575e-12</wgt>
  <wgt id="451">4.15093e-12</wgt>
  <wgt id="452">4.25467e-12</wgt>
  <wgt id="453">4.21132e-12</wgt>
  <wgt id="454">3.9542e-12</wgt>
  <wgt id="455">4.19207e-12</wgt>
  <wgt id="456">4.22257e-12</wgt>
  <wgt id="457">4.1762e-12</wgt>
  <wgt id="458">4.23359e-12</wgt>
  <wgt id="459">4.19968e-12</wgt>
  <wgt id="460">4.23683e-12</wgt>
  <wgt id="461">4.06469e-12</wgt>
  <wgt id="462">4.13232e-12</wgt>
  <wgt id="463">4.09772e-12</wgt>
  <wgt id="464">4.14145e-12</wgt>
  <wgt id="465">4.2076e-12</wgt>
  <wgt id="466">4.07166e-12</wgt>
  <wgt id="467">4.12759e-12</wgt>
  <wgt id="468">4.15697e-12</wgt>
  <wgt id="469">4.1521e-12</wgt>
  <wgt id="470">4.10106e-12</wgt>
  <wgt id="471">4.11242e-12</wgt>
  <wgt id="472">4.18923e-12</wgt>
  <wgt id="473">4.02641e-12</wgt>
  <wgt id="474">3.0282e-12</wgt>
  <wgt id="475">3.03566e-12</wgt>
  <wgt id="476">3.00197e-12</wgt>
  <wgt id="477">3.05129e-12</wgt>
  <wgt id="478">3.06332e-12</wgt>
  <wgt id="479">2.89828e-12</wgt>
  <wgt id="480">3.18205e-12</wgt>
  <wgt id="481">3.04393e-12</wgt>
  <wgt id="482">3.02317e-12</wgt>
  <wgt id="483">3.01343e-12</wgt>
  <wgt id="484">3.15058e-12</wgt>
  <wgt id="485">2.81206e-12</wgt>
  <wgt id="486">3.18448e-12</wgt>
  <wgt id="487">2.96449e-12</wgt>
  <wgt id="488">3.06854e-12</wgt>
  <wgt id="489">2.75879e-12</wgt>
  <wgt id="490">2.96043e-12</wgt>
  <wgt id="491">2.99642e-12</wgt>
  <wgt id="492">2.98062e-12</wgt>
  <wgt id="493">2.82198e-12</wgt>
  <wgt id="494">2.84055e-12</wgt>
  <wgt id="495">3.03375e-12</wgt>
  <wgt id="496">2.88805e-12</wgt>
  <wgt id="497">2.8433e-12</wgt>
  <wgt id="498">3.11863e-12</wgt>
  <wgt id="499">3.04026e-12</wgt>
  <wgt id="500">2.97292e-12</wgt>
  <wgt id="501">3.14245e-12</wgt>
  <wgt id="502">3.11714e-12</wgt>
  <wgt id="503">2.98918e-12</wgt>
  <wgt id="504">3.12486e-12</wgt>
  <wgt id="505">3.11437e-12</wgt>
  <wgt id="506">2.86491e-12</wgt>
  <wgt id="507">2.99974e-12</wgt>
  <wgt id="508">3.18193e-12</wgt>
  <wgt id="509">2.8847e-12</wgt>
  <wgt id="510">3.06201e-12</wgt>
  <wgt id="511">2.88056e-12</wgt>
  <wgt id="512">3.20994e-12</wgt>
  <wgt id="513">3.14757e-12</wgt>
  <wgt id="514">3.16663e-12</wgt>
  <wgt id="515">3.08615e-12</wgt>
  <wgt id="516">3.31564e-12</wgt>
  <wgt id="517">3.10048e-12</wgt>
  <wgt id="518">3.13215e-12</wgt>
  <wgt id="519">2.911e-12</wgt>
  <wgt id="520">3.08589e-12</wgt>
  <wgt id="521">2.99096e-12</wgt>
  <wgt id="522">3.15536e-12</wgt>
  <wgt id="523">2.89686e-12</wgt>
  <wgt id="524">3.05793e-12</wgt>
  <wgt id="525">3.00386e-12</wgt>
  <wgt id="526">3.15699e-12</wgt>
  <wgt id="527">2.99867e-12</wgt>
  <wgt id="528">3.02926e-12</wgt>
  <wgt id="529">2.91879e-12</wgt>
  <wgt id="530">3.16821e-12</wgt>
  <wgt id="531">2.91705e-12</wgt>
  <wgt id="532">3.27041e-12</wgt>
  <wgt id="533">2.98911e-12</wgt>
  <wgt id="534">2.93494e-12</wgt>
  <wgt id="535">3.04743e-12</wgt>
  <wgt id="536">3.10735e-12</wgt>
  <wgt id="537">2.90757e-12</wgt>
  <wgt id="538">3.01513e-12</wgt>
  <wgt id="539">2.96115e-12</wgt>
  <wgt id="540">3.18122e-12</wgt>
  <wgt id="541">3.00949e-12</wgt>
  <wgt id="542">2.9774e-12</wgt>
  <wgt id="543">2.94659e-12</wgt>
  <wgt id="544">3.07439e-12</wgt>
  <wgt id="545">2.88519e-12</wgt>
  <wgt id="546">2.81289e-12</wgt>
  <wgt id="547">2.9342e-12</wgt>
  <wgt id="548">2.91605e-12</wgt>
  <wgt id="549">2.9721e-12</wgt>
  <wgt id="550">2.95746e-12</wgt>
  <wgt id="551">3.05012e-12</wgt>
  <wgt id="552">2.80355e-12</wgt>
  <wgt id="553">2.87581e-12</wgt>
  <wgt id="554">3.19426e-12</wgt>
  <wgt id="555">3.10349e-12</wgt>
  <wgt id="556">2.96043e-12</wgt>
  <wgt id="557">3.10308e-12</wgt>
  <wgt id="558">2.99022e-12</wgt>
  <wgt id="559">3.02942e-12</wgt>
  <wgt id="560">3.34917e-12</wgt>
  <wgt id="561">3.07931e-12</wgt>
  <wgt id="562">3.14273e-12</wgt>
  <wgt id="563">3.30185e-12</wgt>
  <wgt id="564">3.19246e-12</wgt>
  <wgt id="565">3.09103e-12</wgt>
  <wgt id="566">2.96926e-12</wgt>
  <wgt id="567">3.02181e-12</wgt>
  <wgt id="568">2.94129e-12</wgt>
  <wgt id="569">3.06281e-12</wgt>
  <wgt id="570">2.97293e-12</wgt>
  <wgt id="571">3.34763e-12</wgt>
  <wgt id="572">2.94203e-12</wgt>
  <wgt id="573">2.94072e-12</wgt>
  <wgt id="574">2.95367e-12</wgt>
  <wgt id="575">3.34316e-12</wgt>
  <wgt id="576">3.59667e-12</wgt>
  <wgt id="577">3.48989e-12</wgt>
  <wgt id="578">3.41261e-12</wgt>
  <wgt id="579">3.47357e-12</wgt>
  <wgt id="580">3.55207e-12</wgt>
  <wgt id="581">3.68035e-12</wgt>
  <wgt id="582">3.54662e-12</wgt>
  <wgt id="583">3.39888e-12</wgt>
  <wgt id="584">3.30794e-12</wgt>
  <wgt id="585">3.12717e-12</wgt>
  <wgt id="586">3.15934e-12</wgt>
  <wgt id="587">3.40797e-12</wgt>
  <wgt id="588">3.59159e-12</wgt>
  <wgt id="589">3.61547e-12</wgt>
  <wgt id="590">3.31491e-12</wgt>
  <wgt id="591">3.44225e-12</wgt>
  <wgt id="592">3.0984e-12</wgt>
  <wgt id="593">3.25296e-12</wgt>
  <wgt id="594">3.29827e-12</wgt>
  <wgt id="595">3.48157e-12</wgt>
  <wgt id="596">3.87679e-12</wgt>
  <wgt id="597">3.37747e-12</wgt>
  <wgt id="598">3.3575e-12</wgt>
  <wgt id="599">3.54916e-12</wgt>
  <wgt id="600">3.52233e-12</wgt>
  <wgt id="601">3.21189e-12</wgt>
  <wgt id="602">3.24105e-12</wgt>
  <wgt id="603">3.15098e-12</wgt>
  <wgt id="604">3.42196e-12</wgt>
  <wgt id="605">3.39249e-12</wgt>
  <wgt id="606">3.40409e-12</wgt>
  <wgt id="607">3.46772e-12</wgt>
  <wgt id="608">3.46579e-12</wgt>
  <wgt id="609">3.29232e-12</wgt>
  <wgt id="610">3.2015e-12</wgt>
  <wgt id="611">3.20833e-12</wgt>
  <wgt id="612">3.46376e-12</wgt>
  <wgt id="613">3.20935e-12</wgt>
  <wgt id="614">3.31591e-12</wgt>
  <wgt id="615">3.38271e-12</wgt>
  <wgt id="616">3.25596e-12</wgt>
  <wgt id="617">3.46643e-12</wgt>
  <wgt id="618">3.67115e-12</wgt>
  <wgt id="619">3.27896e-12</wgt>
  <wgt id="620">3.45762e-12</wgt>
  <wgt id="621">3.3073e-12</wgt>
  <wgt id="622">3.40797e-12</wgt>
  <wgt id="623">3.37003e-12</wgt>
  <wgt id="624">3.36538e-12</wgt>
  <wgt id="625">3.20045e-12</wgt>
  <wgt id="626">3.01923e-12</wgt>
  <wgt id="627">3.05253e-12</wgt>
  <wgt id="628">3.33154e-12</wgt>
  <wgt id="629">3.37698e-12</wgt>
  <wgt id="630">3.23229e-12</wgt>
  <wgt id="631">3.41721e-12</wgt>
  <wgt id="632">3.07038e-12</wgt>
  <wgt id="633">3.32687e-12</wgt>
  <wgt id="634">3.2078e-12</wgt>
  <wgt id="635">3.08924e-12</wgt>
  <wgt id="636">3.38817e-12</wgt>
  <wgt id="637">3.3209e-12</wgt>
  <wgt id="638">3.19691e-12</wgt>
  <wgt id="639">3.21501e-12</wgt>
  <wgt id="640">3.27723e-12</wgt>
  <wgt id="641">3.49352e-12</wgt>
  <wgt id="642">3.0683e-12</wgt>
  <wgt id="643">3.26529e-12</wgt>
  <wgt id="644">2.99848e-12</wgt>
  <wgt id="645">3.33968e-12</wgt>
  <wgt id="646">3.10358e-12</wgt>
  <wgt id="647">3.36974e-12</wgt>
  <wgt id="648">3.48502e-12</wgt>
  <wgt id="649">3.35753e-12</wgt>
  <wgt id="650">3.19496e-12</wgt>
  <wgt id="651">3.57016e-12</wgt>
  <wgt id="652">3.21417e-12</wgt>
  <wgt id="653">3.21148e-12</wgt>
  <wgt id="654">3.35357e-12</wgt>
  <wgt id="655">3.22994e-12</wgt>
  <wgt id="656">3.35269e-12</wgt>
  <wgt id="657">3.65866e-12</wgt>
  <wgt id="658">3.34916e-12</wgt>
  <wgt id="659">3.19941e-12</wgt>
  <wgt id="660">3.26158e-12</wgt>
  <wgt id="661">3.26456e-12</wgt>
  <wgt id="662">3.29398e-12</wgt>
  <wgt id="663">3.39894e-12</wgt>
  <wgt id="664">3.37466e-12</wgt>
  <wgt id="665">3.31443e-12</wgt>
  <wgt id="666">3.26952e-12</wgt>
  <wgt id="667">3.51864e-12</wgt>
  <wgt id="668">3.30649e-12</wgt>
  <wgt id="669">3.35046e-12</wgt>
  <wgt id="670">3.5003e-12</wgt>
  <wgt id="671">3.37516e-12</wgt>
  <wgt id="672">3.24252e-12</wgt>
  <wgt id="673">3.5293e-12</wgt>
  <wgt id="674">3.2413e-12</wgt>
  <wgt id="675">3.24082e-12</wgt>
  <wgt id="676">4.32012e-12</wgt>
  <wgt id="677">4.36999e-12</wgt>
  <wgt id="678">4.70549e-12</wgt>
  <wgt id="679">4.36186e-12</wgt>
  <wgt id="680">4.34522e-12</wgt>
  <wgt id="681">4.24069e-12</wgt>
  <wgt id="682">4.53031e-12</wgt>
  <wgt id="683">4.02316e-12</wgt>
  <wgt id="684">4.53912e-12</wgt>
  <wgt id="685">4.29245e-12</wgt>
  <wgt id="686">4.34522e-12</wgt>
  <wgt id="687">4.46011e-12</wgt>
  <wgt id="688">4.19551e-12</wgt>
  <wgt id="689">4.51669e-12</wgt>
  <wgt id="690">4.43338e-12</wgt>
  <wgt id="691">4.44562e-12</wgt>
  <wgt id="692">4.22464e-12</wgt>
  <wgt id="693">5.61832e-12</wgt>
  <wgt id="694">4.73361e-12</wgt>
  <wgt id="695">4.07484e-12</wgt>
  <wgt id="696">4.15266e-12</wgt>
  <wgt id="697">3.94743e-12</wgt>
  <wgt id="698">3.61313e-12</wgt>
  <wgt id="699">3.6799e-12</wgt>
  <wgt id="700">3.81219e-12</wgt>
  <wgt id="701">4.3148e-12</wgt>
  <wgt id="702">4.1853e-12</wgt>
  <wgt id="703">5.29062e-12</wgt>
  <wgt id="704">4.85437e-12</wgt>
  <wgt id="705">4.82897e-12</wgt>
  <wgt id="706">4.0546e-12</wgt>
  <wgt id="707">4.05868e-12</wgt>
  <wgt id="708">4.14851e-12</wgt>
  <wgt id="709">4.18689e-12</wgt>
  <wgt id="710">3.70567e-12</wgt>
  <wgt id="711">4.5345e-12</wgt>
  <wgt id="712">4.06786e-12</wgt>
  <wgt id="713">4.65974e-12</wgt>
  <wgt id="714">3.92983e-12</wgt>
  <wgt id="715">4.14796e-12</wgt>
  <wgt id="716">4.15767e-12</wgt>
  <wgt id="717">3.8083e-12</wgt>
  <wgt id="718">4.42015e-12</wgt>
  <wgt id="719">3.93005e-12</wgt>
  <wgt id="720">4.37212e-12</wgt>
  <wgt id="721">3.70672e-12</wgt>
  <wgt id="722">3.46949e-12</wgt>
  <wgt id="723">4.82044e-12</wgt>
  <wgt id="724">4.66601e-12</wgt>
  <wgt id="725">4.51508e-12</wgt>
  <wgt id="726">4.29931e-12</wgt>
  <wgt id="727">4.32018e-12</wgt>
  <wgt id="728">4.2094e-12</wgt>
  <wgt id="729">4.025e-12</wgt>
  <wgt id="730">4.76289e-12</wgt>
  <wgt id="731">4.24246e-12</wgt>
  <wgt id="732">4.99217e-12</wgt>
  <wgt id="733">4.04781e-12</wgt>
  <wgt id="734">4.45726e-12</wgt>
  <wgt id="735">4.34572e-12</wgt>
  <wgt id="736">4.03152e-12</wgt>
  <wgt id="737">4.09994e-12</wgt>
  <wgt id="738">4.11445e-12</wgt>
  <wgt id="739">4.60837e-12</wgt>
  <wgt id="740">5.05931e-12</wgt>
  <wgt id="741">4.39987e-12</wgt>
  <wgt id="742">4.182e-12</wgt>
  <wgt id="743">3.95885e-12</wgt>
  <wgt id="744">4.23503e-12</wgt>
  <wgt id="745">4.68446e-12</wgt>
  <wgt id="746">4.81292e-12</wgt>
  <wgt id="747">3.62239e-12</wgt>
  <wgt id="748">4.18839e-12</wgt>
  <wgt id="749">4.48495e-12</wgt>
  <wgt id="750">4.6602e-12</wgt>
  <wgt id="751">4.35341e-12</wgt>
  <wgt id="752">3.89627e-12</wgt>
  <wgt id="753">3.89598e-12</wgt>
  <wgt id="754">4.51967e-12</wgt>
  <wgt id="755">4.23604e-12</wgt>
  <wgt id="756">4.20687e-12</wgt>
  <wgt id="757">3.76782e-12</wgt>
  <wgt id="758">4.21171e-12</wgt>
  <wgt id="759">4.74524e-12</wgt>
  <wgt id="760">4.16734e-12</wgt>
  <wgt id="761">4.74914e-12</wgt>
  <wgt id="762">4.77024e-12</wgt>
  <wgt id="763">4.39143e-12</wgt>
  <wgt id="764">4.59572e-12</wgt>
  <wgt id="765">4.38172e-12</wgt>
  <wgt id="766">4.36465e-12</wgt>
  <wgt id="767">4.40575e-12</wgt>
  <wgt id="768">3.94549e-12</wgt>
  <wgt id="769">4.55877e-12</wgt>
  <wgt id="770">4.09794e-12</wgt>
  <wgt id="771">5.26974e-12</wgt>
  <wgt id="772">4.19653e-12</wgt>
  <wgt id="773">4.32242e-12</wgt>
  <wgt id="774">3.45996e-12</wgt>
  <wgt id="775">4.52945e-12</wgt>
  <wgt id="776">4.9083e-12</wgt>
  <wgt id="777">3.87023e-12</wgt>
  <wgt id="778">2.8845e-12</wgt>
  <wgt id="779">1.8561e-12</wgt>
  <wgt id="780">1.16492e-12</wgt>
  <wgt id="781">3.30789e-12</wgt>
  <wgt id="782">3.47689e-12</wgt>
  <wgt id="783">1.70863e-12</wgt>
  <wgt id="784">2.09552e-12</wgt>
  <wgt id="785">4.23452e-12</wgt>
  <wgt id="786">1.69945e-12</wgt>
  <wgt id="787">3.68038e-12</wgt>
  <wgt id="788">7.36808e-13</wgt>
  <wgt id="789">2.08647e-12</wgt>
  <wgt id="790">1.69929e-12</wgt>
  <wgt id="791">3.27519e-12</wgt>
  <wgt id="792">3.91491e-12</wgt>
  <wgt id="793">2.74803e-12</wgt>
  <wgt id="794">1.56364e-12</wgt>
  <wgt id="795">3.91711e-12</wgt>
  <wgt id="796">4.05741e-12</wgt>
  <wgt id="797">3.73351e-12</wgt>
  <wgt id="798">2.24627e-12</wgt>
  <wgt id="799">3.60422e-12</wgt>
  <wgt id="800">2.24444e-12</wgt>
  <wgt id="801">2.75449e-12</wgt>
  <wgt id="802">1.5121e-12</wgt>
  <wgt id="803">4.59015e-12</wgt>
  <wgt id="804">3.92788e-12</wgt>
  <wgt id="805">3.82661e-12</wgt>
  <wgt id="806">3.16815e-12</wgt>
  <wgt id="807">2.8154e-12</wgt>
  <wgt id="808">2.75595e-12</wgt>
  <wgt id="809">2.60981e-12</wgt>
  <wgt id="810">3.36677e-12</wgt>
  <wgt id="811">3.04071e-12</wgt>
  <wgt id="812">1.73011e-12</wgt>
  <wgt id="813">1.85232e-12</wgt>
  <wgt id="814">2.04182e-12</wgt>
  <wgt id="815">1.74359e-12</wgt>
  <wgt id="816">1.88237e-12</wgt>
  <wgt id="817">2.92316e-12</wgt>
  <wgt id="818">3.74108e-12</wgt>
  <wgt id="819">1.83208e-12</wgt>
  <wgt id="820">2.73521e-12</wgt>
  <wgt id="821">3.49493e-12</wgt>
  <wgt id="822">2.31744e-12</wgt>
  <wgt id="823">3.67396e-12</wgt>
  <wgt id="824">4.38111e-12</wgt>
  <wgt id="825">1.44383e-12</wgt>
  <wgt id="826">3.57891e-12</wgt>
  <wgt id="827">1.28871e-12</wgt>
  <wgt id="828">3.73994e-12</wgt>
  <wgt id="829">2.98084e-12</wgt>
  <wgt id="830">1.37011e-12</wgt>
  <wgt id="831">3.39252e-12</wgt>
  <wgt id="832">5.18878e-12</wgt>
  <wgt id="833">2.32893e-12</wgt>
  <wgt id="834">5.06118e-12</wgt>
  <wgt id="835">2.04749e-12</wgt>
  <wgt id="836">2.40228e-12</wgt>
  <wgt id="837">3.41142e-12</wgt>
  <wgt id="838">2.34291e-12</wgt>
  <wgt id="839">3.38023e-12</wgt>
  <wgt id="840">2.46924e-12</wgt>
  <wgt id="841">4.06133e-12</wgt>
  <wgt id="842">2.84945e-12</wgt>
  <wgt id="843">3.11389e-12</wgt>
  <wgt id="844">3.20735e-12</wgt>
  <wgt id="845">5.10852e-12</wgt>
  <wgt id="846">2.9363e-12</wgt>
  <wgt id="847">3.09021e-12</wgt>
  <wgt id="848">1.81757e-12</wgt>
  <wgt id="849">3.14366e-12</wgt>
  <wgt id="850">4.41757e-12</wgt>
  <wgt id="851">3.41729e-12</wgt>
  <wgt id="852">1.56113e-12</wgt>
  <wgt id="853">3.56449e-12</wgt>
  <wgt id="854">4.02825e-12</wgt>
  <wgt id="855">3.56933e-12</wgt>
  <wgt id="856">1.35779e-12</wgt>
  <wgt id="857">2.54636e-12</wgt>
  <wgt id="858">2.70355e-12</wgt>
  <wgt id="859">2.77463e-12</wgt>
  <wgt id="860">3.69519e-12</wgt>
  <wgt id="861">2.39632e-12</wgt>
  <wgt id="862">2.9559e-12</wgt>
  <wgt id="863">3.341e-12</wgt>
  <wgt id="864">2.99665e-12</wgt>
  <wgt id="865">4.6731e-12</wgt>
  <wgt id="866">5.18292e-12</wgt>
  <wgt id="867">2.94075e-12</wgt>
  <wgt id="868">2.98957e-12</wgt>
  <wgt id="869">1.67983e-12</wgt>
  <wgt id="870">1.98643e-12</wgt>
  <wgt id="871">1.98897e-12</wgt>
  <wgt id="872">4.1307e-12</wgt>
  <wgt id="873">2.29099e-12</wgt>
  <wgt id="874">3.21068e-12</wgt>
  <wgt id="875">2.24567e-12</wgt>
  <wgt id="876">3.95963e-12</wgt>
  <wgt id="877">3.31531e-12</wgt>
  <wgt id="878">2.30883e-12</wgt>
  <wgt id="879">4.32012e-12</wgt>
  <wgt id="880">4.36999e-12</wgt>
  <wgt id="881">4.70549e-12</wgt>
  <wgt id="882">4.36186e-12</wgt>
  <wgt id="883">4.34522e-12</wgt>
  <wgt id="884">4.24069e-12</wgt>
  <wgt id="885">4.53031e-12</wgt>
  <wgt id="886">4.02316e-12</wgt>
  <wgt id="887">4.53912e-12</wgt>
  <wgt id="888">4.29245e-12</wgt>
  <wgt id="889">4.34522e-12</wgt>
  <wgt id="890">4.46011e-12</wgt>
  <wgt id="891">4.19551e-12</wgt>
  <wgt id="892">4.51669e-12</wgt>
  <wgt id="893">4.43338e-12</wgt>
  <wgt id="894">4.44562e-12</wgt>
  <wgt id="895">4.22464e-12</wgt>
  <wgt id="896">5.61832e-12</wgt>
  <wgt id="897">4.73361e-12</wgt>
  <wgt id="898">4.07484e-12</wgt>
  <wgt id="899">4.15266e-12</wgt>
  <wgt id="900">3.94743e-12</wgt>
  <wgt id="901">3.61313e-12</wgt>
  <wgt id="902">3.6799e-12</wgt>
  <wgt id="903">3.81219e-12</wgt>
  <wgt id="904">4.3148e-12</wgt>
  <wgt id="905">4.1853e-12</wgt>
  <wgt id="906">5.29062e-12</wgt>
  <wgt id="907">4.85437e-12</wgt>
  <wgt id="908">4.82897e-12</wgt>
  <wgt id="909">4.0546e-12</wgt>
  <wgt id="910">4.05868e-12</wgt>
  <wgt id="911">4.14851e-12</wgt>
  <wgt id="912">4.18689e-12</wgt>
  <wgt id="913">3.70567e-12</wgt>
  <wgt id="914">4.5345e-12</wgt>
  <wgt id="915">4.06786e-12</wgt>
  <wgt id="916">4.65974e-12</wgt>
  <wgt id="917">3.92983e-12</wgt>
  <wgt id="918">4.14796e-12</wgt>
  <wgt id="919">4.15767e-12</wgt>
  <wgt id="920">3.8083e-12</wgt>
  <wgt id="921">4.42015e-12</wgt>
  <wgt id="922">3.93005e-12</wgt>
  <wgt id="923">4.37212e-12</wgt>
  <wgt id="924">3.70672e-12</wgt>
  <wgt id="925">3.46949e-12</wgt>
  <wgt id="926">4.82044e-12</wgt>
  <wgt id="927">4.66601e-12</wgt>
  <wgt id="928">4.51508e-12</wgt>
  <wgt id="929">4.29931e-12</wgt>
  <wgt id="930">4.32018e-12</wgt>
  <wgt id="931">4.2094e-12</wgt>
  <wgt id="932">4.025e-12</wgt>
  <wgt id="933">4.76289e-12</wgt>
  <wgt id="934">4.24246e-12</wgt>
  <wgt id="935">4.99217e-12</wgt>
  <wgt id="936">4.04781e-12</wgt>
  <wgt id="937">4.45726e-12</wgt>
  <wgt id="938">4.34572e-12</wgt>
  <wgt id="939">4.03152e-12</wgt>
  <wgt id="940">4.09994e-12</wgt>
  <wgt id="941">4.11445e-12</wgt>
  <wgt id="942">4.60837e-12</wgt>
  <wgt id="943">5.05931e-12</wgt>
  <wgt id="944">4.39987e-12</wgt>
  <wgt id="945">4.182e-12</wgt>
  <wgt id="946">3.95885e-12</wgt>
  <wgt id="947">4.23503e-12</wgt>
  <wgt id="948">4.68446e-12</wgt>
  <wgt id="949">4.81292e-12</wgt>
  <wgt id="950">3.62239e-12</wgt>
  <wgt id="951">4.18839e-12</wgt>
  <wgt id="952">4.48495e-12</wgt>
  <wgt id="953">4.6602e-12</wgt>
  <wgt id="954">4.35341e-12</wgt>
  <wgt id="955">3.89627e-12</wgt>
  <wgt id="956">3.89598e-12</wgt>
  <wgt id="957">4.51967e-12</wgt>
  <wgt id="958">4.23604e-12</wgt>
  <wgt id="959">4.20687e-12</wgt>
  <wgt id="960">3.76782e-12</wgt>
  <wgt id="961">4.21171e-12</wgt>
  <wgt id="962">4.74524e-12</wgt>
  <wgt id="963">4.16734e-12</wgt>
  <wgt id="964">4.74914e-12</wgt>
  <wgt id="965">4.77024e-12</wgt>
  <wgt id="966">4.39143e-12</wgt>
  <wgt id="967">4.59572e-12</wgt>
  <wgt id="968">4.38172e-12</wgt>
  <wgt id="969">4.36465e-12</wgt>
  <wgt id="970">4.40575e-12</wgt>
  <wgt id="971">3.94549e-12</wgt>
  <wgt id="972">4.55877e-12</wgt>
  <wgt id="973">4.09794e-12</wgt>
  <wgt id="974">5.26974e-12</wgt>
  <wgt id="975">4.19653e-12</wgt>
  <wgt id="976">4.32242e-12</wgt>
  <wgt id="977">3.45996e-12</wgt>
  <wgt id="978">4.52945e-12</wgt>
  <wgt id="979">4.9083e-12</wgt>
  <wgt id="980">4.29153e-12</wgt>
  <wgt id="981">4.40373e-12</wgt>
  <wgt id="982">4.18413e-12</wgt>
</rwgt>
</event>
<event>
 5   1  0.3028200E-11  0.2346027E+04  0.7818608E-02  0.7696001E-01
       21   -1    0    0  502  501  0.00000000000E+00  0.00000000000E+00  0.12548603560E+04  0.12548603560E+04  0.00000000000E+00 0.  1.
       21   -1    0    0  501  502 -0.00000000000E+00 -0.00000000000E+00 -0.10965050175E+04  0.10965050175E+04  0.00000000000E+00 0. -1.
       39    2    1    2    0    0  0.00000000000E+00  0.00000000000E+00  0.15835533845E+03  0.23513653735E+04  0.23460270047E+04 0.  0.
       25    1    3    3    0    0 -0.13098168434E+02 -0.11539230656E+04  0.24875389570E+03  0.11871029879E+04  0.12500000000E+03 0.  0.
       25    1    3    3    0    0  0.13098168434E+02  0.11539230656E+04 -0.90398557243E+02  0.11642623856E+04  0.12500000000E+03 0.  0.
<mgrwt>
<rscale>  0 0.23460270E+04</rscale>
<asrwt>0</asrwt>
<pdfrwt beam="1">  1       21 0.19305544E+00 0.23460270E+04</pdfrwt>
<pdfrwt beam="2">  1       21 0.16869308E+00 0.23460270E+04</pdfrwt>
<totfact> 0.12167069E+01</totfact>
</mgrwt>
<rwgt>
  <wgt id="1">3.0282e-12</wgt>
  <wgt id="2">2.63525e-12</wgt>
  <wgt id="3">3.5163e-12</wgt>
  <wgt id="4">3.0282e-12</wgt>
  <wgt id="5">2.63525e-12</wgt>
  <wgt id="6">3.5163e-12</wgt>
  <wgt id="7">3.0282e-12</wgt>
  <wgt id="8">2.63525e-12</wgt>
  <wgt id="9">3.5163e-12</wgt>
  <wgt id="10">3.13212e-12</wgt>
  <wgt id="11">3.1287e-12</wgt>
  <wgt id="12">3.12584e-12</wgt>
  <wgt id="13">3.12109e-12</wgt>
  <wgt id="14">3.14366e-12</wgt>
  <wgt id="15">3.1367e-12</wgt>
  <wgt id="16">3.12546e-12</wgt>
  <wgt id="17">3.13662e-12</wgt>
  <wgt id="18">3.12645e-12</wgt>
  <wgt id="19">3.13926e-12</wgt>
  <wgt id="20">3.12219e-12</wgt>
  <wgt id="21">3.11494e-12</wgt>
  <wgt id="22">3.12261e-12</wgt>
  <wgt id="23">3.10541e-12</wgt>
  <wgt id="24">3.11884e-12</wgt>
  <wgt id="25">3.12498e-12</wgt>
  <wgt id="26">3.14593e-12</wgt>
  <wgt id="27">3.13243e-12</wgt>
  <wgt id="28">3.11798e-12</wgt>
  <wgt id="29">3.13522e-12</wgt>
  <wgt id="30">3.12614e-12</wgt>
  <wgt id="31">3.13958e-12</wgt>
  <wgt id="32">3.12825e-12</wgt>
  <wgt id="33">3.1401e-12</wgt>
  <wgt id="34">3.1233e-12</wgt>
  <wgt id="35">3.13137e-12</wgt>
  <wgt id="36">3.14166e-12</wgt>
  <wgt id="37">3.12419e-12</wgt>
  <wgt id="38">3.12307e-12</wgt>
  <wgt id="39">3.16241e-12</wgt>
  <wgt id="40">3.13955e-12</wgt>
  <wgt id="41">3.13169e-12</wgt>
  <wgt id="42">3.13984e-12</wgt>
  <wgt id="43">3.1334e-12</wgt>
  <wgt id="44">3.12067e-12</wgt>
  <wgt id="45">3.13911e-12</wgt>
  <wgt id="46">3.13819e-12</wgt>
  <wgt id="47">3.11771e-12</wgt>
  <wgt id="48">3.13177e-12</wgt>
  <wgt id="49">3.14144e-12</wgt>
  <wgt id="50">3.15317e-12</wgt>
  <wgt id="51">3.14817e-12</wgt>
  <wgt id="52">3.12596e-12</wgt>
  <wgt id="53">3.10747e-12</wgt>
  <wgt id="54">3.12428e-12</wgt>
  <wgt id="55">3.13174e-12</wgt>
  <wgt id="56">3.14274e-12</wgt>
  <wgt id="57">3.14329e-12</wgt>
  <wgt id="58">3.10887e-12</wgt>
  <wgt id="59">3.12031e-12</wgt>
  <wgt id="60">3.13292e-12</wgt>
  <wgt id="61">3.12663e-12</wgt>
  <wgt id="62">3.132e-12</wgt>
  <wgt id="63">3.13631e-12</wgt>
  <wgt id="64">3.13598e-12</wgt>
  <wgt id="65">3.13528e-12</wgt>
  <wgt id="66">3.12778e-12</wgt>
  <wgt id="67">3.12783e-12</wgt>
  <wgt id="68">3.12849e-12</wgt>
  <wgt id="69">3.13147e-12</wgt>
  <wgt id="70">3.12933e-12</wgt>
  <wgt id="71">3.13148e-12</wgt>
  <wgt id="72">3.12907e-12</wgt>
  <wgt id="73">3.13407e-12</wgt>
  <wgt id="74">3.13435e-12</wgt>
  <wgt id="75">3.13056e-12</wgt>
  <wgt id="76">3.14079e-12</wgt>
  <wgt id="77">3.13171e-12</wgt>
  <wgt id="78">3.1331e-12</wgt>
  <wgt id="79">3.13753e-12</wgt>
  <wgt id="80">3.11895e-12</wgt>
  <wgt id="81">3.12791e-12</wgt>
  <wgt id="82">3.13213e-12</wgt>
  <wgt id="83">3.12012e-12</wgt>
  <wgt id="84">3.12511e-12</wgt>
  <wgt id="85">3.12672e-12</wgt>
  <wgt id="86">3.13892e-12</wgt>
  <wgt id="87">3.11677e-12</wgt>
  <wgt id="88">3.13592e-12</wgt>
  <wgt id="89">3.13508e-12</wgt>
  <wgt id="90">3.1359e-12</wgt>
  <wgt id="91">3.13416e-12</wgt>
  <wgt id="92">3.13783e-12</wgt>
  <wgt id="93">3.13136e-12</wgt>
  <wgt id="94">3.12929e-12</wgt>
  <wgt id="95">3.13368e-12</wgt>
  <wgt id="96">3.1343e-12</wgt>
  <wgt id="97">3.1283e-12</wgt>
  <wgt id="98">3.13356e-12</wgt>
  <wgt id="99">3.1314e-12</wgt>
  <wgt id="100">3.13499e-12</wgt>
  <wgt id="101">3.13067e-12</wgt>
  <wgt id="102">3.12872e-12</wgt>
  <wgt id="103">3.13651e-12</wgt>
  <wgt id="104">3.1295e-12</wgt>
  <wgt id="105">3.13474e-12</wgt>
  <wgt id="106">3.12835e-12</wgt>
  <wgt id="107">3.13999e-12</wgt>
  <wgt id="108">3.12926e-12</wgt>
  <wgt id="109">3.13329e-12</wgt>
  <wgt id="110">3.13153e-12</wgt>
  <wgt id="111">3.16443e-12</wgt>
  <wgt id="112">3.12798e-12</wgt>
  <wgt id="113">4.20581e-12</wgt>
  <wgt id="114">4.35505e-12</wgt>
  <wgt id="115">4.29616e-12</wgt>
  <wgt id="116">6.03658e-12</wgt>
  <wgt id="117">3.49334e-12</wgt>
  <wgt id="118">3.50565e-12</wgt>
  <wgt id="119">3.48652e-12</wgt>
  <wgt id="120">3.49371e-12</wgt>
  <wgt id="121">3.49315e-12</wgt>
  <wgt id="122">3.48732e-12</wgt>
  <wgt id="123">3.50183e-12</wgt>
  <wgt id="124">3.48841e-12</wgt>
  <wgt id="125">3.4967e-12</wgt>
  <wgt id="126">3.49987e-12</wgt>
  <wgt id="127">3.48907e-12</wgt>
  <wgt id="128">3.50437e-12</wgt>
  <wgt id="129">3.48249e-12</wgt>
  <wgt id="130">3.51384e-12</wgt>
  <wgt id="131">3.47239e-12</wgt>
  <wgt id="132">3.40271e-12</wgt>
  <wgt id="133">3.60064e-12</wgt>
  <wgt id="134">3.45584e-12</wgt>
  <wgt id="135">3.5227e-12</wgt>
  <wgt id="136">3.53784e-12</wgt>
  <wgt id="137">3.43959e-12</wgt>
  <wgt id="138">3.62801e-12</wgt>
  <wgt id="139">3.36322e-12</wgt>
  <wgt id="140">3.46996e-12</wgt>
  <wgt id="141">3.51167e-12</wgt>
  <wgt id="142">3.49391e-12</wgt>
  <wgt id="143">3.49811e-12</wgt>
  <wgt id="144">3.39695e-12</wgt>
  <wgt id="145">3.58278e-12</wgt>
  <wgt id="146">3.52417e-12</wgt>
  <wgt id="147">3.46906e-12</wgt>
  <wgt id="148">3.50409e-12</wgt>
  <wgt id="149">3.49266e-12</wgt>
  <wgt id="150">3.52374e-12</wgt>
  <wgt id="151">3.47915e-12</wgt>
  <wgt id="152">3.49501e-12</wgt>
  <wgt id="153">3.49284e-12</wgt>
  <wgt id="154">3.52224e-12</wgt>
  <wgt id="155">3.4592e-12</wgt>
  <wgt id="156">3.5609e-12</wgt>
  <wgt id="157">3.42168e-12</wgt>
  <wgt id="158">4.20277e-12</wgt>
  <wgt id="159">4.22025e-12</wgt>
  <wgt id="160">4.18859e-12</wgt>
  <wgt id="161">4.19206e-12</wgt>
  <wgt id="162">4.21461e-12</wgt>
  <wgt id="163">4.19827e-12</wgt>
  <wgt id="164">4.20954e-12</wgt>
  <wgt id="165">4.20433e-12</wgt>
  <wgt id="166">4.20162e-12</wgt>
  <wgt id="167">4.19971e-12</wgt>
  <wgt id="168">4.20702e-12</wgt>
  <wgt id="169">4.18491e-12</wgt>
  <wgt id="170">4.21412e-12</wgt>
  <wgt id="171">4.19805e-12</wgt>
  <wgt id="172">4.20942e-12</wgt>
  <wgt id="173">4.2028e-12</wgt>
  <wgt id="174">4.20262e-12</wgt>
  <wgt id="175">4.08468e-12</wgt>
  <wgt id="176">4.35666e-12</wgt>
  <wgt id="177">4.22538e-12</wgt>
  <wgt id="178">4.18187e-12</wgt>
  <wgt id="179">4.37743e-12</wgt>
  <wgt id="180">3.92693e-12</wgt>
  <wgt id="181">4.08106e-12</wgt>
  <wgt id="182">4.28306e-12</wgt>
  <wgt id="183">4.12837e-12</wgt>
  <wgt id="184">4.23976e-12</wgt>
  <wgt id="185">4.16935e-12</wgt>
  <wgt id="186">4.24331e-12</wgt>
  <wgt id="187">4.16544e-12</wgt>
  <wgt id="188">4.27048e-12</wgt>
  <wgt id="189">4.17607e-12</wgt>
  <wgt id="190">4.21382e-12</wgt>
  <wgt id="191">4.21418e-12</wgt>
  <wgt id="192">4.19607e-12</wgt>
  <wgt id="193">4.26236e-12</wgt>
  <wgt id="194">4.1734e-12</wgt>
  <wgt id="195">4.10049e-12</wgt>
  <wgt id="196">4.38574e-12</wgt>
  <wgt id="197">4.22371e-12</wgt>
  <wgt id="198">4.19786e-12</wgt>
  <wgt id="199">4.20277e-12</wgt>
  <wgt id="200">4.2386e-12</wgt>
  <wgt id="201">4.22541e-12</wgt>
  <wgt id="202">4.2127e-12</wgt>
  <wgt id="203">4.19345e-12</wgt>
  <wgt id="204">4.18436e-12</wgt>
  <wgt id="205">4.17693e-12</wgt>
  <wgt id="206">4.07449e-12</wgt>
  <wgt id="207">4.0983e-12</wgt>
  <wgt id="208">4.05093e-12</wgt>
  <wgt id="209">4.08709e-12</wgt>
  <wgt id="210">4.06517e-12</wgt>
  <wgt id="211">4.07304e-12</wgt>
  <wgt id="212">4.07574e-12</wgt>
  <wgt id="213">4.07411e-12</wgt>
  <wgt id="214">4.07508e-12</wgt>
  <wgt id="215">4.07742e-12</wgt>
  <wgt id="216">4.07229e-12</wgt>
  <wgt id="217">4.0863e-12</wgt>
  <wgt id="218">4.06534e-12</wgt>
  <wgt id="219">4.07041e-12</wgt>
  <wgt id="220">4.07693e-12</wgt>
  <wgt id="221">4.0725e-12</wgt>
  <wgt id="222">4.07896e-12</wgt>
  <wgt id="223">3.86032e-12</wgt>
  <wgt id="224">4.26946e-12</wgt>
  <wgt id="225">4.02585e-12</wgt>
  <wgt id="226">4.1355e-12</wgt>
  <wgt id="227">4.03614e-12</wgt>
  <wgt id="228">4.0913e-12</wgt>
  <wgt id="229">4.01805e-12</wgt>
  <wgt id="230">4.10256e-12</wgt>
  <wgt id="231">4.18959e-12</wgt>
  <wgt id="232">3.97983e-12</wgt>
  <wgt id="233">4.05342e-12</wgt>
  <wgt id="234">4.10716e-12</wgt>
  <wgt id="235">3.99542e-12</wgt>
  <wgt id="236">4.14909e-12</wgt>
  <wgt id="237">4.02017e-12</wgt>
  <wgt id="238">4.09314e-12</wgt>
  <wgt id="239">4.05074e-12</wgt>
  <wgt id="240">4.11739e-12</wgt>
  <wgt id="241">4.03371e-12</wgt>
  <wgt id="242">4.12379e-12</wgt>
  <wgt id="243">4.12393e-12</wgt>
  <wgt id="244">4.09674e-12</wgt>
  <wgt id="245">4.07161e-12</wgt>
  <wgt id="246">4.1048e-12</wgt>
  <wgt id="247">4.07449e-12</wgt>
  <wgt id="248">4.10906e-12</wgt>
  <wgt id="249">4.09572e-12</wgt>
  <wgt id="250">4.08356e-12</wgt>
  <wgt id="251">4.06483e-12</wgt>
  <wgt id="252">4.05622e-12</wgt>
  <wgt id="253">4.04986e-12</wgt>
  <wgt id="254">3.99455e-12</wgt>
  <wgt id="255">3.99835e-12</wgt>
  <wgt id="256">3.99026e-12</wgt>
  <wgt id="257">3.99745e-12</wgt>
  <wgt id="258">3.99228e-12</wgt>
  <wgt id="259">4.02123e-12</wgt>
  <wgt id="260">3.96877e-12</wgt>
  <wgt id="261">4.00017e-12</wgt>
  <wgt id="262">3.98777e-12</wgt>
  <wgt id="263">3.99279e-12</wgt>
  <wgt id="264">3.99651e-12</wgt>
  <wgt id="265">3.98984e-12</wgt>
  <wgt id="266">4.00364e-12</wgt>
  <wgt id="267">3.99585e-12</wgt>
  <wgt id="268">3.99275e-12</wgt>
  <wgt id="269">4.00736e-12</wgt>
  <wgt id="270">3.9858e-12</wgt>
  <wgt id="271">3.98795e-12</wgt>
  <wgt id="272">4.0019e-12</wgt>
  <wgt id="273">3.98199e-12</wgt>
  <wgt id="274">4.00404e-12</wgt>
  <wgt id="275">3.97848e-12</wgt>
  <wgt id="276">4.01102e-12</wgt>
  <wgt id="277">3.9719e-12</wgt>
  <wgt id="278">4.01527e-12</wgt>
  <wgt id="279">3.9178e-12</wgt>
  <wgt id="280">4.09049e-12</wgt>
  <wgt id="281">3.97699e-12</wgt>
  <wgt id="282">3.99512e-12</wgt>
  <wgt id="283">3.88211e-12</wgt>
  <wgt id="284">4.13275e-12</wgt>
  <wgt id="285">3.80783e-12</wgt>
  <wgt id="286">4.14852e-12</wgt>
  <wgt id="287">4.0067e-12</wgt>
  <wgt id="288">3.97879e-12</wgt>
  <wgt id="289">4.02177e-12</wgt>
  <wgt id="290">3.93047e-12</wgt>
  <wgt id="291">3.98419e-12</wgt>
  <wgt id="292">3.99695e-12</wgt>
  <wgt id="293">3.96439e-12</wgt>
  <wgt id="294">4.02433e-12</wgt>
  <wgt id="295">3.92039e-12</wgt>
  <wgt id="296">4.08483e-12</wgt>
  <wgt id="297">3.99494e-12</wgt>
  <wgt id="298">4.00892e-12</wgt>
  <wgt id="299">3.98177e-12</wgt>
  <wgt id="300">4.02781e-12</wgt>
  <wgt id="301">3.94164e-12</wgt>
  <wgt id="302">4.12962e-12</wgt>
  <wgt id="303">3.96551e-12</wgt>
  <wgt id="304">4.01126e-12</wgt>
  <wgt id="305">4.01025e-12</wgt>
  <wgt id="306">4.01455e-12</wgt>
  <wgt id="307">4.00595e-12</wgt>
  <wgt id="308">4.01369e-12</wgt>
  <wgt id="309">4.00812e-12</wgt>
  <wgt id="310">4.03809e-12</wgt>
  <wgt id="311">3.98474e-12</wgt>
  <wgt id="312">4.01503e-12</wgt>
  <wgt id="313">4.00571e-12</wgt>
  <wgt id="314">4.00884e-12</wgt>
  <wgt id="315">4.01203e-12</wgt>
  <wgt id="316">4.00591e-12</wgt>
  <wgt id="317">4.02004e-12</wgt>
  <wgt id="318">4.01335e-12</wgt>
  <wgt id="319">4.00551e-12</wgt>
  <wgt id="320">4.02378e-12</wgt>
  <wgt id="321">4.00295e-12</wgt>
  <wgt id="322">4.0017e-12</wgt>
  <wgt id="323">4.02067e-12</wgt>
  <wgt id="324">4.00003e-12</wgt>
  <wgt id="325">4.01955e-12</wgt>
  <wgt id="326">3.99758e-12</wgt>
  <wgt id="327">4.02676e-12</wgt>
  <wgt id="328">3.99005e-12</wgt>
  <wgt id="329">4.02198e-12</wgt>
  <wgt id="330">4.12851e-12</wgt>
  <wgt id="331">3.89766e-12</wgt>
  <wgt id="332">3.99579e-12</wgt>
  <wgt id="333">4.01045e-12</wgt>
  <wgt id="334">3.92177e-12</wgt>
  <wgt id="335">4.12031e-12</wgt>
  <wgt id="336">3.87445e-12</wgt>
  <wgt id="337">4.17522e-12</wgt>
  <wgt id="338">4.05385e-12</wgt>
  <wgt id="339">3.97015e-12</wgt>
  <wgt id="340">4.03647e-12</wgt>
  <wgt id="341">3.94317e-12</wgt>
  <wgt id="342">4.00315e-12</wgt>
  <wgt id="343">4.00679e-12</wgt>
  <wgt id="344">3.98303e-12</wgt>
  <wgt id="345">4.04217e-12</wgt>
  <wgt id="346">3.93331e-12</wgt>
  <wgt id="347">4.09927e-12</wgt>
  <wgt id="348">4.01246e-12</wgt>
  <wgt id="349">4.02211e-12</wgt>
  <wgt id="350">3.99443e-12</wgt>
  <wgt id="351">4.05086e-12</wgt>
  <wgt id="352">3.95144e-12</wgt>
  <wgt id="353">4.15271e-12</wgt>
  <wgt id="354">3.96565e-12</wgt>
  <wgt id="355">4.0378e-12</wgt>
  <wgt id="356">3.99455e-12</wgt>
  <wgt id="357">4.0279e-12</wgt>
  <wgt id="358">4.01025e-12</wgt>
  <wgt id="359">4.00955e-12</wgt>
  <wgt id="360">4.01807e-12</wgt>
  <wgt id="361">4.00648e-12</wgt>
  <wgt id="362">4.07475e-12</wgt>
  <wgt id="363">4.06495e-12</wgt>
  <wgt id="364">4.05164e-12</wgt>
  <wgt id="365">4.03817e-12</wgt>
  <wgt id="366">4.02314e-12</wgt>
  <wgt id="367">3.99172e-12</wgt>
  <wgt id="368">3.97474e-12</wgt>
  <wgt id="369">3.95635e-12</wgt>
  <wgt id="370">4.00648e-12</wgt>
  <wgt id="371">4.02447e-12</wgt>
  <wgt id="372">4.01455e-12</wgt>
  <wgt id="373">3.99991e-12</wgt>
  <wgt id="374">3.99805e-12</wgt>
  <wgt id="375">4.25667e-12</wgt>
  <wgt id="376">4.25725e-12</wgt>
  <wgt id="377">4.25594e-12</wgt>
  <wgt id="378">4.27191e-12</wgt>
  <wgt id="379">4.24131e-12</wgt>
  <wgt id="380">4.26797e-12</wgt>
  <wgt id="381">4.25201e-12</wgt>
  <wgt id="382">4.27871e-12</wgt>
  <wgt id="383">4.23471e-12</wgt>
  <wgt id="384">4.25938e-12</wgt>
  <wgt id="385">4.25399e-12</wgt>
  <wgt id="386">4.27378e-12</wgt>
  <wgt id="387">4.2491e-12</wgt>
  <wgt id="388">4.25252e-12</wgt>
  <wgt id="389">4.26145e-12</wgt>
  <wgt id="390">4.26829e-12</wgt>
  <wgt id="391">4.24432e-12</wgt>
  <wgt id="392">4.22457e-12</wgt>
  <wgt id="393">4.27474e-12</wgt>
  <wgt id="394">4.26272e-12</wgt>
  <wgt id="395">4.24811e-12</wgt>
  <wgt id="396">4.25901e-12</wgt>
  <wgt id="397">4.25494e-12</wgt>
  <wgt id="398">4.23753e-12</wgt>
  <wgt id="399">4.27509e-12</wgt>
  <wgt id="400">4.24933e-12</wgt>
  <wgt id="401">4.2729e-12</wgt>
  <wgt id="402">4.22244e-12</wgt>
  <wgt id="403">4.27118e-12</wgt>
  <wgt id="404">4.35257e-12</wgt>
  <wgt id="405">4.02518e-12</wgt>
  <wgt id="406">4.18788e-12</wgt>
  <wgt id="407">4.40544e-12</wgt>
  <wgt id="408">4.29195e-12</wgt>
  <wgt id="409">4.18886e-12</wgt>
  <wgt id="410">4.14357e-12</wgt>
  <wgt id="411">4.30865e-12</wgt>
  <wgt id="412">4.24937e-12</wgt>
  <wgt id="413">4.26717e-12</wgt>
  <wgt id="414">4.21141e-12</wgt>
  <wgt id="415">4.2916e-12</wgt>
  <wgt id="416">4.36569e-12</wgt>
  <wgt id="417">4.10587e-12</wgt>
  <wgt id="418">4.2621e-12</wgt>
  <wgt id="419">4.22736e-12</wgt>
  <wgt id="420">4.31646e-12</wgt>
  <wgt id="421">4.22321e-12</wgt>
  <wgt id="422">4.25139e-12</wgt>
  <wgt id="423">4.25997e-12</wgt>
  <wgt id="424">4.33903e-12</wgt>
  <wgt id="425">4.20531e-12</wgt>
  <wgt id="426">4.25667e-12</wgt>
  <wgt id="427">4.2222e-12</wgt>
  <wgt id="428">4.36106e-12</wgt>
  <wgt id="429">4.29324e-12</wgt>
  <wgt id="430">4.41085e-12</wgt>
  <wgt id="431">4.38743e-12</wgt>
  <wgt id="432">4.36513e-12</wgt>
  <wgt id="433">4.3435e-12</wgt>
  <wgt id="434">4.31746e-12</wgt>
  <wgt id="435">4.26281e-12</wgt>
  <wgt id="436">4.23469e-12</wgt>
  <wgt id="437">4.20806e-12</wgt>
  <wgt id="438">4.29324e-12</wgt>
  <wgt id="439">4.30744e-12</wgt>
  <wgt id="440">4.29912e-12</wgt>
  <wgt id="441">4.28888e-12</wgt>
  <wgt id="442">4.28497e-12</wgt>
  <wgt id="443">4.17374e-12</wgt>
  <wgt id="444">4.19515e-12</wgt>
  <wgt id="445">4.15426e-12</wgt>
  <wgt id="446">4.14778e-12</wgt>
  <wgt id="447">4.15779e-12</wgt>
  <wgt id="448">4.06477e-12</wgt>
  <wgt id="449">4.23626e-12</wgt>
  <wgt id="450">4.15487e-12</wgt>
  <wgt id="451">4.16742e-12</wgt>
  <wgt id="452">4.26591e-12</wgt>
  <wgt id="453">4.21229e-12</wgt>
  <wgt id="454">4.01222e-12</wgt>
  <wgt id="455">4.17752e-12</wgt>
  <wgt id="456">4.12311e-12</wgt>
  <wgt id="457">4.19088e-12</wgt>
  <wgt id="458">4.21905e-12</wgt>
  <wgt id="459">4.20021e-12</wgt>
  <wgt id="460">4.19404e-12</wgt>
  <wgt id="461">4.10035e-12</wgt>
  <wgt id="462">4.13999e-12</wgt>
  <wgt id="463">4.13099e-12</wgt>
  <wgt id="464">4.15042e-12</wgt>
  <wgt id="465">4.21616e-12</wgt>
  <wgt id="466">4.12901e-12</wgt>
  <wgt id="467">4.13417e-12</wgt>
  <wgt id="468">4.16247e-12</wgt>
  <wgt id="469">4.16195e-12</wgt>
  <wgt id="470">4.13888e-12</wgt>
  <wgt id="471">4.1385e-12</wgt>
  <wgt id="472">4.19242e-12</wgt>
  <wgt id="473">4.04171e-12</wgt>
  <wgt id="474">3.0282e-12</wgt>
  <wgt id="475">3.22631e-12</wgt>
  <wgt id="476">2.9586e-12</wgt>
  <wgt id="477">2.93462e-12</wgt>
  <wgt id="478">3.04207e-12</wgt>
  <wgt id="479">2.97502e-12</wgt>
  <wgt id="480">3.13264e-12</wgt>
  <wgt id="481">2.95683e-12</wgt>
  <wgt id="482">2.90787e-12</wgt>
  <wgt id="483">2.94758e-12</wgt>
  <wgt id="484">3.24971e-12</wgt>
  <wgt id="485">3.03712e-12</wgt>
  <wgt id="486">3.09599e-12</wgt>
  <wgt id="487">3.09043e-12</wgt>
  <wgt id="488">3.06813e-12</wgt>
  <wgt id="489">2.93444e-12</wgt>
  <wgt id="490">2.93809e-12</wgt>
  <wgt id="491">2.99211e-12</wgt>
  <wgt id="492">2.93115e-12</wgt>
  <wgt id="493">2.9192e-12</wgt>
  <wgt id="494">2.93839e-12</wgt>
  <wgt id="495">3.09809e-12</wgt>
  <wgt id="496">2.92694e-12</wgt>
  <wgt id="497">2.91294e-12</wgt>
  <wgt id="498">3.06584e-12</wgt>
  <wgt id="499">2.94844e-12</wgt>
  <wgt id="500">2.98151e-12</wgt>
  <wgt id="501">3.16626e-12</wgt>
  <wgt id="502">2.94453e-12</wgt>
  <wgt id="503">3.02278e-12</wgt>
  <wgt id="504">3.0439e-12</wgt>
  <wgt id="505">3.03492e-12</wgt>
  <wgt id="506">3.10351e-12</wgt>
  <wgt id="507">2.99503e-12</wgt>
  <wgt id="508">3.06641e-12</wgt>
  <wgt id="509">2.98865e-12</wgt>
  <wgt id="510">3.10754e-12</wgt>
  <wgt id="511">2.97046e-12</wgt>
  <wgt id="512">3.06649e-12</wgt>
  <wgt id="513">3.16001e-12</wgt>
  <wgt id="514">2.9994e-12</wgt>
  <wgt id="515">2.98494e-12</wgt>
  <wgt id="516">3.10416e-12</wgt>
  <wgt id="517">3.09059e-12</wgt>
  <wgt id="518">3.09811e-12</wgt>
  <wgt id="519">2.94491e-12</wgt>
  <wgt id="520">3.0504e-12</wgt>
  <wgt id="521">3.13663e-12</wgt>
  <wgt id="522">3.14175e-12</wgt>
  <wgt id="523">3.10761e-12</wgt>
  <wgt id="524">3.08496e-12</wgt>
  <wgt id="525">3.11996e-12</wgt>
  <wgt id="526">3.03219e-12</wgt>
  <wgt id="527">3.07819e-12</wgt>
  <wgt id="528">3.03911e-12</wgt>
  <wgt id="529">2.97656e-12</wgt>
  <wgt id="530">3.04967e-12</wgt>
  <wgt id="531">2.99745e-12</wgt>
  <wgt id="532">3.19235e-12</wgt>
  <wgt id="533">2.84231e-12</wgt>
  <wgt id="534">3.04259e-12</wgt>
  <wgt id="535">3.09511e-12</wgt>
  <wgt id="536">3.02054e-12</wgt>
  <wgt id="537">3.04118e-12</wgt>
  <wgt id="538">3.06749e-12</wgt>
  <wgt id="539">2.96871e-12</wgt>
  <wgt id="540">2.97167e-12</wgt>
  <wgt id="541">2.95692e-12</wgt>
  <wgt id="542">2.97045e-12</wgt>
  <wgt id="543">3.0245e-12</wgt>
  <wgt id="544">3.17841e-12</wgt>
  <wgt id="545">2.99187e-12</wgt>
  <wgt id="546">2.99791e-12</wgt>
  <wgt id="547">2.93385e-12</wgt>
  <wgt id="548">2.90435e-12</wgt>
  <wgt id="549">2.97603e-12</wgt>
  <wgt id="550">3.0262e-12</wgt>
  <wgt id="551">3.05701e-12</wgt>
  <wgt id="552">3.00895e-12</wgt>
  <wgt id="553">3.02278e-12</wgt>
  <wgt id="554">3.25287e-12</wgt>
  <wgt id="555">3.105e-12</wgt>
  <wgt id="556">2.93809e-12</wgt>
  <wgt id="557">3.07352e-12</wgt>
  <wgt id="558">2.92665e-12</wgt>
  <wgt id="559">2.99225e-12</wgt>
  <wgt id="560">3.27262e-12</wgt>
  <wgt id="561">2.96265e-12</wgt>
  <wgt id="562">3.07005e-12</wgt>
  <wgt id="563">2.93289e-12</wgt>
  <wgt id="564">3.01994e-12</wgt>
  <wgt id="565">2.9129e-12</wgt>
  <wgt id="566">3.07384e-12</wgt>
  <wgt id="567">2.98225e-12</wgt>
  <wgt id="568">3.02006e-12</wgt>
  <wgt id="569">3.08037e-12</wgt>
  <wgt id="570">2.94311e-12</wgt>
  <wgt id="571">3.35398e-12</wgt>
  <wgt id="572">2.95637e-12</wgt>
  <wgt id="573">2.89009e-12</wgt>
  <wgt id="574">2.91858e-12</wgt>
  <wgt id="575">3.32976e-12</wgt>
  <wgt id="576">3.28603e-12</wgt>
  <wgt id="577">3.42677e-12</wgt>
  <wgt id="578">3.40899e-12</wgt>
  <wgt id="579">3.37616e-12</wgt>
  <wgt id="580">3.38431e-12</wgt>
  <wgt id="581">3.53425e-12</wgt>
  <wgt id="582">3.27728e-12</wgt>
  <wgt id="583">3.3659e-12</wgt>
  <wgt id="584">3.33603e-12</wgt>
  <wgt id="585">3.36535e-12</wgt>
  <wgt id="586">3.2593e-12</wgt>
  <wgt id="587">3.3743e-12</wgt>
  <wgt id="588">3.30687e-12</wgt>
  <wgt id="589">3.38126e-12</wgt>
  <wgt id="590">3.39122e-12</wgt>
  <wgt id="591">3.45746e-12</wgt>
  <wgt id="592">3.27277e-12</wgt>
  <wgt id="593">3.31709e-12</wgt>
  <wgt id="594">3.44219e-12</wgt>
  <wgt id="595">3.30991e-12</wgt>
  <wgt id="596">3.35462e-12</wgt>
  <wgt id="597">3.21779e-12</wgt>
  <wgt id="598">3.2613e-12</wgt>
  <wgt id="599">3.51415e-12</wgt>
  <wgt id="600">3.29216e-12</wgt>
  <wgt id="601">3.23725e-12</wgt>
  <wgt id="602">3.26635e-12</wgt>
  <wgt id="603">3.27571e-12</wgt>
  <wgt id="604">3.37652e-12</wgt>
  <wgt id="605">3.46614e-12</wgt>
  <wgt id="606">3.24573e-12</wgt>
  <wgt id="607">3.28117e-12</wgt>
  <wgt id="608">3.3404e-12</wgt>
  <wgt id="609">3.14033e-12</wgt>
  <wgt id="610">3.2026e-12</wgt>
  <wgt id="611">3.37313e-12</wgt>
  <wgt id="612">3.55925e-12</wgt>
  <wgt id="613">3.32965e-12</wgt>
  <wgt id="614">3.37744e-12</wgt>
  <wgt id="615">3.25864e-12</wgt>
  <wgt id="616">3.53343e-12</wgt>
  <wgt id="617">3.45414e-12</wgt>
  <wgt id="618">3.35153e-12</wgt>
  <wgt id="619">3.29675e-12</wgt>
  <wgt id="620">3.46897e-12</wgt>
  <wgt id="621">3.38334e-12</wgt>
  <wgt id="622">3.3743e-12</wgt>
  <wgt id="623">3.42441e-12</wgt>
  <wgt id="624">3.31482e-12</wgt>
  <wgt id="625">3.29527e-12</wgt>
  <wgt id="626">3.25724e-12</wgt>
  <wgt id="627">3.20576e-12</wgt>
  <wgt id="628">3.52956e-12</wgt>
  <wgt id="629">3.2503e-12</wgt>
  <wgt id="630">3.21239e-12</wgt>
  <wgt id="631">3.34107e-12</wgt>
  <wgt id="632">3.2264e-12</wgt>
  <wgt id="633">3.28948e-12</wgt>
  <wgt id="634">3.33422e-12</wgt>
  <wgt id="635">3.28115e-12</wgt>
  <wgt id="636">3.34671e-12</wgt>
  <wgt id="637">3.32125e-12</wgt>
  <wgt id="638">3.2033e-12</wgt>
  <wgt id="639">3.28892e-12</wgt>
  <wgt id="640">3.33388e-12</wgt>
  <wgt id="641">3.34089e-12</wgt>
  <wgt id="642">3.20489e-12</wgt>
  <wgt id="643">3.31315e-12</wgt>
  <wgt id="644">3.21874e-12</wgt>
  <wgt id="645">3.35944e-12</wgt>
  <wgt id="646">3.39166e-12</wgt>
  <wgt id="647">3.28318e-12</wgt>
  <wgt id="648">3.34271e-12</wgt>
  <wgt id="649">3.383e-12</wgt>
  <wgt id="650">3.2721e-12</wgt>
  <wgt id="651">3.34116e-12</wgt>
  <wgt id="652">3.31469e-12</wgt>
  <wgt id="653">3.23918e-12</wgt>
  <wgt id="654">3.31696e-12</wgt>
  <wgt id="655">3.27214e-12</wgt>
  <wgt id="656">3.34735e-12</wgt>
  <wgt id="657">3.42853e-12</wgt>
  <wgt id="658">3.35521e-12</wgt>
  <wgt id="659">3.20319e-12</wgt>
  <wgt id="660">3.39826e-12</wgt>
  <wgt id="661">3.27575e-12</wgt>
  <wgt id="662">3.32974e-12</wgt>
  <wgt id="663">3.32497e-12</wgt>
  <wgt id="664">3.27721e-12</wgt>
  <wgt id="665">3.31758e-12</wgt>
  <wgt id="666">3.3091e-12</wgt>
  <wgt id="667">3.43032e-12</wgt>
  <wgt id="668">3.32144e-12</wgt>
  <wgt id="669">3.41191e-12</wgt>
  <wgt id="670">3.38441e-12</wgt>
  <wgt id="671">3.29156e-12</wgt>
  <wgt id="672">3.19067e-12</wgt>
  <wgt id="673">3.32637e-12</wgt>
  <wgt id="674">3.26704e-12</wgt>
  <wgt id="675">3.27748e-12</wgt>
  <wgt id="676">4.18082e-12</wgt>
  <wgt id="677">4.22998e-12</wgt>
  <wgt id="678">4.37186e-12</wgt>
  <wgt id="679">3.92552e-12</wgt>
  <wgt id="680">4.06178e-12</wgt>
  <wgt id="681">4.28895e-12</wgt>
  <wgt id="682">4.28629e-12</wgt>
  <wgt id="683">4.13647e-12</wgt>
  <wgt id="684">4.36966e-12</wgt>
  <wgt id="685">3.94999e-12</wgt>
  <wgt id="686">4.14012e-12</wgt>
  <wgt id="687">4.38595e-12</wgt>
  <wgt id="688">4.17755e-12</wgt>
  <wgt id="689">4.52426e-12</wgt>
  <wgt id="690">4.40672e-12</wgt>
  <wgt id="691">4.44316e-12</wgt>
  <wgt id="692">4.14384e-12</wgt>
  <wgt id="693">4.86286e-12</wgt>
  <wgt id="694">4.41977e-12</wgt>
  <wgt id="695">4.05165e-12</wgt>
  <wgt id="696">3.95591e-12</wgt>
  <wgt id="697">4.08112e-12</wgt>
  <wgt id="698">3.87649e-12</wgt>
  <wgt id="699">3.84064e-12</wgt>
  <wgt id="700">3.66898e-12</wgt>
  <wgt id="701">4.19609e-12</wgt>
  <wgt id="702">4.02055e-12</wgt>
  <wgt id="703">4.7703e-12</wgt>
  <wgt id="704">4.53258e-12</wgt>
  <wgt id="705">4.33888e-12</wgt>
  <wgt id="706">3.89104e-12</wgt>
  <wgt id="707">4.01916e-12</wgt>
  <wgt id="708">4.13087e-12</wgt>
  <wgt id="709">4.11113e-12</wgt>
  <wgt id="710">3.74574e-12</wgt>
  <wgt id="711">4.16109e-12</wgt>
  <wgt id="712">4.12281e-12</wgt>
  <wgt id="713">4.51492e-12</wgt>
  <wgt id="714">4.14143e-12</wgt>
  <wgt id="715">4.14349e-12</wgt>
  <wgt id="716">4.02019e-12</wgt>
  <wgt id="717">4.00988e-12</wgt>
  <wgt id="718">4.14358e-12</wgt>
  <wgt id="719">3.80635e-12</wgt>
  <wgt id="720">3.93205e-12</wgt>
  <wgt id="721">3.89984e-12</wgt>
  <wgt id="722">3.74303e-12</wgt>
  <wgt id="723">4.44085e-12</wgt>
  <wgt id="724">4.3644e-12</wgt>
  <wgt id="725">4.41751e-12</wgt>
  <wgt id="726">4.22697e-12</wgt>
  <wgt id="727">4.0804e-12</wgt>
  <wgt id="728">4.11003e-12</wgt>
  <wgt id="729">3.76967e-12</wgt>
  <wgt id="730">4.49542e-12</wgt>
  <wgt id="731">4.13567e-12</wgt>
  <wgt id="732">4.57362e-12</wgt>
  <wgt id="733">4.1915e-12</wgt>
  <wgt id="734">4.28147e-12</wgt>
  <wgt id="735">4.15345e-12</wgt>
  <wgt id="736">4.1162e-12</wgt>
  <wgt id="737">4.25588e-12</wgt>
  <wgt id="738">3.98019e-12</wgt>
  <wgt id="739">4.20676e-12</wgt>
  <wgt id="740">4.6312e-12</wgt>
  <wgt id="741">3.71261e-12</wgt>
  <wgt id="742">4.1127e-12</wgt>
  <wgt id="743">4.01648e-12</wgt>
  <wgt id="744">4.09713e-12</wgt>
  <wgt id="745">4.35991e-12</wgt>
  <wgt id="746">4.42336e-12</wgt>
  <wgt id="747">3.81983e-12</wgt>
  <wgt id="748">4.12693e-12</wgt>
  <wgt id="749">4.41099e-12</wgt>
  <wgt id="750">4.19454e-12</wgt>
  <wgt id="751">4.32725e-12</wgt>
  <wgt id="752">3.84162e-12</wgt>
  <wgt id="753">3.99107e-12</wgt>
  <wgt id="754">4.36713e-12</wgt>
  <wgt id="755">4.20298e-12</wgt>
  <wgt id="756">4.2148e-12</wgt>
  <wgt id="757">3.86448e-12</wgt>
  <wgt id="758">4.22999e-12</wgt>
  <wgt id="759">4.20986e-12</wgt>
  <wgt id="760">4.24657e-12</wgt>
  <wgt id="761">4.39884e-12</wgt>
  <wgt id="762">4.42027e-12</wgt>
  <wgt id="763">4.1713e-12</wgt>
  <wgt id="764">4.34069e-12</wgt>
  <wgt id="765">4.26083e-12</wgt>
  <wgt id="766">4.17052e-12</wgt>
  <wgt id="767">4.28898e-12</wgt>
  <wgt id="768">3.95787e-12</wgt>
  <wgt id="769">4.43086e-12</wgt>
  <wgt id="770">4.0497e-12</wgt>
  <wgt id="771">4.92705e-12</wgt>
  <wgt id="772">3.93828e-12</wgt>
  <wgt id="773">4.15422e-12</wgt>
  <wgt id="774">3.75242e-12</wgt>
  <wgt id="775">4.40944e-12</wgt>
  <wgt id="776">4.56658e-12</wgt>
  <wgt id="777">4.00379e-12</wgt>
  <wgt id="778">3.10052e-12</wgt>
  <wgt id="779">2.61055e-12</wgt>
  <wgt id="780">2.15163e-12</wgt>
  <wgt id="781">3.10871e-12</wgt>
  <wgt id="782">3.27889e-12</wgt>
  <wgt id="783">2.64794e-12</wgt>
  <wgt id="784">2.73063e-12</wgt>
  <wgt id="785">3.741e-12</wgt>
  <wgt id="786">2.40587e-12</wgt>
  <wgt id="787">3.51119e-12</wgt>
  <wgt id="788">2.00057e-12</wgt>
  <wgt id="789">2.47127e-12</wgt>
  <wgt id="790">2.3826e-12</wgt>
  <wgt id="791">2.87751e-12</wgt>
  <wgt id="792">3.99126e-12</wgt>
  <wgt id="793">3.0117e-12</wgt>
  <wgt id="794">2.40301e-12</wgt>
  <wgt id="795">3.60704e-12</wgt>
  <wgt id="796">4.06879e-12</wgt>
  <wgt id="797">3.56699e-12</wgt>
  <wgt id="798">2.87738e-12</wgt>
  <wgt id="799">3.52036e-12</wgt>
  <wgt id="800">2.50304e-12</wgt>
  <wgt id="801">2.90534e-12</wgt>
  <wgt id="802">2.42276e-12</wgt>
  <wgt id="803">3.98278e-12</wgt>
  <wgt id="804">3.57904e-12</wgt>
  <wgt id="805">3.65222e-12</wgt>
  <wgt id="806">3.49203e-12</wgt>
  <wgt id="807">2.95621e-12</wgt>
  <wgt id="808">3.02472e-12</wgt>
  <wgt id="809">2.85518e-12</wgt>
  <wgt id="810">3.54257e-12</wgt>
  <wgt id="811">3.38873e-12</wgt>
  <wgt id="812">2.37987e-12</wgt>
  <wgt id="813">2.42725e-12</wgt>
  <wgt id="814">2.66495e-12</wgt>
  <wgt id="815">2.61795e-12</wgt>
  <wgt id="816">2.29002e-12</wgt>
  <wgt id="817">3.26612e-12</wgt>
  <wgt id="818">3.0418e-12</wgt>
  <wgt id="819">2.60948e-12</wgt>
  <wgt id="820">3.11177e-12</wgt>
  <wgt id="821">3.56316e-12</wgt>
  <wgt id="822">2.60103e-12</wgt>
  <wgt id="823">3.57723e-12</wgt>
  <wgt id="824">4.1542e-12</wgt>
  <wgt id="825">2.3177e-12</wgt>
  <wgt id="826">3.25729e-12</wgt>
  <wgt id="827">1.91477e-12</wgt>
  <wgt id="828">3.97995e-12</wgt>
  <wgt id="829">3.22672e-12</wgt>
  <wgt id="830">2.19878e-12</wgt>
  <wgt id="831">3.33115e-12</wgt>
  <wgt id="832">5.06982e-12</wgt>
  <wgt id="833">2.90866e-12</wgt>
  <wgt id="834">4.72299e-12</wgt>
  <wgt id="835">2.51986e-12</wgt>
  <wgt id="836">3.10655e-12</wgt>
  <wgt id="837">3.5179e-12</wgt>
  <wgt id="838">2.97621e-12</wgt>
  <wgt id="839">3.31046e-12</wgt>
  <wgt id="840">2.91255e-12</wgt>
  <wgt id="841">3.79578e-12</wgt>
  <wgt id="842">2.80937e-12</wgt>
  <wgt id="843">3.03338e-12</wgt>
  <wgt id="844">3.23305e-12</wgt>
  <wgt id="845">4.29004e-12</wgt>
  <wgt id="846">2.84617e-12</wgt>
  <wgt id="847">3.12142e-12</wgt>
  <wgt id="848">2.70739e-12</wgt>
  <wgt id="849">3.1779e-12</wgt>
  <wgt id="850">4.02032e-12</wgt>
  <wgt id="851">3.39366e-12</wgt>
  <wgt id="852">2.69448e-12</wgt>
  <wgt id="853">3.38705e-12</wgt>
  <wgt id="854">3.76038e-12</wgt>
  <wgt id="855">3.59153e-12</wgt>
  <wgt id="856">2.2596e-12</wgt>
  <wgt id="857">3.12202e-12</wgt>
  <wgt id="858">3.09753e-12</wgt>
  <wgt id="859">2.87743e-12</wgt>
  <wgt id="860">3.31163e-12</wgt>
  <wgt id="861">2.73857e-12</wgt>
  <wgt id="862">3.1651e-12</wgt>
  <wgt id="863">3.27275e-12</wgt>
  <wgt id="864">3.30063e-12</wgt>
  <wgt id="865">4.4326e-12</wgt>
  <wgt id="866">4.84366e-12</wgt>
  <wgt id="867">3.16408e-12</wgt>
  <wgt id="868">3.07551e-12</wgt>
  <wgt id="869">2.42876e-12</wgt>
  <wgt id="870">2.55023e-12</wgt>
  <wgt id="871">2.47559e-12</wgt>
  <wgt id="872">3.67964e-12</wgt>
  <wgt id="873">2.54655e-12</wgt>
  <wgt id="874">3.25883e-12</wgt>
  <wgt id="875">2.70283e-12</wgt>
  <wgt id="876">3.69478e-12</wgt>
  <wgt id="877">3.5585e-12</wgt>
  <wgt id="878">2.68058e-12</wgt>
  <wgt id="879">4.18082e-12</wgt>
  <wgt id="880">4.22998e-12</wgt>
  <wgt id="881">4.37186e-12</wgt>
  <wgt id="882">3.92552e-12</wgt>
  <wgt id="883">4.06178e-12</wgt>
  <wgt id="884">4.28895e-12</wgt>
  <wgt id="885">4.28629e-12</wgt>
  <wgt id="886">4.13647e-12</wgt>
  <wgt id="887">4.36966e-12</wgt>
  <wgt id="888">3.94999e-12</wgt>
  <wgt id="889">4.14012e-12</wgt>
  <wgt id="890">4.38595e-12</wgt>
  <wgt id="891">4.17755e-12</wgt>
  <wgt id="892">4.52426e-12</wgt>
  <wgt id="893">4.40672e-12</wgt>
  <wgt id="894">4.44316e-12</wgt>
  <wgt id="895">4.14384e-12</wgt>
  <wgt id="896">4.86286e-12</wgt>
  <wgt id="897">4.41977e-12</wgt>
  <wgt id="898">4.05165e-12</wgt>
  <wgt id="899">3.95591e-12</wgt>
  <wgt id="900">4.08112e-12</wgt>
  <wgt id="901">3.87649e-12</wgt>
  <wgt id="902">3.84064e-12</wgt>
  <wgt id="903">3.66898e-12</wgt>
  <wgt id="904">4.19609e-12</wgt>
  <wgt id="905">4.02055e-12</wgt>
  <wgt id="906">4.7703e-12</wgt>
  <wgt id="907">4.53258e-12</wgt>
  <wgt id="908">4.33888e-12</wgt>
  <wgt id="909">3.89104e-12</wgt>
  <wgt id="910">4.01916e-12</wgt>
  <wgt id="911">4.13087e-12</wgt>
  <wgt id="912">4.11113e-12</wgt>
  <wgt id="913">3.74574e-12</wgt>
  <wgt id="914">4.16109e-12</wgt>
  <wgt id="915">4.12281e-12</wgt>
  <wgt id="916">4.51492e-12</wgt>
  <wgt id="917">4.14143e-12</wgt>
  <wgt id="918">4.14349e-12</wgt>
  <wgt id="919">4.02019e-12</wgt>
  <wgt id="920">4.00988e-12</wgt>
  <wgt id="921">4.14358e-12</wgt>
  <wgt id="922">3.80635e-12</wgt>
  <wgt id="923">3.93205e-12</wgt>
  <wgt id="924">3.89984e-12</wgt>
  <wgt id="925">3.74303e-12</wgt>
  <wgt id="926">4.44085e-12</wgt>
  <wgt id="927">4.3644e-12</wgt>
  <wgt id="928">4.41751e-12</wgt>
  <wgt id="929">4.22697e-12</wgt>
  <wgt id="930">4.0804e-12</wgt>
  <wgt id="931">4.11003e-12</wgt>
  <wgt id="932">3.76967e-12</wgt>
  <wgt id="933">4.49542e-12</wgt>
  <wgt id="934">4.13567e-12</wgt>
  <wgt id="935">4.57362e-12</wgt>
  <wgt id="936">4.1915e-12</wgt>
  <wgt id="937">4.28147e-12</wgt>
  <wgt id="938">4.15345e-12</wgt>
  <wgt id="939">4.1162e-12</wgt>
  <wgt id="940">4.25588e-12</wgt>
  <wgt id="941">3.98019e-12</wgt>
  <wgt id="942">4.20676e-12</wgt>
  <wgt id="943">4.6312e-12</wgt>
  <wgt id="944">3.71261e-12</wgt>
  <wgt id="945">4.1127e-12</wgt>
  <wgt id="946">4.01648e-12</wgt>
  <wgt id="947">4.09713e-12</wgt>
  <wgt id="948">4.35991e-12</wgt>
  <wgt id="949">4.42336e-12</wgt>
  <wgt id="950">3.81983e-12</wgt>
  <wgt id="951">4.12693e-12</wgt>
  <wgt id="952">4.41099e-12</wgt>
  <wgt id="953">4.19454e-12</wgt>
  <wgt id="954">4.32725e-12</wgt>
  <wgt id="955">3.84162e-12</wgt>
  <wgt id="956">3.99107e-12</wgt>
  <wgt id="957">4.36713e-12</wgt>
  <wgt id="958">4.20298e-12</wgt>
  <wgt id="959">4.2148e-12</wgt>
  <wgt id="960">3.86448e-12</wgt>
  <wgt id="961">4.22999e-12</wgt>
  <wgt id="962">4.20986e-12</wgt>
  <wgt id="963">4.24657e-12</wgt>
  <wgt id="964">4.39884e-12</wgt>
  <wgt id="965">4.42027e-12</wgt>
  <wgt id="966">4.1713e-12</wgt>
  <wgt id="967">4.34069e-12</wgt>
  <wgt id="968">4.26083e-12</wgt>
  <wgt id="969">4.17052e-12</wgt>
  <wgt id="970">4.28898e-12</wgt>
  <wgt id="971">3.95787e-12</wgt>
  <wgt id="972">4.43086e-12</wgt>
  <wgt id="973">4.0497e-12</wgt>
  <wgt id="974">4.92705e-12</wgt>
  <wgt id="975">3.93828e-12</wgt>
  <wgt id="976">4.15422e-12</wgt>
  <wgt id="977">3.75242e-12</wgt>
  <wgt id="978">4.40944e-12</wgt>
  <wgt id="979">4.56658e-12</wgt>
  <wgt id="980">4.18301e-12</wgt>
  <wgt id="981">4.20236e-12</wgt>
  <wgt id="982">4.06311e-12</wgt>
</rwgt>
</event>
<event>
 5   1  0.3028200E-11  0.2007401E+04  0.7818608E-02  0.7825543E-01
       21   -1    0    0  502  501  0.00000000000E+00  0.00000000000E+00  0.71428107778E+03  0.71428107778E+03  0.00000000000E+00 0. -1.
       21   -1    0    0  501  502 -0.00000000000E+00 -0.00000000000E+00 -0.14103897114E+04  0.14103897114E+04  0.00000000000E+00 0.  1.
       39    2    1    2    0    0  0.00000000000E+00  0.00000000000E+00 -0.69610863363E+03  0.21246707892E+04  0.20074009895E+04 0.  0.
       25    1    3    3    0    0  0.65129118263E+03 -0.40834140355E+03  0.32207334488E+03  0.84278060366E+03  0.12500000000E+03 0.  0.
       25    1    3    3    0    0 -0.65129118263E+03  0.40834140355E+03 -0.10181819785E+04  0.12818901855E+04  0.12500000000E+03 0.  0.
<mgrwt>
<rscale>  0 0.20074010E+04</rscale>
<asrwt>0</asrwt>
<pdfrwt beam="1">  1       21 0.10988940E+00 0.20074010E+04</pdfrwt>
<pdfrwt beam="2">  1       21 0.21698303E+00 0.20074010E+04</pdfrwt>
<totfact> 0.29896431E+01</totfact>
</mgrwt>
<rwgt>
  <wgt id="1">3.0282e-12</wgt>
  <wgt id="2">2.65251e-12</wgt>
  <wgt id="3">3.49135e-12</wgt>
  <wgt id="4">3.0282e-12</wgt>
  <wgt id="5">2.65251e-12</wgt>
  <wgt id="6">3.49135e-12</wgt>
  <wgt id="7">3.0282e-12</wgt>
  <wgt id="8">2.65251e-12</wgt>
  <wgt id="9">3.49135e-12</wgt>
  <wgt id="10">3.10711e-12</wgt>
  <wgt id="11">3.10492e-12</wgt>
  <wgt id="12">3.10247e-12</wgt>
  <wgt id="13">3.09748e-12</wgt>
  <wgt id="14">3.11817e-12</wgt>
  <wgt id="15">3.11211e-12</wgt>
  <wgt id="16">3.10205e-12</wgt>
  <wgt id="17">3.11498e-12</wgt>
  <wgt id="18">3.10331e-12</wgt>
  <wgt id="19">3.1129e-12</wgt>
  <wgt id="20">3.09947e-12</wgt>
  <wgt id="21">3.08784e-12</wgt>
  <wgt id="22">3.09417e-12</wgt>
  <wgt id="23">3.07832e-12</wgt>
  <wgt id="24">3.09139e-12</wgt>
  <wgt id="25">3.09905e-12</wgt>
  <wgt id="26">3.11746e-12</wgt>
  <wgt id="27">3.10582e-12</wgt>
  <wgt id="28">3.09155e-12</wgt>
  <wgt id="29">3.1095e-12</wgt>
  <wgt id="30">3.09442e-12</wgt>
  <wgt id="31">3.11742e-12</wgt>
  <wgt id="32">3.09745e-12</wgt>
  <wgt id="33">3.11262e-12</wgt>
  <wgt id="34">3.09591e-12</wgt>
  <wgt id="35">3.10014e-12</wgt>
  <wgt id="36">3.11476e-12</wgt>
  <wgt id="37">3.09914e-12</wgt>
  <wgt id="38">3.09945e-12</wgt>
  <wgt id="39">3.14201e-12</wgt>
  <wgt id="40">3.11198e-12</wgt>
  <wgt id="41">3.10621e-12</wgt>
  <wgt id="42">3.11401e-12</wgt>
  <wgt id="43">3.10809e-12</wgt>
  <wgt id="44">3.10197e-12</wgt>
  <wgt id="45">3.11109e-12</wgt>
  <wgt id="46">3.108e-12</wgt>
  <wgt id="47">3.10208e-12</wgt>
  <wgt id="48">3.10644e-12</wgt>
  <wgt id="49">3.10795e-12</wgt>
  <wgt id="50">3.11551e-12</wgt>
  <wgt id="51">3.11288e-12</wgt>
  <wgt id="52">3.10409e-12</wgt>
  <wgt id="53">3.0923e-12</wgt>
  <wgt id="54">3.10426e-12</wgt>
  <wgt id="55">3.10622e-12</wgt>
  <wgt id="56">3.11975e-12</wgt>
  <wgt id="57">3.11657e-12</wgt>
  <wgt id="58">3.09156e-12</wgt>
  <wgt id="59">3.09904e-12</wgt>
  <wgt id="60">3.111e-12</wgt>
  <wgt id="61">3.09793e-12</wgt>
  <wgt id="62">3.10126e-12</wgt>
  <wgt id="63">3.10625e-12</wgt>
  <wgt id="64">3.10983e-12</wgt>
  <wgt id="65">3.11189e-12</wgt>
  <wgt id="66">3.10365e-12</wgt>
  <wgt id="67">3.09712e-12</wgt>
  <wgt id="68">3.10522e-12</wgt>
  <wgt id="69">3.10786e-12</wgt>
  <wgt id="70">3.10732e-12</wgt>
  <wgt id="71">3.10716e-12</wgt>
  <wgt id="72">3.10273e-12</wgt>
  <wgt id="73">3.10814e-12</wgt>
  <wgt id="74">3.10773e-12</wgt>
  <wgt id="75">3.10326e-12</wgt>
  <wgt id="76">3.11258e-12</wgt>
  <wgt id="77">3.10679e-12</wgt>
  <wgt id="78">3.10794e-12</wgt>
  <wgt id="79">3.11295e-12</wgt>
  <wgt id="80">3.09746e-12</wgt>
  <wgt id="81">3.10385e-12</wgt>
  <wgt id="82">3.1071e-12</wgt>
  <wgt id="83">3.09738e-12</wgt>
  <wgt id="84">3.10311e-12</wgt>
  <wgt id="85">3.10107e-12</wgt>
  <wgt id="86">3.11493e-12</wgt>
  <wgt id="87">3.09303e-12</wgt>
  <wgt id="88">3.11e-12</wgt>
  <wgt id="89">3.10972e-12</wgt>
  <wgt id="90">3.11187e-12</wgt>
  <wgt id="91">3.10986e-12</wgt>
  <wgt id="92">3.11242e-12</wgt>
  <wgt id="93">3.1074e-12</wgt>
  <wgt id="94">3.10463e-12</wgt>
  <wgt id="95">3.10956e-12</wgt>
  <wgt id="96">3.10873e-12</wgt>
  <wgt id="97">3.10284e-12</wgt>
  <wgt id="98">3.10814e-12</wgt>
  <wgt id="99">3.10445e-12</wgt>
  <wgt id="100">3.10886e-12</wgt>
  <wgt id="101">3.10679e-12</wgt>
  <wgt id="102">3.10453e-12</wgt>
  <wgt id="103">3.1106e-12</wgt>
  <wgt id="104">3.10606e-12</wgt>
  <wgt id="105">3.11047e-12</wgt>
  <wgt id="106">3.1033e-12</wgt>
  <wgt id="107">3.11421e-12</wgt>
  <wgt id="108">3.10474e-12</wgt>
  <wgt id="109">3.10675e-12</wgt>
  <wgt id="110">3.10744e-12</wgt>
  <wgt id="111">3.13734e-12</wgt>
  <wgt id="112">3.10793e-12</wgt>
  <wgt id="113">4.06699e-12</wgt>
  <wgt id="114">4.19318e-12</wgt>
  <wgt id="115">4.13006e-12</wgt>
  <wgt id="116">5.47363e-12</wgt>
  <wgt id="117">3.37936e-12</wgt>
  <wgt id="118">3.38942e-12</wgt>
  <wgt id="119">3.37363e-12</wgt>
  <wgt id="120">3.37985e-12</wgt>
  <wgt id="121">3.3792e-12</wgt>
  <wgt id="122">3.37326e-12</wgt>
  <wgt id="123">3.38777e-12</wgt>
  <wgt id="124">3.37439e-12</wgt>
  <wgt id="125">3.38253e-12</wgt>
  <wgt id="126">3.38421e-12</wgt>
  <wgt id="127">3.37611e-12</wgt>
  <wgt id="128">3.38989e-12</wgt>
  <wgt id="129">3.36904e-12</wgt>
  <wgt id="130">3.39789e-12</wgt>
  <wgt id="131">3.36046e-12</wgt>
  <wgt id="132">3.29635e-12</wgt>
  <wgt id="133">3.47681e-12</wgt>
  <wgt id="134">3.34617e-12</wgt>
  <wgt id="135">3.40533e-12</wgt>
  <wgt id="136">3.41886e-12</wgt>
  <wgt id="137">3.33151e-12</wgt>
  <wgt id="138">3.49929e-12</wgt>
  <wgt id="139">3.26284e-12</wgt>
  <wgt id="140">3.35672e-12</wgt>
  <wgt id="141">3.39701e-12</wgt>
  <wgt id="142">3.37975e-12</wgt>
  <wgt id="143">3.38384e-12</wgt>
  <wgt id="144">3.30109e-12</wgt>
  <wgt id="145">3.45065e-12</wgt>
  <wgt id="146">3.40361e-12</wgt>
  <wgt id="147">3.36042e-12</wgt>
  <wgt id="148">3.38877e-12</wgt>
  <wgt id="149">3.37865e-12</wgt>
  <wgt id="150">3.40688e-12</wgt>
  <wgt id="151">3.36655e-12</wgt>
  <wgt id="152">3.38049e-12</wgt>
  <wgt id="153">3.37901e-12</wgt>
  <wgt id="154">3.40822e-12</wgt>
  <wgt id="155">3.34506e-12</wgt>
  <wgt id="156">3.43168e-12</wgt>
  <wgt id="157">3.31981e-12</wgt>
  <wgt id="158">4.06912e-12</wgt>
  <wgt id="159">4.08601e-12</wgt>
  <wgt id="160">4.05543e-12</wgt>
  <wgt id="161">4.06034e-12</wgt>
  <wgt id="162">4.07888e-12</wgt>
  <wgt id="163">4.06527e-12</wgt>
  <wgt id="164">4.07472e-12</wgt>
  <wgt id="165">4.07082e-12</wgt>
  <wgt id="166">4.06785e-12</wgt>
  <wgt id="167">4.06601e-12</wgt>
  <wgt id="168">4.07336e-12</wgt>
  <wgt id="169">4.05141e-12</wgt>
  <wgt id="170">4.0801e-12</wgt>
  <wgt id="171">4.06543e-12</wgt>
  <wgt id="172">4.07418e-12</wgt>
  <wgt id="173">4.0692e-12</wgt>
  <wgt id="174">4.06903e-12</wgt>
  <wgt id="175">3.96418e-12</wgt>
  <wgt id="176">4.20516e-12</wgt>
  <wgt id="177">4.0878e-12</wgt>
  <wgt id="178">4.05169e-12</wgt>
  <wgt id="179">4.22344e-12</wgt>
  <wgt id="180">3.82388e-12</wgt>
  <wgt id="181">3.96125e-12</wgt>
  <wgt id="182">4.14009e-12</wgt>
  <wgt id="183">4.00298e-12</wgt>
  <wgt id="184">4.10176e-12</wgt>
  <wgt id="185">4.03764e-12</wgt>
  <wgt id="186">4.10551e-12</wgt>
  <wgt id="187">4.03366e-12</wgt>
  <wgt id="188">4.13211e-12</wgt>
  <wgt id="189">4.04545e-12</wgt>
  <wgt id="190">4.07872e-12</wgt>
  <wgt id="191">4.07926e-12</wgt>
  <wgt id="192">4.06302e-12</wgt>
  <wgt id="193">4.12059e-12</wgt>
  <wgt id="194">4.04346e-12</wgt>
  <wgt id="195">3.99433e-12</wgt>
  <wgt id="196">4.21406e-12</wgt>
  <wgt id="197">4.08741e-12</wgt>
  <wgt id="198">4.06466e-12</wgt>
  <wgt id="199">4.06912e-12</wgt>
  <wgt id="200">4.10155e-12</wgt>
  <wgt id="201">4.08959e-12</wgt>
  <wgt id="202">4.07803e-12</wgt>
  <wgt id="203">4.06056e-12</wgt>
  <wgt id="204">4.05249e-12</wgt>
  <wgt id="205">4.04549e-12</wgt>
  <wgt id="206">3.98161e-12</wgt>
  <wgt id="207">4.00433e-12</wgt>
  <wgt id="208">3.95913e-12</wgt>
  <wgt id="209">3.99104e-12</wgt>
  <wgt id="210">3.97487e-12</wgt>
  <wgt id="211">3.98077e-12</wgt>
  <wgt id="212">3.98225e-12</wgt>
  <wgt id="213">3.98126e-12</wgt>
  <wgt id="214">3.9821e-12</wgt>
  <wgt id="215">3.98384e-12</wgt>
  <wgt id="216">3.98014e-12</wgt>
  <wgt id="217">3.99149e-12</wgt>
  <wgt id="218">3.97396e-12</wgt>
  <wgt id="219">3.97535e-12</wgt>
  <wgt id="220">3.98544e-12</wgt>
  <wgt id="221">3.98021e-12</wgt>
  <wgt id="222">3.98472e-12</wgt>
  <wgt id="223">3.78757e-12</wgt>
  <wgt id="224">4.15756e-12</wgt>
  <wgt id="225">3.9391e-12</wgt>
  <wgt id="226">4.03494e-12</wgt>
  <wgt id="227">3.94722e-12</wgt>
  <wgt id="228">3.99679e-12</wgt>
  <wgt id="229">3.93072e-12</wgt>
  <wgt id="230">4.00695e-12</wgt>
  <wgt id="231">4.08708e-12</wgt>
  <wgt id="232">3.89444e-12</wgt>
  <wgt id="233">3.9627e-12</wgt>
  <wgt id="234">4.01055e-12</wgt>
  <wgt id="235">3.91723e-12</wgt>
  <wgt id="236">4.0457e-12</wgt>
  <wgt id="237">3.93569e-12</wgt>
  <wgt id="238">3.99746e-12</wgt>
  <wgt id="239">3.9612e-12</wgt>
  <wgt id="240">4.019e-12</wgt>
  <wgt id="241">3.94505e-12</wgt>
  <wgt id="242">4.02517e-12</wgt>
  <wgt id="243">4.01415e-12</wgt>
  <wgt id="244">4.00723e-12</wgt>
  <wgt id="245">3.97819e-12</wgt>
  <wgt id="246">4.0117e-12</wgt>
  <wgt id="247">3.98161e-12</wgt>
  <wgt id="248">4.01429e-12</wgt>
  <wgt id="249">4.00186e-12</wgt>
  <wgt id="250">3.99018e-12</wgt>
  <wgt id="251">3.97274e-12</wgt>
  <wgt id="252">3.96458e-12</wgt>
  <wgt id="253">3.95855e-12</wgt>
  <wgt id="254">3.88971e-12</wgt>
  <wgt id="255">3.89306e-12</wgt>
  <wgt id="256">3.88576e-12</wgt>
  <wgt id="257">3.89272e-12</wgt>
  <wgt id="258">3.88724e-12</wgt>
  <wgt id="259">3.91515e-12</wgt>
  <wgt id="260">3.86484e-12</wgt>
  <wgt id="261">3.89268e-12</wgt>
  <wgt id="262">3.88592e-12</wgt>
  <wgt id="263">3.8883e-12</wgt>
  <wgt id="264">3.89106e-12</wgt>
  <wgt id="265">3.88598e-12</wgt>
  <wgt id="266">3.89695e-12</wgt>
  <wgt id="267">3.89062e-12</wgt>
  <wgt id="268">3.88807e-12</wgt>
  <wgt id="269">3.8998e-12</wgt>
  <wgt id="270">3.88258e-12</wgt>
  <wgt id="271">3.88274e-12</wgt>
  <wgt id="272">3.89727e-12</wgt>
  <wgt id="273">3.87889e-12</wgt>
  <wgt id="274">3.89771e-12</wgt>
  <wgt id="275">3.87515e-12</wgt>
  <wgt id="276">3.90452e-12</wgt>
  <wgt id="277">3.86891e-12</wgt>
  <wgt id="278">3.90868e-12</wgt>
  <wgt id="279">3.82342e-12</wgt>
  <wgt id="280">3.97234e-12</wgt>
  <wgt id="281">3.87488e-12</wgt>
  <wgt id="282">3.88983e-12</wgt>
  <wgt id="283">3.78952e-12</wgt>
  <wgt id="284">4.01236e-12</wgt>
  <wgt id="285">3.72132e-12</wgt>
  <wgt id="286">4.02773e-12</wgt>
  <wgt id="287">3.90081e-12</wgt>
  <wgt id="288">3.87513e-12</wgt>
  <wgt id="289">3.91421e-12</wgt>
  <wgt id="290">3.83162e-12</wgt>
  <wgt id="291">3.88063e-12</wgt>
  <wgt id="292">3.89168e-12</wgt>
  <wgt id="293">3.86268e-12</wgt>
  <wgt id="294">3.91635e-12</wgt>
  <wgt id="295">3.8223e-12</wgt>
  <wgt id="296">3.97138e-12</wgt>
  <wgt id="297">3.89197e-12</wgt>
  <wgt id="298">3.90036e-12</wgt>
  <wgt id="299">3.87864e-12</wgt>
  <wgt id="300">3.91857e-12</wgt>
  <wgt id="301">3.85294e-12</wgt>
  <wgt id="302">3.994e-12</wgt>
  <wgt id="303">3.86727e-12</wgt>
  <wgt id="304">3.90261e-12</wgt>
  <wgt id="305">3.90802e-12</wgt>
  <wgt id="306">3.91183e-12</wgt>
  <wgt id="307">3.90372e-12</wgt>
  <wgt id="308">3.91155e-12</wgt>
  <wgt id="309">3.90558e-12</wgt>
  <wgt id="310">3.9347e-12</wgt>
  <wgt id="311">3.88319e-12</wgt>
  <wgt id="312">3.90989e-12</wgt>
  <wgt id="313">3.90622e-12</wgt>
  <wgt id="314">3.90659e-12</wgt>
  <wgt id="315">3.90911e-12</wgt>
  <wgt id="316">3.90445e-12</wgt>
  <wgt id="317">3.91544e-12</wgt>
  <wgt id="318">3.91022e-12</wgt>
  <wgt id="319">3.90392e-12</wgt>
  <wgt id="320">3.9186e-12</wgt>
  <wgt id="321">3.90191e-12</wgt>
  <wgt id="322">3.89901e-12</wgt>
  <wgt id="323">3.91825e-12</wgt>
  <wgt id="324">3.89931e-12</wgt>
  <wgt id="325">3.91545e-12</wgt>
  <wgt id="326">3.89621e-12</wgt>
  <wgt id="327">3.92303e-12</wgt>
  <wgt id="328">3.88843e-12</wgt>
  <wgt id="329">3.91923e-12</wgt>
  <wgt id="330">4.01206e-12</wgt>
  <wgt id="331">3.80822e-12</wgt>
  <wgt id="332">3.89583e-12</wgt>
  <wgt id="333">3.90777e-12</wgt>
  <wgt id="334">3.82915e-12</wgt>
  <wgt id="335">4.00549e-12</wgt>
  <wgt id="336">3.78534e-12</wgt>
  <wgt id="337">4.05601e-12</wgt>
  <wgt id="338">3.94758e-12</wgt>
  <wgt id="339">3.87104e-12</wgt>
  <wgt id="340">3.93128e-12</wgt>
  <wgt id="341">3.84703e-12</wgt>
  <wgt id="342">3.90205e-12</wgt>
  <wgt id="343">3.90447e-12</wgt>
  <wgt id="344">3.88332e-12</wgt>
  <wgt id="345">3.93653e-12</wgt>
  <wgt id="346">3.83788e-12</wgt>
  <wgt id="347">3.98833e-12</wgt>
  <wgt id="348">3.91246e-12</wgt>
  <wgt id="349">3.91607e-12</wgt>
  <wgt id="350">3.89397e-12</wgt>
  <wgt id="351">3.94338e-12</wgt>
  <wgt id="352">3.86775e-12</wgt>
  <wgt id="353">4.01813e-12</wgt>
  <wgt id="354">3.87405e-12</wgt>
  <wgt id="355">3.92932e-12</wgt>
  <wgt id="356">3.88971e-12</wgt>
  <wgt id="357">3.92559e-12</wgt>
  <wgt id="358">3.90802e-12</wgt>
  <wgt id="359">3.90489e-12</wgt>
  <wgt id="360">3.90795e-12</wgt>
  <wgt id="361">3.89983e-12</wgt>
  <wgt id="362">3.96012e-12</wgt>
  <wgt id="363">3.95177e-12</wgt>
  <wgt id="364">3.94013e-12</wgt>
  <wgt id="365">3.92838e-12</wgt>
  <wgt id="366">3.91481e-12</wgt>
  <wgt id="367">3.88705e-12</wgt>
  <wgt id="368">3.87152e-12</wgt>
  <wgt id="369">3.8548e-12</wgt>
  <wgt id="370">3.89983e-12</wgt>
  <wgt id="371">3.91669e-12</wgt>
  <wgt id="372">3.90744e-12</wgt>
  <wgt id="373">3.89365e-12</wgt>
  <wgt id="374">3.89193e-12</wgt>
  <wgt id="375">4.12966e-12</wgt>
  <wgt id="376">4.13018e-12</wgt>
  <wgt id="377">4.12929e-12</wgt>
  <wgt id="378">4.14443e-12</wgt>
  <wgt id="379">4.11512e-12</wgt>
  <wgt id="380">4.14112e-12</wgt>
  <wgt id="381">4.12521e-12</wgt>
  <wgt id="382">4.14815e-12</wgt>
  <wgt id="383">4.11151e-12</wgt>
  <wgt id="384">4.1323e-12</wgt>
  <wgt id="385">4.12727e-12</wgt>
  <wgt id="386">4.14349e-12</wgt>
  <wgt id="387">4.12377e-12</wgt>
  <wgt id="388">4.12619e-12</wgt>
  <wgt id="389">4.1339e-12</wgt>
  <wgt id="390">4.13945e-12</wgt>
  <wgt id="391">4.11941e-12</wgt>
  <wgt id="392">4.10369e-12</wgt>
  <wgt id="393">4.14451e-12</wgt>
  <wgt id="394">4.13506e-12</wgt>
  <wgt id="395">4.12238e-12</wgt>
  <wgt id="396">4.1307e-12</wgt>
  <wgt id="397">4.12898e-12</wgt>
  <wgt id="398">4.11708e-12</wgt>
  <wgt id="399">4.14192e-12</wgt>
  <wgt id="400">4.12443e-12</wgt>
  <wgt id="401">4.14142e-12</wgt>
  <wgt id="402">4.10057e-12</wgt>
  <wgt id="403">4.14166e-12</wgt>
  <wgt id="404">4.21431e-12</wgt>
  <wgt id="405">3.92483e-12</wgt>
  <wgt id="406">4.06811e-12</wgt>
  <wgt id="407">4.26266e-12</wgt>
  <wgt id="408">4.16115e-12</wgt>
  <wgt id="409">4.06931e-12</wgt>
  <wgt id="410">4.0284e-12</wgt>
  <wgt id="411">4.17619e-12</wgt>
  <wgt id="412">4.12306e-12</wgt>
  <wgt id="413">4.13859e-12</wgt>
  <wgt id="414">4.08913e-12</wgt>
  <wgt id="415">4.16128e-12</wgt>
  <wgt id="416">4.22292e-12</wgt>
  <wgt id="417">4.00045e-12</wgt>
  <wgt id="418">4.13483e-12</wgt>
  <wgt id="419">4.10182e-12</wgt>
  <wgt id="420">4.17168e-12</wgt>
  <wgt id="421">4.1085e-12</wgt>
  <wgt id="422">4.12948e-12</wgt>
  <wgt id="423">4.13083e-12</wgt>
  <wgt id="424">4.19425e-12</wgt>
  <wgt id="425">4.09015e-12</wgt>
  <wgt id="426">4.12966e-12</wgt>
  <wgt id="427">4.10081e-12</wgt>
  <wgt id="428">4.21595e-12</wgt>
  <wgt id="429">4.15965e-12</wgt>
  <wgt id="430">4.26396e-12</wgt>
  <wgt id="431">4.24335e-12</wgt>
  <wgt id="432">4.22367e-12</wgt>
  <wgt id="433">4.2045e-12</wgt>
  <wgt id="434">4.18144e-12</wgt>
  <wgt id="435">4.13242e-12</wgt>
  <wgt id="436">4.10693e-12</wgt>
  <wgt id="437">4.08296e-12</wgt>
  <wgt id="438">4.15965e-12</wgt>
  <wgt id="439">4.17308e-12</wgt>
  <wgt id="440">4.16534e-12</wgt>
  <wgt id="441">4.15536e-12</wgt>
  <wgt id="442">4.15183e-12</wgt>
  <wgt id="443">4.05258e-12</wgt>
  <wgt id="444">4.07248e-12</wgt>
  <wgt id="445">4.04964e-12</wgt>
  <wgt id="446">4.02722e-12</wgt>
  <wgt id="447">4.0448e-12</wgt>
  <wgt id="448">3.95956e-12</wgt>
  <wgt id="449">4.10896e-12</wgt>
  <wgt id="450">4.04879e-12</wgt>
  <wgt id="451">4.0467e-12</wgt>
  <wgt id="452">4.12905e-12</wgt>
  <wgt id="453">4.08105e-12</wgt>
  <wgt id="454">3.90043e-12</wgt>
  <wgt id="455">4.0617e-12</wgt>
  <wgt id="456">4.01614e-12</wgt>
  <wgt id="457">4.06391e-12</wgt>
  <wgt id="458">4.0992e-12</wgt>
  <wgt id="459">4.0792e-12</wgt>
  <wgt id="460">4.08324e-12</wgt>
  <wgt id="461">3.98952e-12</wgt>
  <wgt id="462">4.03011e-12</wgt>
  <wgt id="463">4.01193e-12</wgt>
  <wgt id="464">4.03645e-12</wgt>
  <wgt id="465">4.08622e-12</wgt>
  <wgt id="466">4.01099e-12</wgt>
  <wgt id="467">4.02202e-12</wgt>
  <wgt id="468">4.04431e-12</wgt>
  <wgt id="469">4.04684e-12</wgt>
  <wgt id="470">4.01779e-12</wgt>
  <wgt id="471">4.02346e-12</wgt>
  <wgt id="472">4.06711e-12</wgt>
  <wgt id="473">3.95555e-12</wgt>
  <wgt id="474">3.0282e-12</wgt>
  <wgt id="475">3.15941e-12</wgt>
  <wgt id="476">2.97483e-12</wgt>
  <wgt id="477">2.94367e-12</wgt>
  <wgt id="478">3.05332e-12</wgt>
  <wgt id="479">2.99245e-12</wgt>
  <wgt id="480">3.13001e-12</wgt>
  <wgt id="481">2.97952e-12</wgt>
  <wgt id="482">2.94785e-12</wgt>
  <wgt id="483">2.95519e-12</wgt>
  <wgt id="484">3.17451e-12</wgt>
  <wgt id="485">3.00374e-12</wgt>
  <wgt id="486">3.11601e-12</wgt>
  <wgt id="487">3.04073e-12</wgt>
  <wgt id="488">3.07856e-12</wgt>
  <wgt id="489">2.89931e-12</wgt>
  <wgt id="490">2.94218e-12</wgt>
  <wgt id="491">3.01534e-12</wgt>
  <wgt id="492">2.96305e-12</wgt>
  <wgt id="493">2.92376e-12</wgt>
  <wgt id="494">2.94122e-12</wgt>
  <wgt id="495">3.04072e-12</wgt>
  <wgt id="496">2.93174e-12</wgt>
  <wgt id="497">2.9233e-12</wgt>
  <wgt id="498">3.08616e-12</wgt>
  <wgt id="499">2.97585e-12</wgt>
  <wgt id="500">2.96759e-12</wgt>
  <wgt id="501">3.13395e-12</wgt>
  <wgt id="502">2.97844e-12</wgt>
  <wgt id="503">3.03174e-12</wgt>
  <wgt id="504">3.05214e-12</wgt>
  <wgt id="505">2.9692e-12</wgt>
  <wgt id="506">3.04509e-12</wgt>
  <wgt id="507">3.01565e-12</wgt>
  <wgt id="508">3.10849e-12</wgt>
  <wgt id="509">2.89992e-12</wgt>
  <wgt id="510">3.07733e-12</wgt>
  <wgt id="511">2.94314e-12</wgt>
  <wgt id="512">3.08225e-12</wgt>
  <wgt id="513">3.10075e-12</wgt>
  <wgt id="514">3.03434e-12</wgt>
  <wgt id="515">3.00808e-12</wgt>
  <wgt id="516">3.14421e-12</wgt>
  <wgt id="517">3.09924e-12</wgt>
  <wgt id="518">3.11411e-12</wgt>
  <wgt id="519">2.96559e-12</wgt>
  <wgt id="520">3.06499e-12</wgt>
  <wgt id="521">3.12171e-12</wgt>
  <wgt id="522">3.14936e-12</wgt>
  <wgt id="523">3.03222e-12</wgt>
  <wgt id="524">3.03191e-12</wgt>
  <wgt id="525">3.09796e-12</wgt>
  <wgt id="526">3.03738e-12</wgt>
  <wgt id="527">3.06827e-12</wgt>
  <wgt id="528">3.0297e-12</wgt>
  <wgt id="529">3.0062e-12</wgt>
  <wgt id="530">3.07131e-12</wgt>
  <wgt id="531">2.98312e-12</wgt>
  <wgt id="532">3.1888e-12</wgt>
  <wgt id="533">2.88309e-12</wgt>
  <wgt id="534">3.02129e-12</wgt>
  <wgt id="535">3.05011e-12</wgt>
  <wgt id="536">3.01111e-12</wgt>
  <wgt id="537">3.03397e-12</wgt>
  <wgt id="538">3.07809e-12</wgt>
  <wgt id="539">2.972e-12</wgt>
  <wgt id="540">3.00989e-12</wgt>
  <wgt id="541">2.95985e-12</wgt>
  <wgt id="542">2.98019e-12</wgt>
  <wgt id="543">3.02966e-12</wgt>
  <wgt id="544">3.16369e-12</wgt>
  <wgt id="545">2.97717e-12</wgt>
  <wgt id="546">2.9593e-12</wgt>
  <wgt id="547">2.95981e-12</wgt>
  <wgt id="548">2.90848e-12</wgt>
  <wgt id="549">2.98964e-12</wgt>
  <wgt id="550">2.99783e-12</wgt>
  <wgt id="551">3.0737e-12</wgt>
  <wgt id="552">2.95933e-12</wgt>
  <wgt id="553">3.01107e-12</wgt>
  <wgt id="554">3.23966e-12</wgt>
  <wgt id="555">3.11553e-12</wgt>
  <wgt id="556">2.94218e-12</wgt>
  <wgt id="557">3.09137e-12</wgt>
  <wgt id="558">2.95184e-12</wgt>
  <wgt id="559">2.96889e-12</wgt>
  <wgt id="560">3.28305e-12</wgt>
  <wgt id="561">2.97641e-12</wgt>
  <wgt id="562">3.09686e-12</wgt>
  <wgt id="563">2.99851e-12</wgt>
  <wgt id="564">3.07801e-12</wgt>
  <wgt id="565">2.95936e-12</wgt>
  <wgt id="566">3.0639e-12</wgt>
  <wgt id="567">2.99704e-12</wgt>
  <wgt id="568">3.0328e-12</wgt>
  <wgt id="569">3.07254e-12</wgt>
  <wgt id="570">2.94039e-12</wgt>
  <wgt id="571">3.33177e-12</wgt>
  <wgt id="572">2.98495e-12</wgt>
  <wgt id="573">2.91877e-12</wgt>
  <wgt id="574">2.94007e-12</wgt>
  <wgt id="575">3.30447e-12</wgt>
  <wgt id="576">3.2995e-12</wgt>
  <wgt id="577">3.42571e-12</wgt>
  <wgt id="578">3.38824e-12</wgt>
  <wgt id="579">3.3618e-12</wgt>
  <wgt id="580">3.38681e-12</wgt>
  <wgt id="581">3.52578e-12</wgt>
  <wgt id="582">3.30097e-12</wgt>
  <wgt id="583">3.32738e-12</wgt>
  <wgt id="584">3.29542e-12</wgt>
  <wgt id="585">3.27695e-12</wgt>
  <wgt id="586">3.21519e-12</wgt>
  <wgt id="587">3.348e-12</wgt>
  <wgt id="588">3.29822e-12</wgt>
  <wgt id="589">3.36837e-12</wgt>
  <wgt id="590">3.32106e-12</wgt>
  <wgt id="591">3.43467e-12</wgt>
  <wgt id="592">3.18582e-12</wgt>
  <wgt id="593">3.28021e-12</wgt>
  <wgt id="594">3.42814e-12</wgt>
  <wgt id="595">3.30388e-12</wgt>
  <wgt id="596">3.38798e-12</wgt>
  <wgt id="597">3.21913e-12</wgt>
  <wgt id="598">3.23071e-12</wgt>
  <wgt id="599">3.42951e-12</wgt>
  <wgt id="600">3.30034e-12</wgt>
  <wgt id="601">3.21393e-12</wgt>
  <wgt id="602">3.22387e-12</wgt>
  <wgt id="603">3.24602e-12</wgt>
  <wgt id="604">3.35095e-12</wgt>
  <wgt id="605">3.4309e-12</wgt>
  <wgt id="606">3.27172e-12</wgt>
  <wgt id="607">3.28668e-12</wgt>
  <wgt id="608">3.32336e-12</wgt>
  <wgt id="609">3.15049e-12</wgt>
  <wgt id="610">3.18631e-12</wgt>
  <wgt id="611">3.3249e-12</wgt>
  <wgt id="612">3.53686e-12</wgt>
  <wgt id="613">3.30588e-12</wgt>
  <wgt id="614">3.3196e-12</wgt>
  <wgt id="615">3.26226e-12</wgt>
  <wgt id="616">3.48589e-12</wgt>
  <wgt id="617">3.36917e-12</wgt>
  <wgt id="618">3.43255e-12</wgt>
  <wgt id="619">3.28992e-12</wgt>
  <wgt id="620">3.39682e-12</wgt>
  <wgt id="621">3.32329e-12</wgt>
  <wgt id="622">3.348e-12</wgt>
  <wgt id="623">3.38555e-12</wgt>
  <wgt id="624">3.28938e-12</wgt>
  <wgt id="625">3.25683e-12</wgt>
  <wgt id="626">3.20496e-12</wgt>
  <wgt id="627">3.183e-12</wgt>
  <wgt id="628">3.3666e-12</wgt>
  <wgt id="629">3.26387e-12</wgt>
  <wgt id="630">3.19437e-12</wgt>
  <wgt id="631">3.31127e-12</wgt>
  <wgt id="632">3.19117e-12</wgt>
  <wgt id="633">3.28063e-12</wgt>
  <wgt id="634">3.29023e-12</wgt>
  <wgt id="635">3.23224e-12</wgt>
  <wgt id="636">3.3426e-12</wgt>
  <wgt id="637">3.31181e-12</wgt>
  <wgt id="638">3.20931e-12</wgt>
  <wgt id="639">3.27158e-12</wgt>
  <wgt id="640">3.31473e-12</wgt>
  <wgt id="641">3.34246e-12</wgt>
  <wgt id="642">3.13702e-12</wgt>
  <wgt id="643">3.29334e-12</wgt>
  <wgt id="644">3.13742e-12</wgt>
  <wgt id="645">3.318e-12</wgt>
  <wgt id="646">3.31478e-12</wgt>
  <wgt id="647">3.26159e-12</wgt>
  <wgt id="648">3.34195e-12</wgt>
  <wgt id="649">3.33693e-12</wgt>
  <wgt id="650">3.23495e-12</wgt>
  <wgt id="651">3.37966e-12</wgt>
  <wgt id="652">3.28686e-12</wgt>
  <wgt id="653">3.21393e-12</wgt>
  <wgt id="654">3.25663e-12</wgt>
  <wgt id="655">3.25569e-12</wgt>
  <wgt id="656">3.28903e-12</wgt>
  <wgt id="657">3.44858e-12</wgt>
  <wgt id="658">3.31719e-12</wgt>
  <wgt id="659">3.17569e-12</wgt>
  <wgt id="660">3.35321e-12</wgt>
  <wgt id="661">3.26837e-12</wgt>
  <wgt id="662">3.29314e-12</wgt>
  <wgt id="663">3.30973e-12</wgt>
  <wgt id="664">3.27262e-12</wgt>
  <wgt id="665">3.30466e-12</wgt>
  <wgt id="666">3.29103e-12</wgt>
  <wgt id="667">3.42027e-12</wgt>
  <wgt id="668">3.29524e-12</wgt>
  <wgt id="669">3.38297e-12</wgt>
  <wgt id="670">3.36486e-12</wgt>
  <wgt id="671">3.27179e-12</wgt>
  <wgt id="672">3.17701e-12</wgt>
  <wgt id="673">3.32114e-12</wgt>
  <wgt id="674">3.2311e-12</wgt>
  <wgt id="675">3.25733e-12</wgt>
  <wgt id="676">4.10443e-12</wgt>
  <wgt id="677">4.16491e-12</wgt>
  <wgt id="678">4.29512e-12</wgt>
  <wgt id="679">3.93891e-12</wgt>
  <wgt id="680">3.99818e-12</wgt>
  <wgt id="681">4.19286e-12</wgt>
  <wgt id="682">4.18512e-12</wgt>
  <wgt id="683">4.05053e-12</wgt>
  <wgt id="684">4.25786e-12</wgt>
  <wgt id="685">3.95591e-12</wgt>
  <wgt id="686">4.06309e-12</wgt>
  <wgt id="687">4.23504e-12</wgt>
  <wgt id="688">4.06712e-12</wgt>
  <wgt id="689">4.29383e-12</wgt>
  <wgt id="690">4.28697e-12</wgt>
  <wgt id="691">4.30141e-12</wgt>
  <wgt id="692">4.09055e-12</wgt>
  <wgt id="693">4.72831e-12</wgt>
  <wgt id="694">4.34033e-12</wgt>
  <wgt id="695">3.98478e-12</wgt>
  <wgt id="696">3.98368e-12</wgt>
  <wgt id="697">3.97185e-12</wgt>
  <wgt id="698">3.8164e-12</wgt>
  <wgt id="699">3.7676e-12</wgt>
  <wgt id="700">3.68593e-12</wgt>
  <wgt id="701">4.09977e-12</wgt>
  <wgt id="702">4.00619e-12</wgt>
  <wgt id="703">4.62314e-12</wgt>
  <wgt id="704">4.43469e-12</wgt>
  <wgt id="705">4.32041e-12</wgt>
  <wgt id="706">3.90617e-12</wgt>
  <wgt id="707">3.95204e-12</wgt>
  <wgt id="708">4.03711e-12</wgt>
  <wgt id="709">4.02363e-12</wgt>
  <wgt id="710">3.77564e-12</wgt>
  <wgt id="711">4.09097e-12</wgt>
  <wgt id="712">4.01871e-12</wgt>
  <wgt id="713">4.37282e-12</wgt>
  <wgt id="714">4.03555e-12</wgt>
  <wgt id="715">4.06152e-12</wgt>
  <wgt id="716">3.96091e-12</wgt>
  <wgt id="717">3.91976e-12</wgt>
  <wgt id="718">4.09645e-12</wgt>
  <wgt id="719">3.77348e-12</wgt>
  <wgt id="720">3.9435e-12</wgt>
  <wgt id="721">3.84093e-12</wgt>
  <wgt id="722">3.71025e-12</wgt>
  <wgt id="723">4.33219e-12</wgt>
  <wgt id="724">4.27036e-12</wgt>
  <wgt id="725">4.3005e-12</wgt>
  <wgt id="726">4.12488e-12</wgt>
  <wgt id="727">4.02524e-12</wgt>
  <wgt id="728">4.0381e-12</wgt>
  <wgt id="729">3.88973e-12</wgt>
  <wgt id="730">4.31093e-12</wgt>
  <wgt id="731">4.04417e-12</wgt>
  <wgt id="732">4.46939e-12</wgt>
  <wgt id="733">4.04972e-12</wgt>
  <wgt id="734">4.18139e-12</wgt>
  <wgt id="735">4.14136e-12</wgt>
  <wgt id="736">4.02656e-12</wgt>
  <wgt id="737">4.14888e-12</wgt>
  <wgt id="738">3.97504e-12</wgt>
  <wgt id="739">4.13429e-12</wgt>
  <wgt id="740">4.51461e-12</wgt>
  <wgt id="741">3.71333e-12</wgt>
  <wgt id="742">4.05594e-12</wgt>
  <wgt id="743">3.96979e-12</wgt>
  <wgt id="744">4.01812e-12</wgt>
  <wgt id="745">4.23589e-12</wgt>
  <wgt id="746">4.29438e-12</wgt>
  <wgt id="747">3.75857e-12</wgt>
  <wgt id="748">4.05675e-12</wgt>
  <wgt id="749">4.28725e-12</wgt>
  <wgt id="750">4.22265e-12</wgt>
  <wgt id="751">4.20391e-12</wgt>
  <wgt id="752">3.80852e-12</wgt>
  <wgt id="753">3.89713e-12</wgt>
  <wgt id="754">4.21649e-12</wgt>
  <wgt id="755">4.11118e-12</wgt>
  <wgt id="756">4.09399e-12</wgt>
  <wgt id="757">3.81473e-12</wgt>
  <wgt id="758">4.1121e-12</wgt>
  <wgt id="759">4.24093e-12</wgt>
  <wgt id="760">4.13949e-12</wgt>
  <wgt id="761">4.31478e-12</wgt>
  <wgt id="762">4.31082e-12</wgt>
  <wgt id="763">4.10706e-12</wgt>
  <wgt id="764">4.23745e-12</wgt>
  <wgt id="765">4.14851e-12</wgt>
  <wgt id="766">4.09021e-12</wgt>
  <wgt id="767">4.17366e-12</wgt>
  <wgt id="768">3.8945e-12</wgt>
  <wgt id="769">4.32157e-12</wgt>
  <wgt id="770">4.05949e-12</wgt>
  <wgt id="771">4.74044e-12</wgt>
  <wgt id="772">3.89964e-12</wgt>
  <wgt id="773">4.0832e-12</wgt>
  <wgt id="774">3.67733e-12</wgt>
  <wgt id="775">4.26817e-12</wgt>
  <wgt id="776">4.39785e-12</wgt>
  <wgt id="777">3.9518e-12</wgt>
  <wgt id="778">3.07763e-12</wgt>
  <wgt id="779">2.57694e-12</wgt>
  <wgt id="780">2.16267e-12</wgt>
  <wgt id="781">3.25048e-12</wgt>
  <wgt id="782">3.26447e-12</wgt>
  <wgt id="783">2.61473e-12</wgt>
  <wgt id="784">2.71577e-12</wgt>
  <wgt id="785">3.7113e-12</wgt>
  <wgt id="786">2.43129e-12</wgt>
  <wgt id="787">3.44346e-12</wgt>
  <wgt id="788">2.00299e-12</wgt>
  <wgt id="789">2.63239e-12</wgt>
  <wgt id="790">2.39914e-12</wgt>
  <wgt id="791">2.96026e-12</wgt>
  <wgt id="792">4.05421e-12</wgt>
  <wgt id="793">3.02976e-12</wgt>
  <wgt id="794">2.40684e-12</wgt>
  <wgt id="795">3.51241e-12</wgt>
  <wgt id="796">3.94981e-12</wgt>
  <wgt id="797">3.53583e-12</wgt>
  <wgt id="798">2.81788e-12</wgt>
  <wgt id="799">3.43419e-12</wgt>
  <wgt id="800">2.60411e-12</wgt>
  <wgt id="801">2.8886e-12</wgt>
  <wgt id="802">2.42769e-12</wgt>
  <wgt id="803">4.04943e-12</wgt>
  <wgt id="804">3.50819e-12</wgt>
  <wgt id="805">3.52563e-12</wgt>
  <wgt id="806">3.41729e-12</wgt>
  <wgt id="807">2.963e-12</wgt>
  <wgt id="808">2.97975e-12</wgt>
  <wgt id="809">2.88478e-12</wgt>
  <wgt id="810">3.43757e-12</wgt>
  <wgt id="811">3.29601e-12</wgt>
  <wgt id="812">2.41538e-12</wgt>
  <wgt id="813">2.42901e-12</wgt>
  <wgt id="814">2.56364e-12</wgt>
  <wgt id="815">2.58434e-12</wgt>
  <wgt id="816">2.36928e-12</wgt>
  <wgt id="817">3.19581e-12</wgt>
  <wgt id="818">3.08215e-12</wgt>
  <wgt id="819">2.59581e-12</wgt>
  <wgt id="820">3.06764e-12</wgt>
  <wgt id="821">3.43723e-12</wgt>
  <wgt id="822">2.63093e-12</wgt>
  <wgt id="823">3.47997e-12</wgt>
  <wgt id="824">4.02336e-12</wgt>
  <wgt id="825">2.33543e-12</wgt>
  <wgt id="826">3.22482e-12</wgt>
  <wgt id="827">1.99488e-12</wgt>
  <wgt id="828">3.9121e-12</wgt>
  <wgt id="829">3.14873e-12</wgt>
  <wgt id="830">2.23205e-12</wgt>
  <wgt id="831">3.28069e-12</wgt>
  <wgt id="832">4.87119e-12</wgt>
  <wgt id="833">2.88156e-12</wgt>
  <wgt id="834">4.62539e-12</wgt>
  <wgt id="835">2.57021e-12</wgt>
  <wgt id="836">3.00806e-12</wgt>
  <wgt id="837">3.40326e-12</wgt>
  <wgt id="838">2.8844e-12</wgt>
  <wgt id="839">3.26771e-12</wgt>
  <wgt id="840">2.90275e-12</wgt>
  <wgt id="841">3.68618e-12</wgt>
  <wgt id="842">2.863e-12</wgt>
  <wgt id="843">3.04064e-12</wgt>
  <wgt id="844">3.17686e-12</wgt>
  <wgt id="845">4.31219e-12</wgt>
  <wgt id="846">3.0196e-12</wgt>
  <wgt id="847">3.09949e-12</wgt>
  <wgt id="848">2.6856e-12</wgt>
  <wgt id="849">3.14522e-12</wgt>
  <wgt id="850">3.88412e-12</wgt>
  <wgt id="851">3.34754e-12</wgt>
  <wgt id="852">2.59319e-12</wgt>
  <wgt id="853">3.34875e-12</wgt>
  <wgt id="854">3.6871e-12</wgt>
  <wgt id="855">3.43774e-12</wgt>
  <wgt id="856">2.27158e-12</wgt>
  <wgt id="857">3.06163e-12</wgt>
  <wgt id="858">2.97433e-12</wgt>
  <wgt id="859">2.90877e-12</wgt>
  <wgt id="860">3.28517e-12</wgt>
  <wgt id="861">2.77041e-12</wgt>
  <wgt id="862">3.09656e-12</wgt>
  <wgt id="863">3.22551e-12</wgt>
  <wgt id="864">3.22067e-12</wgt>
  <wgt id="865">4.20351e-12</wgt>
  <wgt id="866">4.63808e-12</wgt>
  <wgt id="867">3.08406e-12</wgt>
  <wgt id="868">2.99426e-12</wgt>
  <wgt id="869">2.43829e-12</wgt>
  <wgt id="870">2.56544e-12</wgt>
  <wgt id="871">2.50034e-12</wgt>
  <wgt id="872">3.59192e-12</wgt>
  <wgt id="873">2.62573e-12</wgt>
  <wgt id="874">3.20815e-12</wgt>
  <wgt id="875">2.69482e-12</wgt>
  <wgt id="876">3.56647e-12</wgt>
  <wgt id="877">3.41218e-12</wgt>
  <wgt id="878">2.68472e-12</wgt>
  <wgt id="879">4.10443e-12</wgt>
  <wgt id="880">4.16491e-12</wgt>
  <wgt id="881">4.29512e-12</wgt>
  <wgt id="882">3.93891e-12</wgt>
  <wgt id="883">3.99818e-12</wgt>
  <wgt id="884">4.19286e-12</wgt>
  <wgt id="885">4.18512e-12</wgt>
  <wgt id="886">4.05053e-12</wgt>
  <wgt id="887">4.25786e-12</wgt>
  <wgt id="888">3.95591e-12</wgt>
  <wgt id="889">4.06309e-12</wgt>
  <wgt id="890">4.23504e-12</wgt>
  <wgt id="891">4.06712e-12</wgt>
  <wgt id="892">4.29383e-12</wgt>
  <wgt id="893">4.28697e-12</wgt>
  <wgt id="894">4.30141e-12</wgt>
  <wgt id="895">4.09055e-12</wgt>
  <wgt id="896">4.72831e-12</wgt>
  <wgt id="897">4.34033e-12</wgt>
  <wgt id="898">3.98478e-12</wgt>
  <wgt id="899">3.98368e-12</wgt>
  <wgt id="900">3.97185e-12</wgt>
  <wgt id="901">3.8164e-12</wgt>
  <wgt id="902">3.7676e-12</wgt>
  <wgt id="903">3.68593e-12</wgt>
  <wgt id="904">4.09977e-12</wgt>
  <wgt id="905">4.00619e-12</wgt>
  <wgt id="906">4.62314e-12</wgt>
  <wgt id="907">4.43469e-12</wgt>
  <wgt id="908">4.32041e-12</wgt>
  <wgt id="909">3.90617e-12</wgt>
  <wgt id="910">3.95204e-12</wgt>
  <wgt id="911">4.03711e-12</wgt>
  <wgt id="912">4.02363e-12</wgt>
  <wgt id="913">3.77564e-12</wgt>
  <wgt id="914">4.09097e-12</wgt>
  <wgt id="915">4.01871e-12</wgt>
  <wgt id="916">4.37282e-12</wgt>
  <wgt id="917">4.03555e-12</wgt>
  <wgt id="918">4.06152e-12</wgt>
  <wgt id="919">3.96091e-12</wgt>
  <wgt id="920">3.91976e-12</wgt>
  <wgt id="921">4.09645e-12</wgt>
  <wgt id="922">3.77348e-12</wgt>
  <wgt id="923">3.9435e-12</wgt>
  <wgt id="924">3.84093e-12</wgt>
  <wgt id="925">3.71025e-12</wgt>
  <wgt id="926">4.33219e-12</wgt>
  <wgt id="927">4.27036e-12</wgt>
  <wgt id="928">4.3005e-12</wgt>
  <wgt id="929">4.12488e-12</wgt>
  <wgt id="930">4.02524e-12</wgt>
  <wgt id="931">4.0381e-12</wgt>
  <wgt id="932">3.88973e-12</wgt>
  <wgt id="933">4.31093e-12</wgt>
  <wgt id="934">4.04417e-12</wgt>
  <wgt id="935">4.46939e-12</wgt>
  <wgt id="936">4.04972e-12</wgt>
  <wgt id="937">4.18139e-12</wgt>
  <wgt id="938">4.14136e-12</wgt>
  <wgt id="939">4.02656e-12</wgt>
  <wgt id="940">4.14888e-12</wgt>
  <wgt id="941">3.97504e-12</wgt>
  <wgt id="942">4.13429e-12</wgt>
  <wgt id="943">4.51461e-12</wgt>
  <wgt id="944">3.71333e-12</wgt>
  <wgt id="945">4.05594e-12</wgt>
  <wgt id="946">3.96979e-12</wgt>
  <wgt id="947">4.01812e-12</wgt>
  <wgt id="948">4.23589e-12</wgt>
  <wgt id="949">4.29438e-12</wgt>
  <wgt id="950">3.75857e-12</wgt>
  <wgt id="951">4.05675e-12</wgt>
  <wgt id="952">4.28725e-12</wgt>
  <wgt id="953">4.22265e-12</wgt>
  <wgt id="954">4.20391e-12</wgt>
  <wgt id="955">3.80852e-12</wgt>
  <wgt id="956">3.89713e-12</wgt>
  <wgt id="957">4.21649e-12</wgt>
  <wgt id="958">4.11118e-12</wgt>
  <wgt id="959">4.09399e-12</wgt>
  <wgt id="960">3.81473e-12</wgt>
  <wgt id="961">4.1121e-12</wgt>
  <wgt id="962">4.24093e-12</wgt>
  <wgt id="963">4.13949e-12</wgt>
  <wgt id="964">4.31478e-12</wgt>
  <wgt id="965">4.31082e-12</wgt>
  <wgt id="966">4.10706e-12</wgt>
  <wgt id="967">4.23745e-12</wgt>
  <wgt id="968">4.14851e-12</wgt>
  <wgt id="969">4.09021e-12</wgt>
  <wgt id="970">4.17366e-12</wgt>
  <wgt id="971">3.8945e-12</wgt>
  <wgt id="972">4.32157e-12</wgt>
  <wgt id="973">4.05949e-12</wgt>
  <wgt id="974">4.74044e-12</wgt>
  <wgt id="975">3.89964e-12</wgt>
  <wgt id="976">4.0832e-12</wgt>
  <wgt id="977">3.67733e-12</wgt>
  <wgt id="978">4.26817e-12</wgt>
  <wgt id="979">4.39785e-12</wgt>
  <wgt id="980">4.10521e-12</wgt>
  <wgt id="981">4.11538e-12</wgt>
  <wgt id="982">3.98384e-12</wgt>
</rwgt>
</event>
<event>
 5   1  0.3028200E-11  0.2336959E+04  0.7818608E-02  0.7699166E-01
       21   -1    0    0  502  501  0.00000000000E+00  0.00000000000E+00  0.11702653643E+04  0.11702653643E+04  0.00000000000E+00 0. -1.
       21   -1    0    0  501  502 -0.00000000000E+00 -0.00000000000E+00 -0.11666960060E+04  0.11666960060E+04  0.00000000000E+00 0.  1.
       39    2    1    2    0    0  0.00000000000E+00  0.00000000000E+00  0.35693582477E+01  0.23369613703E+04  0.23369586445E+04 0.  0.
       25    1    3    3    0    0  0.55347365939E+02 -0.90458952797E+03  0.72867849124E+03  0.11695909065E+04  0.12500000000E+03 0.  0.
       25    1    3    3    0    0 -0.55347365939E+02  0.90458952797E+03 -0.72510913299E+03  0.11673704638E+04  0.12500000000E+03 0.  0.
<mgrwt>
<rscale>  0 0.23369586E+04</rscale>
<asrwt>0</asrwt>
<pdfrwt beam="1">  1       21 0.18004083E+00 0.23369586E+04</pdfrwt>
<pdfrwt beam="2">  1       21 0.17949169E+00 0.23369586E+04</pdfrwt>
<totfact> 0.12593139E+01</totfact>
</mgrwt>
<rwgt>
  <wgt id="1">3.0282e-12</wgt>
  <wgt id="2">2.63595e-12</wgt>
  <wgt id="3">3.5153e-12</wgt>
  <wgt id="4">3.0282e-12</wgt>
  <wgt id="5">2.63595e-12</wgt>
  <wgt id="6">3.5153e-12</wgt>
  <wgt id="7">3.0282e-12</wgt>
  <wgt id="8">2.63595e-12</wgt>
  <wgt id="9">3.5153e-12</wgt>
  <wgt id="10">3.12993e-12</wgt>
  <wgt id="11">3.12645e-12</wgt>
  <wgt id="12">3.1236e-12</wgt>
  <wgt id="13">3.11886e-12</wgt>
  <wgt id="14">3.14145e-12</wgt>
  <wgt id="15">3.13443e-12</wgt>
  <wgt id="16">3.1231e-12</wgt>
  <wgt id="17">3.13416e-12</wgt>
  <wgt id="18">3.12433e-12</wgt>
  <wgt id="19">3.13706e-12</wgt>
  <wgt id="20">3.11993e-12</wgt>
  <wgt id="21">3.11316e-12</wgt>
  <wgt id="22">3.12084e-12</wgt>
  <wgt id="23">3.10361e-12</wgt>
  <wgt id="24">3.11686e-12</wgt>
  <wgt id="25">3.12282e-12</wgt>
  <wgt id="26">3.1439e-12</wgt>
  <wgt id="27">3.13032e-12</wgt>
  <wgt id="28">3.11584e-12</wgt>
  <wgt id="29">3.13313e-12</wgt>
  <wgt id="30">3.12431e-12</wgt>
  <wgt id="31">3.13712e-12</wgt>
  <wgt id="32">3.12618e-12</wgt>
  <wgt id="33">3.13789e-12</wgt>
  <wgt id="34">3.12138e-12</wgt>
  <wgt id="35">3.12933e-12</wgt>
  <wgt id="36">3.13922e-12</wgt>
  <wgt id="37">3.12203e-12</wgt>
  <wgt id="38">3.12103e-12</wgt>
  <wgt id="39">3.15984e-12</wgt>
  <wgt id="40">3.13764e-12</wgt>
  <wgt id="41">3.12956e-12</wgt>
  <wgt id="42">3.13805e-12</wgt>
  <wgt id="43">3.13151e-12</wgt>
  <wgt id="44">3.1179e-12</wgt>
  <wgt id="45">3.13682e-12</wgt>
  <wgt id="46">3.13614e-12</wgt>
  <wgt id="47">3.11487e-12</wgt>
  <wgt id="48">3.12964e-12</wgt>
  <wgt id="49">3.14041e-12</wgt>
  <wgt id="50">3.15193e-12</wgt>
  <wgt id="51">3.14648e-12</wgt>
  <wgt id="52">3.12274e-12</wgt>
  <wgt id="53">3.10517e-12</wgt>
  <wgt id="54">3.12196e-12</wgt>
  <wgt id="55">3.12951e-12</wgt>
  <wgt id="56">3.14023e-12</wgt>
  <wgt id="57">3.14124e-12</wgt>
  <wgt id="58">3.10628e-12</wgt>
  <wgt id="59">3.11802e-12</wgt>
  <wgt id="60">3.1305e-12</wgt>
  <wgt id="61">3.12544e-12</wgt>
  <wgt id="62">3.13046e-12</wgt>
  <wgt id="63">3.13469e-12</wgt>
  <wgt id="64">3.13389e-12</wgt>
  <wgt id="65">3.13286e-12</wgt>
  <wgt id="66">3.12566e-12</wgt>
  <wgt id="67">3.12654e-12</wgt>
  <wgt id="68">3.12621e-12</wgt>
  <wgt id="69">3.12911e-12</wgt>
  <wgt id="70">3.12693e-12</wgt>
  <wgt id="71">3.12916e-12</wgt>
  <wgt id="72">3.12717e-12</wgt>
  <wgt id="73">3.13193e-12</wgt>
  <wgt id="74">3.13221e-12</wgt>
  <wgt id="75">3.12885e-12</wgt>
  <wgt id="76">3.1387e-12</wgt>
  <wgt id="77">3.12954e-12</wgt>
  <wgt id="78">3.13098e-12</wgt>
  <wgt id="79">3.13513e-12</wgt>
  <wgt id="80">3.1167e-12</wgt>
  <wgt id="81">3.1256e-12</wgt>
  <wgt id="82">3.12993e-12</wgt>
  <wgt id="83">3.11805e-12</wgt>
  <wgt id="84">3.12271e-12</wgt>
  <wgt id="85">3.12483e-12</wgt>
  <wgt id="86">3.13631e-12</wgt>
  <wgt id="87">3.11493e-12</wgt>
  <wgt id="88">3.13372e-12</wgt>
  <wgt id="89">3.13284e-12</wgt>
  <wgt id="90">3.13337e-12</wgt>
  <wgt id="91">3.13182e-12</wgt>
  <wgt id="92">3.13555e-12</wgt>
  <wgt id="93">3.129e-12</wgt>
  <wgt id="94">3.12719e-12</wgt>
  <wgt id="95">3.13127e-12</wgt>
  <wgt id="96">3.13212e-12</wgt>
  <wgt id="97">3.12631e-12</wgt>
  <wgt id="98">3.13142e-12</wgt>
  <wgt id="99">3.12957e-12</wgt>
  <wgt id="100">3.13283e-12</wgt>
  <wgt id="101">3.12836e-12</wgt>
  <wgt id="102">3.12653e-12</wgt>
  <wgt id="103">3.13431e-12</wgt>
  <wgt id="104">3.12714e-12</wgt>
  <wgt id="105">3.13235e-12</wgt>
  <wgt id="106">3.12631e-12</wgt>
  <wgt id="107">3.1376e-12</wgt>
  <wgt id="108">3.12715e-12</wgt>
  <wgt id="109">3.1313e-12</wgt>
  <wgt id="110">3.12918e-12</wgt>
  <wgt id="111">3.16295e-12</wgt>
  <wgt id="112">3.12442e-12</wgt>
  <wgt id="113">4.19358e-12</wgt>
  <wgt id="114">4.34944e-12</wgt>
  <wgt id="115">4.29109e-12</wgt>
  <wgt id="116">6.02217e-12</wgt>
  <wgt id="117">3.48407e-12</wgt>
  <wgt id="118">3.49624e-12</wgt>
  <wgt id="119">3.47726e-12</wgt>
  <wgt id="120">3.48439e-12</wgt>
  <wgt id="121">3.4838e-12</wgt>
  <wgt id="122">3.47805e-12</wgt>
  <wgt id="123">3.49258e-12</wgt>
  <wgt id="124">3.47921e-12</wgt>
  <wgt id="125">3.48743e-12</wgt>
  <wgt id="126">3.49057e-12</wgt>
  <wgt id="127">3.47976e-12</wgt>
  <wgt id="128">3.4951e-12</wgt>
  <wgt id="129">3.47313e-12</wgt>
  <wgt id="130">3.50453e-12</wgt>
  <wgt id="131">3.46309e-12</wgt>
  <wgt id="132">3.39376e-12</wgt>
  <wgt id="133">3.59079e-12</wgt>
  <wgt id="134">3.44674e-12</wgt>
  <wgt id="135">3.51326e-12</wgt>
  <wgt id="136">3.52818e-12</wgt>
  <wgt id="137">3.43069e-12</wgt>
  <wgt id="138">3.61769e-12</wgt>
  <wgt id="139">3.35473e-12</wgt>
  <wgt id="140">3.4606e-12</wgt>
  <wgt id="141">3.50248e-12</wgt>
  <wgt id="142">3.48466e-12</wgt>
  <wgt id="143">3.48862e-12</wgt>
  <wgt id="144">3.3891e-12</wgt>
  <wgt id="145">3.57198e-12</wgt>
  <wgt id="146">3.51438e-12</wgt>
  <wgt id="147">3.46021e-12</wgt>
  <wgt id="148">3.49474e-12</wgt>
  <wgt id="149">3.48345e-12</wgt>
  <wgt id="150">3.51438e-12</wgt>
  <wgt id="151">3.4699e-12</wgt>
  <wgt id="152">3.48569e-12</wgt>
  <wgt id="153">3.48349e-12</wgt>
  <wgt id="154">3.51327e-12</wgt>
  <wgt id="155">3.44956e-12</wgt>
  <wgt id="156">3.55026e-12</wgt>
  <wgt id="157">3.4135e-12</wgt>
  <wgt id="158">4.19162e-12</wgt>
  <wgt id="159">4.20902e-12</wgt>
  <wgt id="160">4.17755e-12</wgt>
  <wgt id="161">4.18103e-12</wgt>
  <wgt id="162">4.20351e-12</wgt>
  <wgt id="163">4.18719e-12</wgt>
  <wgt id="164">4.1984e-12</wgt>
  <wgt id="165">4.19325e-12</wgt>
  <wgt id="166">4.19059e-12</wgt>
  <wgt id="167">4.18858e-12</wgt>
  <wgt id="168">4.19592e-12</wgt>
  <wgt id="169">4.17383e-12</wgt>
  <wgt id="170">4.20302e-12</wgt>
  <wgt id="171">4.18689e-12</wgt>
  <wgt id="172">4.19832e-12</wgt>
  <wgt id="173">4.19185e-12</wgt>
  <wgt id="174">4.19142e-12</wgt>
  <wgt id="175">4.07408e-12</wgt>
  <wgt id="176">4.34472e-12</wgt>
  <wgt id="177">4.21417e-12</wgt>
  <wgt id="178">4.17083e-12</wgt>
  <wgt id="179">4.36491e-12</wgt>
  <wgt id="180">3.91807e-12</wgt>
  <wgt id="181">4.07087e-12</wgt>
  <wgt id="182">4.27125e-12</wgt>
  <wgt id="183">4.11786e-12</wgt>
  <wgt id="184">4.22848e-12</wgt>
  <wgt id="185">4.15861e-12</wgt>
  <wgt id="186">4.23167e-12</wgt>
  <wgt id="187">4.15465e-12</wgt>
  <wgt id="188">4.25886e-12</wgt>
  <wgt id="189">4.1652e-12</wgt>
  <wgt id="190">4.20261e-12</wgt>
  <wgt id="191">4.20296e-12</wgt>
  <wgt id="192">4.18504e-12</wgt>
  <wgt id="193">4.25078e-12</wgt>
  <wgt id="194">4.16252e-12</wgt>
  <wgt id="195">4.09102e-12</wgt>
  <wgt id="196">4.37237e-12</wgt>
  <wgt id="197">4.21243e-12</wgt>
  <wgt id="198">4.18684e-12</wgt>
  <wgt id="199">4.19162e-12</wgt>
  <wgt id="200">4.22728e-12</wgt>
  <wgt id="201">4.21409e-12</wgt>
  <wgt id="202">4.20152e-12</wgt>
  <wgt id="203">4.18234e-12</wgt>
  <wgt id="204">4.17324e-12</wgt>
  <wgt id="205">4.16587e-12</wgt>
  <wgt id="206">4.06377e-12</wgt>
  <wgt id="207">4.08752e-12</wgt>
  <wgt id="208">4.04037e-12</wgt>
  <wgt id="209">4.07633e-12</wgt>
  <wgt id="210">4.05456e-12</wgt>
  <wgt id="211">4.06238e-12</wgt>
  <wgt id="212">4.06512e-12</wgt>
  <wgt id="213">4.06341e-12</wgt>
  <wgt id="214">4.06439e-12</wgt>
  <wgt id="215">4.06676e-12</wgt>
  <wgt id="216">4.06169e-12</wgt>
  <wgt id="217">4.07568e-12</wgt>
  <wgt id="218">4.05474e-12</wgt>
  <wgt id="219">4.05969e-12</wgt>
  <wgt id="220">4.06624e-12</wgt>
  <wgt id="221">4.06185e-12</wgt>
  <wgt id="222">4.06836e-12</wgt>
  <wgt id="223">3.85083e-12</wgt>
  <wgt id="224">4.25779e-12</wgt>
  <wgt id="225">4.01552e-12</wgt>
  <wgt id="226">4.12445e-12</wgt>
  <wgt id="227">4.02573e-12</wgt>
  <wgt id="228">4.08047e-12</wgt>
  <wgt id="229">4.00764e-12</wgt>
  <wgt id="230">4.09177e-12</wgt>
  <wgt id="231">4.17807e-12</wgt>
  <wgt id="232">3.96988e-12</wgt>
  <wgt id="233">4.04289e-12</wgt>
  <wgt id="234">4.09612e-12</wgt>
  <wgt id="235">3.98694e-12</wgt>
  <wgt id="236">4.13682e-12</wgt>
  <wgt id="237">4.01056e-12</wgt>
  <wgt id="238">4.08217e-12</wgt>
  <wgt id="239">4.04056e-12</wgt>
  <wgt id="240">4.10595e-12</wgt>
  <wgt id="241">4.02342e-12</wgt>
  <wgt id="242">4.11274e-12</wgt>
  <wgt id="243">4.11245e-12</wgt>
  <wgt id="244">4.08666e-12</wgt>
  <wgt id="245">4.06098e-12</wgt>
  <wgt id="246">4.0943e-12</wgt>
  <wgt id="247">4.06377e-12</wgt>
  <wgt id="248">4.09809e-12</wgt>
  <wgt id="249">4.08481e-12</wgt>
  <wgt id="250">4.0728e-12</wgt>
  <wgt id="251">4.05421e-12</wgt>
  <wgt id="252">4.04563e-12</wgt>
  <wgt id="253">4.03934e-12</wgt>
  <wgt id="254">3.98516e-12</wgt>
  <wgt id="255">3.98902e-12</wgt>
  <wgt id="256">3.9809e-12</wgt>
  <wgt id="257">3.98801e-12</wgt>
  <wgt id="258">3.9829e-12</wgt>
  <wgt id="259">4.01186e-12</wgt>
  <wgt id="260">3.95945e-12</wgt>
  <wgt id="261">3.99072e-12</wgt>
  <wgt id="262">3.9785e-12</wgt>
  <wgt id="263">3.98346e-12</wgt>
  <wgt id="264">3.98716e-12</wgt>
  <wgt id="265">3.98046e-12</wgt>
  <wgt id="266">3.99418e-12</wgt>
  <wgt id="267">3.98648e-12</wgt>
  <wgt id="268">3.98346e-12</wgt>
  <wgt id="269">3.99784e-12</wgt>
  <wgt id="270">3.97648e-12</wgt>
  <wgt id="271">3.97877e-12</wgt>
  <wgt id="272">3.99249e-12</wgt>
  <wgt id="273">3.97262e-12</wgt>
  <wgt id="274">3.99468e-12</wgt>
  <wgt id="275">3.9693e-12</wgt>
  <wgt id="276">4.00139e-12</wgt>
  <wgt id="277">3.96264e-12</wgt>
  <wgt id="278">4.00573e-12</wgt>
  <wgt id="279">3.90874e-12</wgt>
  <wgt id="280">4.08072e-12</wgt>
  <wgt id="281">3.96783e-12</wgt>
  <wgt id="282">3.98567e-12</wgt>
  <wgt id="283">3.87353e-12</wgt>
  <wgt id="284">4.12242e-12</wgt>
  <wgt id="285">3.79966e-12</wgt>
  <wgt id="286">4.13799e-12</wgt>
  <wgt id="287">3.99715e-12</wgt>
  <wgt id="288">3.9695e-12</wgt>
  <wgt id="289">4.01215e-12</wgt>
  <wgt id="290">3.9215e-12</wgt>
  <wgt id="291">3.97496e-12</wgt>
  <wgt id="292">3.9875e-12</wgt>
  <wgt id="293">3.9552e-12</wgt>
  <wgt id="294">4.01482e-12</wgt>
  <wgt id="295">3.91151e-12</wgt>
  <wgt id="296">4.07492e-12</wgt>
  <wgt id="297">3.9858e-12</wgt>
  <wgt id="298">3.99932e-12</wgt>
  <wgt id="299">3.97247e-12</wgt>
  <wgt id="300">4.01818e-12</wgt>
  <wgt id="301">3.93315e-12</wgt>
  <wgt id="302">4.11846e-12</wgt>
  <wgt id="303">3.9567e-12</wgt>
  <wgt id="304">4.0017e-12</wgt>
  <wgt id="305">4.00188e-12</wgt>
  <wgt id="306">4.00616e-12</wgt>
  <wgt id="307">3.99763e-12</wgt>
  <wgt id="308">4.00539e-12</wgt>
  <wgt id="309">3.99969e-12</wgt>
  <wgt id="310">4.02965e-12</wgt>
  <wgt id="311">3.97649e-12</wgt>
  <wgt id="312">4.00659e-12</wgt>
  <wgt id="313">3.99748e-12</wgt>
  <wgt id="314">4.00054e-12</wgt>
  <wgt id="315">4.00359e-12</wgt>
  <wgt id="316">3.99752e-12</wgt>
  <wgt id="317">4.01165e-12</wgt>
  <wgt id="318">4.00492e-12</wgt>
  <wgt id="319">3.99721e-12</wgt>
  <wgt id="320">4.01529e-12</wgt>
  <wgt id="321">3.99455e-12</wgt>
  <wgt id="322">3.99332e-12</wgt>
  <wgt id="323">4.01218e-12</wgt>
  <wgt id="324">3.99169e-12</wgt>
  <wgt id="325">4.01114e-12</wgt>
  <wgt id="326">3.98939e-12</wgt>
  <wgt id="327">4.01814e-12</wgt>
  <wgt id="328">3.98174e-12</wgt>
  <wgt id="329">4.01349e-12</wgt>
  <wgt id="330">4.11979e-12</wgt>
  <wgt id="331">3.88966e-12</wgt>
  <wgt id="332">3.98754e-12</wgt>
  <wgt id="333">4.00205e-12</wgt>
  <wgt id="334">3.91387e-12</wgt>
  <wgt id="335">4.11122e-12</wgt>
  <wgt id="336">3.86698e-12</wgt>
  <wgt id="337">4.16571e-12</wgt>
  <wgt id="338">4.04527e-12</wgt>
  <wgt id="339">3.96205e-12</wgt>
  <wgt id="340">4.02791e-12</wgt>
  <wgt id="341">3.93523e-12</wgt>
  <wgt id="342">3.99498e-12</wgt>
  <wgt id="343">3.99853e-12</wgt>
  <wgt id="344">3.97494e-12</wgt>
  <wgt id="345">4.0336e-12</wgt>
  <wgt id="346">3.92549e-12</wgt>
  <wgt id="347">4.09044e-12</wgt>
  <wgt id="348">4.00435e-12</wgt>
  <wgt id="349">4.01352e-12</wgt>
  <wgt id="350">3.98624e-12</wgt>
  <wgt id="351">4.04227e-12</wgt>
  <wgt id="352">3.94401e-12</wgt>
  <wgt id="353">4.14262e-12</wgt>
  <wgt id="354">3.95797e-12</wgt>
  <wgt id="355">4.0291e-12</wgt>
  <wgt id="356">3.98516e-12</wgt>
  <wgt id="357">4.01985e-12</wgt>
  <wgt id="358">4.00188e-12</wgt>
  <wgt id="359">4.00046e-12</wgt>
  <wgt id="360">4.00762e-12</wgt>
  <wgt id="361">3.99685e-12</wgt>
  <wgt id="362">4.06466e-12</wgt>
  <wgt id="363">4.0549e-12</wgt>
  <wgt id="364">4.04171e-12</wgt>
  <wgt id="365">4.02833e-12</wgt>
  <wgt id="366">4.01341e-12</wgt>
  <wgt id="367">3.98212e-12</wgt>
  <wgt id="368">3.9653e-12</wgt>
  <wgt id="369">3.94692e-12</wgt>
  <wgt id="370">3.99685e-12</wgt>
  <wgt id="371">4.01482e-12</wgt>
  <wgt id="372">4.00497e-12</wgt>
  <wgt id="373">3.99035e-12</wgt>
  <wgt id="374">3.98839e-12</wgt>
  <wgt id="375">4.24064e-12</wgt>
  <wgt id="376">4.24129e-12</wgt>
  <wgt id="377">4.23992e-12</wgt>
  <wgt id="378">4.25579e-12</wgt>
  <wgt id="379">4.22542e-12</wgt>
  <wgt id="380">4.25196e-12</wgt>
  <wgt id="381">4.23596e-12</wgt>
  <wgt id="382">4.26253e-12</wgt>
  <wgt id="383">4.21877e-12</wgt>
  <wgt id="384">4.24333e-12</wgt>
  <wgt id="385">4.23792e-12</wgt>
  <wgt id="386">4.25768e-12</wgt>
  <wgt id="387">4.2331e-12</wgt>
  <wgt id="388">4.2365e-12</wgt>
  <wgt id="389">4.24538e-12</wgt>
  <wgt id="390">4.25222e-12</wgt>
  <wgt id="391">4.22835e-12</wgt>
  <wgt id="392">4.20885e-12</wgt>
  <wgt id="393">4.25847e-12</wgt>
  <wgt id="394">4.24662e-12</wgt>
  <wgt id="395">4.23197e-12</wgt>
  <wgt id="396">4.24284e-12</wgt>
  <wgt id="397">4.23892e-12</wgt>
  <wgt id="398">4.22145e-12</wgt>
  <wgt id="399">4.25914e-12</wgt>
  <wgt id="400">4.23338e-12</wgt>
  <wgt id="401">4.25679e-12</wgt>
  <wgt id="402">4.20663e-12</wgt>
  <wgt id="403">4.25482e-12</wgt>
  <wgt id="404">4.33545e-12</wgt>
  <wgt id="405">4.01154e-12</wgt>
  <wgt id="406">4.17257e-12</wgt>
  <wgt id="407">4.38776e-12</wgt>
  <wgt id="408">4.27555e-12</wgt>
  <wgt id="409">4.17344e-12</wgt>
  <wgt id="410">4.12868e-12</wgt>
  <wgt id="411">4.292e-12</wgt>
  <wgt id="412">4.23338e-12</wgt>
  <wgt id="413">4.25089e-12</wgt>
  <wgt id="414">4.19587e-12</wgt>
  <wgt id="415">4.27518e-12</wgt>
  <wgt id="416">4.34826e-12</wgt>
  <wgt id="417">4.09176e-12</wgt>
  <wgt id="418">4.24588e-12</wgt>
  <wgt id="419">4.21182e-12</wgt>
  <wgt id="420">4.29899e-12</wgt>
  <wgt id="421">4.2082e-12</wgt>
  <wgt id="422">4.23583e-12</wgt>
  <wgt id="423">4.2437e-12</wgt>
  <wgt id="424">4.32155e-12</wgt>
  <wgt id="425">4.19032e-12</wgt>
  <wgt id="426">4.24064e-12</wgt>
  <wgt id="427">4.20728e-12</wgt>
  <wgt id="428">4.34262e-12</wgt>
  <wgt id="429">4.27653e-12</wgt>
  <wgt id="430">4.39308e-12</wgt>
  <wgt id="431">4.37e-12</wgt>
  <wgt id="432">4.34781e-12</wgt>
  <wgt id="433">4.32632e-12</wgt>
  <wgt id="434">4.3006e-12</wgt>
  <wgt id="435">4.24634e-12</wgt>
  <wgt id="436">4.21838e-12</wgt>
  <wgt id="437">4.19211e-12</wgt>
  <wgt id="438">4.27653e-12</wgt>
  <wgt id="439">4.29066e-12</wgt>
  <wgt id="440">4.2825e-12</wgt>
  <wgt id="441">4.27224e-12</wgt>
  <wgt id="442">4.26823e-12</wgt>
  <wgt id="443">4.16763e-12</wgt>
  <wgt id="444">4.18843e-12</wgt>
  <wgt id="445">4.14749e-12</wgt>
  <wgt id="446">4.14187e-12</wgt>
  <wgt id="447">4.15138e-12</wgt>
  <wgt id="448">4.05918e-12</wgt>
  <wgt id="449">4.2295e-12</wgt>
  <wgt id="450">4.14766e-12</wgt>
  <wgt id="451">4.16141e-12</wgt>
  <wgt id="452">4.25906e-12</wgt>
  <wgt id="453">4.2057e-12</wgt>
  <wgt id="454">4.00748e-12</wgt>
  <wgt id="455">4.17096e-12</wgt>
  <wgt id="456">4.11393e-12</wgt>
  <wgt id="457">4.18465e-12</wgt>
  <wgt id="458">4.21221e-12</wgt>
  <wgt id="459">4.19364e-12</wgt>
  <wgt id="460">4.18703e-12</wgt>
  <wgt id="461">4.09533e-12</wgt>
  <wgt id="462">4.1341e-12</wgt>
  <wgt id="463">4.1256e-12</wgt>
  <wgt id="464">4.14448e-12</wgt>
  <wgt id="465">4.20951e-12</wgt>
  <wgt id="466">4.1238e-12</wgt>
  <wgt id="467">4.12836e-12</wgt>
  <wgt id="468">4.15637e-12</wgt>
  <wgt id="469">4.15584e-12</wgt>
  <wgt id="470">4.13336e-12</wgt>
  <wgt id="471">4.13288e-12</wgt>
  <wgt id="472">4.18605e-12</wgt>
  <wgt id="473">4.03671e-12</wgt>
  <wgt id="474">3.0282e-12</wgt>
  <wgt id="475">3.2305e-12</wgt>
  <wgt id="476">2.95806e-12</wgt>
  <wgt id="477">2.9383e-12</wgt>
  <wgt id="478">3.04156e-12</wgt>
  <wgt id="479">2.9765e-12</wgt>
  <wgt id="480">3.13067e-12</wgt>
  <wgt id="481">2.95336e-12</wgt>
  <wgt id="482">2.90437e-12</wgt>
  <wgt id="483">2.94737e-12</wgt>
  <wgt id="484">3.25758e-12</wgt>
  <wgt id="485">3.04069e-12</wgt>
  <wgt id="486">3.09128e-12</wgt>
  <wgt id="487">3.0914e-12</wgt>
  <wgt id="488">3.06658e-12</wgt>
  <wgt id="489">2.93679e-12</wgt>
  <wgt id="490">2.94114e-12</wgt>
  <wgt id="491">2.99101e-12</wgt>
  <wgt id="492">2.92927e-12</wgt>
  <wgt id="493">2.9203e-12</wgt>
  <wgt id="494">2.93861e-12</wgt>
  <wgt id="495">3.09966e-12</wgt>
  <wgt id="496">2.92632e-12</wgt>
  <wgt id="497">2.91394e-12</wgt>
  <wgt id="498">3.06324e-12</wgt>
  <wgt id="499">2.94637e-12</wgt>
  <wgt id="500">2.98193e-12</wgt>
  <wgt id="501">3.16584e-12</wgt>
  <wgt id="502">2.94145e-12</wgt>
  <wgt id="503">3.02163e-12</wgt>
  <wgt id="504">3.04051e-12</wgt>
  <wgt id="505">3.04515e-12</wgt>
  <wgt id="506">3.10605e-12</wgt>
  <wgt id="507">2.99282e-12</wgt>
  <wgt id="508">3.06389e-12</wgt>
  <wgt id="509">3.00006e-12</wgt>
  <wgt id="510">3.1065e-12</wgt>
  <wgt id="511">2.97147e-12</wgt>
  <wgt id="512">3.06345e-12</wgt>
  <wgt id="513">3.15886e-12</wgt>
  <wgt id="514">2.99641e-12</wgt>
  <wgt id="515">2.98366e-12</wgt>
  <wgt id="516">3.10008e-12</wgt>
  <wgt id="517">3.09021e-12</wgt>
  <wgt id="518">3.09783e-12</wgt>
  <wgt id="519">2.9459e-12</wgt>
  <wgt id="520">3.04746e-12</wgt>
  <wgt id="521">3.13812e-12</wgt>
  <wgt id="522">3.14032e-12</wgt>
  <wgt id="523">3.11144e-12</wgt>
  <wgt id="524">3.08923e-12</wgt>
  <wgt id="525">3.11856e-12</wgt>
  <wgt id="526">3.0294e-12</wgt>
  <wgt id="527">3.07967e-12</wgt>
  <wgt id="528">3.03743e-12</wgt>
  <wgt id="529">2.97671e-12</wgt>
  <wgt id="530">3.04627e-12</wgt>
  <wgt id="531">2.99787e-12</wgt>
  <wgt id="532">3.18995e-12</wgt>
  <wgt id="533">2.83974e-12</wgt>
  <wgt id="534">3.04301e-12</wgt>
  <wgt id="535">3.09733e-12</wgt>
  <wgt id="536">3.02345e-12</wgt>
  <wgt id="537">3.04195e-12</wgt>
  <wgt id="538">3.06861e-12</wgt>
  <wgt id="539">2.96765e-12</wgt>
  <wgt id="540">2.97225e-12</wgt>
  <wgt id="541">2.96078e-12</wgt>
  <wgt id="542">2.96815e-12</wgt>
  <wgt id="543">3.02477e-12</wgt>
  <wgt id="544">3.17882e-12</wgt>
  <wgt id="545">2.99274e-12</wgt>
  <wgt id="546">3.00087e-12</wgt>
  <wgt id="547">2.93278e-12</wgt>
  <wgt id="548">2.9042e-12</wgt>
  <wgt id="549">2.97622e-12</wgt>
  <wgt id="550">3.03319e-12</wgt>
  <wgt id="551">3.05648e-12</wgt>
  <wgt id="552">3.01232e-12</wgt>
  <wgt id="553">3.02389e-12</wgt>
  <wgt id="554">3.25339e-12</wgt>
  <wgt id="555">3.10486e-12</wgt>
  <wgt id="556">2.94114e-12</wgt>
  <wgt id="557">3.07143e-12</wgt>
  <wgt id="558">2.92507e-12</wgt>
  <wgt id="559">2.99334e-12</wgt>
  <wgt id="560">3.26886e-12</wgt>
  <wgt id="561">2.96037e-12</wgt>
  <wgt id="562">3.0672e-12</wgt>
  <wgt id="563">2.92996e-12</wgt>
  <wgt id="564">3.01567e-12</wgt>
  <wgt id="565">2.912e-12</wgt>
  <wgt id="566">3.07269e-12</wgt>
  <wgt id="567">2.98083e-12</wgt>
  <wgt id="568">3.02096e-12</wgt>
  <wgt id="569">3.07904e-12</wgt>
  <wgt id="570">2.94655e-12</wgt>
  <wgt id="571">3.35325e-12</wgt>
  <wgt id="572">2.9555e-12</wgt>
  <wgt id="573">2.88837e-12</wgt>
  <wgt id="574">2.91768e-12</wgt>
  <wgt id="575">3.32802e-12</wgt>
  <wgt id="576">3.27882e-12</wgt>
  <wgt id="577">3.42678e-12</wgt>
  <wgt id="578">3.40436e-12</wgt>
  <wgt id="579">3.37095e-12</wgt>
  <wgt id="580">3.37896e-12</wgt>
  <wgt id="581">3.52874e-12</wgt>
  <wgt id="582">3.26964e-12</wgt>
  <wgt id="583">3.36419e-12</wgt>
  <wgt id="584">3.33497e-12</wgt>
  <wgt id="585">3.36861e-12</wgt>
  <wgt id="586">3.25922e-12</wgt>
  <wgt id="587">3.37169e-12</wgt>
  <wgt id="588">3.30342e-12</wgt>
  <wgt id="589">3.375e-12</wgt>
  <wgt id="590">3.39143e-12</wgt>
  <wgt id="591">3.4563e-12</wgt>
  <wgt id="592">3.2767e-12</wgt>
  <wgt id="593">3.31605e-12</wgt>
  <wgt id="594">3.44418e-12</wgt>
  <wgt id="595">3.30577e-12</wgt>
  <wgt id="596">3.35034e-12</wgt>
  <wgt id="597">3.21233e-12</wgt>
  <wgt id="598">3.2672e-12</wgt>
  <wgt id="599">3.5188e-12</wgt>
  <wgt id="600">3.2886e-12</wgt>
  <wgt id="601">3.23579e-12</wgt>
  <wgt id="602">3.26747e-12</wgt>
  <wgt id="603">3.2768e-12</wgt>
  <wgt id="604">3.37408e-12</wgt>
  <wgt id="605">3.46501e-12</wgt>
  <wgt id="606">3.24024e-12</wgt>
  <wgt id="607">3.27693e-12</wgt>
  <wgt id="608">3.3342e-12</wgt>
  <wgt id="609">3.13562e-12</wgt>
  <wgt id="610">3.19996e-12</wgt>
  <wgt id="611">3.3749e-12</wgt>
  <wgt id="612">3.55643e-12</wgt>
  <wgt id="613">3.33028e-12</wgt>
  <wgt id="614">3.37694e-12</wgt>
  <wgt id="615">3.25556e-12</wgt>
  <wgt id="616">3.53684e-12</wgt>
  <wgt id="617">3.45253e-12</wgt>
  <wgt id="618">3.33282e-12</wgt>
  <wgt id="619">3.29666e-12</wgt>
  <wgt id="620">3.46629e-12</wgt>
  <wgt id="621">3.38432e-12</wgt>
  <wgt id="622">3.37169e-12</wgt>
  <wgt id="623">3.42254e-12</wgt>
  <wgt id="624">3.31175e-12</wgt>
  <wgt id="625">3.29515e-12</wgt>
  <wgt id="626">3.2588e-12</wgt>
  <wgt id="627">3.20645e-12</wgt>
  <wgt id="628">3.53034e-12</wgt>
  <wgt id="629">3.24725e-12</wgt>
  <wgt id="630">3.21171e-12</wgt>
  <wgt id="631">3.33779e-12</wgt>
  <wgt id="632">3.22915e-12</wgt>
  <wgt id="633">3.28648e-12</wgt>
  <wgt id="634">3.33641e-12</wgt>
  <wgt id="635">3.28637e-12</wgt>
  <wgt id="636">3.34392e-12</wgt>
  <wgt id="637">3.3196e-12</wgt>
  <wgt id="638">3.20172e-12</wgt>
  <wgt id="639">3.2884e-12</wgt>
  <wgt id="640">3.33287e-12</wgt>
  <wgt id="641">3.33579e-12</wgt>
  <wgt id="642">3.20536e-12</wgt>
  <wgt id="643">3.31229e-12</wgt>
  <wgt id="644">3.22408e-12</wgt>
  <wgt id="645">3.35749e-12</wgt>
  <wgt id="646">3.39503e-12</wgt>
  <wgt id="647">3.28026e-12</wgt>
  <wgt id="648">3.3388e-12</wgt>
  <wgt id="649">3.38222e-12</wgt>
  <wgt id="650">3.27214e-12</wgt>
  <wgt id="651">3.33754e-12</wgt>
  <wgt id="652">3.31542e-12</wgt>
  <wgt id="653">3.23834e-12</wgt>
  <wgt id="654">3.31772e-12</wgt>
  <wgt id="655">3.26911e-12</wgt>
  <wgt id="656">3.34504e-12</wgt>
  <wgt id="657">3.41949e-12</wgt>
  <wgt id="658">3.35789e-12</wgt>
  <wgt id="659">3.20283e-12</wgt>
  <wgt id="660">3.39795e-12</wgt>
  <wgt id="661">3.27422e-12</wgt>
  <wgt id="662">3.32841e-12</wgt>
  <wgt id="663">3.32173e-12</wgt>
  <wgt id="664">3.27409e-12</wgt>
  <wgt id="665">3.3152e-12</wgt>
  <wgt id="666">3.30922e-12</wgt>
  <wgt id="667">3.42735e-12</wgt>
  <wgt id="668">3.31854e-12</wgt>
  <wgt id="669">3.41074e-12</wgt>
  <wgt id="670">3.37919e-12</wgt>
  <wgt id="671">3.28753e-12</wgt>
  <wgt id="672">3.18899e-12</wgt>
  <wgt id="673">3.321e-12</wgt>
  <wgt id="674">3.26571e-12</wgt>
  <wgt id="675">3.27407e-12</wgt>
  <wgt id="676">4.17139e-12</wgt>
  <wgt id="677">4.22115e-12</wgt>
  <wgt id="678">4.35946e-12</wgt>
  <wgt id="679">3.91892e-12</wgt>
  <wgt id="680">4.04723e-12</wgt>
  <wgt id="681">4.28386e-12</wgt>
  <wgt id="682">4.27223e-12</wgt>
  <wgt id="683">4.13064e-12</wgt>
  <wgt id="684">4.35992e-12</wgt>
  <wgt id="685">3.93694e-12</wgt>
  <wgt id="686">4.14098e-12</wgt>
  <wgt id="687">4.37608e-12</wgt>
  <wgt id="688">4.17259e-12</wgt>
  <wgt id="689">4.51589e-12</wgt>
  <wgt id="690">4.40052e-12</wgt>
  <wgt id="691">4.43622e-12</wgt>
  <wgt id="692">4.13672e-12</wgt>
  <wgt id="693">4.84031e-12</wgt>
  <wgt id="694">4.40703e-12</wgt>
  <wgt id="695">4.04248e-12</wgt>
  <wgt id="696">3.9451e-12</wgt>
  <wgt id="697">4.07664e-12</wgt>
  <wgt id="698">3.87796e-12</wgt>
  <wgt id="699">3.8406e-12</wgt>
  <wgt id="700">3.66501e-12</wgt>
  <wgt id="701">4.18692e-12</wgt>
  <wgt id="702">4.00419e-12</wgt>
  <wgt id="703">4.75273e-12</wgt>
  <wgt id="704">4.51201e-12</wgt>
  <wgt id="705">4.3206e-12</wgt>
  <wgt id="706">3.87963e-12</wgt>
  <wgt id="707">4.01151e-12</wgt>
  <wgt id="708">4.12309e-12</wgt>
  <wgt id="709">4.10304e-12</wgt>
  <wgt id="710">3.73203e-12</wgt>
  <wgt id="711">4.15319e-12</wgt>
  <wgt id="712">4.11769e-12</wgt>
  <wgt id="713">4.50324e-12</wgt>
  <wgt id="714">4.13974e-12</wgt>
  <wgt id="715">4.13561e-12</wgt>
  <wgt id="716">4.01107e-12</wgt>
  <wgt id="717">4.008e-12</wgt>
  <wgt id="718">4.12631e-12</wgt>
  <wgt id="719">3.80041e-12</wgt>
  <wgt id="720">3.92155e-12</wgt>
  <wgt id="721">3.90437e-12</wgt>
  <wgt id="722">3.74353e-12</wgt>
  <wgt id="723">4.42628e-12</wgt>
  <wgt id="724">4.35088e-12</wgt>
  <wgt id="725">4.4093e-12</wgt>
  <wgt id="726">4.21927e-12</wgt>
  <wgt id="727">4.07022e-12</wgt>
  <wgt id="728">4.106e-12</wgt>
  <wgt id="729">3.74695e-12</wgt>
  <wgt id="730">4.48082e-12</wgt>
  <wgt id="731">4.12833e-12</wgt>
  <wgt id="732">4.55803e-12</wgt>
  <wgt id="733">4.18733e-12</wgt>
  <wgt id="734">4.27172e-12</wgt>
  <wgt id="735">4.14061e-12</wgt>
  <wgt id="736">4.1114e-12</wgt>
  <wgt id="737">4.24784e-12</wgt>
  <wgt id="738">3.97353e-12</wgt>
  <wgt id="739">4.18766e-12</wgt>
  <wgt id="740">4.61702e-12</wgt>
  <wgt id="741">3.70033e-12</wgt>
  <wgt id="742">4.10261e-12</wgt>
  <wgt id="743">4.01427e-12</wgt>
  <wgt id="744">4.08848e-12</wgt>
  <wgt id="745">4.34686e-12</wgt>
  <wgt id="746">4.40774e-12</wgt>
  <wgt id="747">3.82039e-12</wgt>
  <wgt id="748">4.11705e-12</wgt>
  <wgt id="749">4.40401e-12</wgt>
  <wgt id="750">4.16538e-12</wgt>
  <wgt id="751">4.32154e-12</wgt>
  <wgt id="752">3.83565e-12</wgt>
  <wgt id="753">3.98646e-12</wgt>
  <wgt id="754">4.35644e-12</wgt>
  <wgt id="755">4.19569e-12</wgt>
  <wgt id="756">4.20766e-12</wgt>
  <wgt id="757">3.86083e-12</wgt>
  <wgt id="758">4.22438e-12</wgt>
  <wgt id="759">4.18296e-12</wgt>
  <wgt id="760">4.24163e-12</wgt>
  <wgt id="761">4.38743e-12</wgt>
  <wgt id="762">4.40727e-12</wgt>
  <wgt id="763">4.16382e-12</wgt>
  <wgt id="764">4.32899e-12</wgt>
  <wgt id="765">4.2529e-12</wgt>
  <wgt id="766">4.16002e-12</wgt>
  <wgt id="767">4.2795e-12</wgt>
  <wgt id="768">3.95304e-12</wgt>
  <wgt id="769">4.41958e-12</wgt>
  <wgt id="770">4.03533e-12</wgt>
  <wgt id="771">4.91108e-12</wgt>
  <wgt id="772">3.92693e-12</wgt>
  <wgt id="773">4.14643e-12</wgt>
  <wgt id="774">3.75454e-12</wgt>
  <wgt id="775">4.40002e-12</wgt>
  <wgt id="776">4.55673e-12</wgt>
  <wgt id="777">4.00372e-12</wgt>
  <wgt id="778">3.10084e-12</wgt>
  <wgt id="779">2.62382e-12</wgt>
  <wgt id="780">2.17392e-12</wgt>
  <wgt id="781">3.08801e-12</wgt>
  <wgt id="782">3.27675e-12</wgt>
  <wgt id="783">2.6637e-12</wgt>
  <wgt id="784">2.73977e-12</wgt>
  <wgt id="785">3.72932e-12</wgt>
  <wgt id="786">2.41298e-12</wgt>
  <wgt id="787">3.50242e-12</wgt>
  <wgt id="788">2.0226e-12</wgt>
  <wgt id="789">2.46622e-12</wgt>
  <wgt id="790">2.39235e-12</wgt>
  <wgt id="791">2.86783e-12</wgt>
  <wgt id="792">3.96825e-12</wgt>
  <wgt id="793">3.00469e-12</wgt>
  <wgt id="794">2.41842e-12</wgt>
  <wgt id="795">3.59394e-12</wgt>
  <wgt id="796">4.06299e-12</wgt>
  <wgt id="797">3.55452e-12</wgt>
  <wgt id="798">2.887e-12</wgt>
  <wgt id="799">3.51479e-12</wgt>
  <wgt id="800">2.50157e-12</wgt>
  <wgt id="801">2.91115e-12</wgt>
  <wgt id="802">2.43997e-12</wgt>
  <wgt id="803">3.97272e-12</wgt>
  <wgt id="804">3.56605e-12</wgt>
  <wgt id="805">3.64171e-12</wgt>
  <wgt id="806">3.50158e-12</wgt>
  <wgt id="807">2.95901e-12</wgt>
  <wgt id="808">3.0283e-12</wgt>
  <wgt id="809">2.85546e-12</wgt>
  <wgt id="810">3.54806e-12</wgt>
  <wgt id="811">3.38874e-12</wgt>
  <wgt id="812">2.39339e-12</wgt>
  <wgt id="813">2.43781e-12</wgt>
  <wgt id="814">2.67079e-12</wgt>
  <wgt id="815">2.63168e-12</wgt>
  <wgt id="816">2.29991e-12</wgt>
  <wgt id="817">3.2704e-12</wgt>
  <wgt id="818">3.02867e-12</wgt>
  <wgt id="819">2.623e-12</wgt>
  <wgt id="820">3.11476e-12</wgt>
  <wgt id="821">3.55772e-12</wgt>
  <wgt id="822">2.61507e-12</wgt>
  <wgt id="823">3.56841e-12</wgt>
  <wgt id="824">4.14871e-12</wgt>
  <wgt id="825">2.33149e-12</wgt>
  <wgt id="826">3.24732e-12</wgt>
  <wgt id="827">1.92939e-12</wgt>
  <wgt id="828">3.98123e-12</wgt>
  <wgt id="829">3.22541e-12</wgt>
  <wgt id="830">2.21262e-12</wgt>
  <wgt id="831">3.32588e-12</wgt>
  <wgt id="832">5.05594e-12</wgt>
  <wgt id="833">2.91856e-12</wgt>
  <wgt id="834">4.70441e-12</wgt>
  <wgt id="835">2.52322e-12</wgt>
  <wgt id="836">3.11657e-12</wgt>
  <wgt id="837">3.51276e-12</wgt>
  <wgt id="838">2.98379e-12</wgt>
  <wgt id="839">3.30593e-12</wgt>
  <wgt id="840">2.92028e-12</wgt>
  <wgt id="841">3.78117e-12</wgt>
  <wgt id="842">2.81216e-12</wgt>
  <wgt id="843">3.02641e-12</wgt>
  <wgt id="844">3.22927e-12</wgt>
  <wgt id="845">4.25994e-12</wgt>
  <wgt id="846">2.83035e-12</wgt>
  <wgt id="847">3.11321e-12</wgt>
  <wgt id="848">2.72199e-12</wgt>
  <wgt id="849">3.17611e-12</wgt>
  <wgt id="850">4.00493e-12</wgt>
  <wgt id="851">3.38937e-12</wgt>
  <wgt id="852">2.71218e-12</wgt>
  <wgt id="853">3.37903e-12</wgt>
  <wgt id="854">3.75038e-12</wgt>
  <wgt id="855">3.58287e-12</wgt>
  <wgt id="856">2.27481e-12</wgt>
  <wgt id="857">3.12923e-12</wgt>
  <wgt id="858">3.10673e-12</wgt>
  <wgt id="859">2.87694e-12</wgt>
  <wgt id="860">3.29835e-12</wgt>
  <wgt id="861">2.74759e-12</wgt>
  <wgt id="862">3.1657e-12</wgt>
  <wgt id="863">3.26644e-12</wgt>
  <wgt id="864">3.29883e-12</wgt>
  <wgt id="865">4.41727e-12</wgt>
  <wgt id="866">4.8249e-12</wgt>
  <wgt id="867">3.16128e-12</wgt>
  <wgt id="868">3.07406e-12</wgt>
  <wgt id="869">2.44059e-12</wgt>
  <wgt id="870">2.56143e-12</wgt>
  <wgt id="871">2.48722e-12</wgt>
  <wgt id="872">3.66515e-12</wgt>
  <wgt id="873">2.54896e-12</wgt>
  <wgt id="874">3.254e-12</wgt>
  <wgt id="875">2.70742e-12</wgt>
  <wgt id="876">3.68254e-12</wgt>
  <wgt id="877">3.55336e-12</wgt>
  <wgt id="878">2.69209e-12</wgt>
  <wgt id="879">4.17139e-12</wgt>
  <wgt id="880">4.22115e-12</wgt>
  <wgt id="881">4.35946e-12</wgt>
  <wgt id="882">3.91892e-12</wgt>
  <wgt id="883">4.04723e-12</wgt>
  <wgt id="884">4.28386e-12</wgt>
  <wgt id="885">4.27223e-12</wgt>
  <wgt id="886">4.13064e-12</wgt>
  <wgt id="887">4.35992e-12</wgt>
  <wgt id="888">3.93694e-12</wgt>
  <wgt id="889">4.14098e-12</wgt>
  <wgt id="890">4.37608e-12</wgt>
  <wgt id="891">4.17259e-12</wgt>
  <wgt id="892">4.51589e-12</wgt>
  <wgt id="893">4.40052e-12</wgt>
  <wgt id="894">4.43622e-12</wgt>
  <wgt id="895">4.13672e-12</wgt>
  <wgt id="896">4.84031e-12</wgt>
  <wgt id="897">4.40703e-12</wgt>
  <wgt id="898">4.04248e-12</wgt>
  <wgt id="899">3.9451e-12</wgt>
  <wgt id="900">4.07664e-12</wgt>
  <wgt id="901">3.87796e-12</wgt>
  <wgt id="902">3.8406e-12</wgt>
  <wgt id="903">3.66501e-12</wgt>
  <wgt id="904">4.18692e-12</wgt>
  <wgt id="905">4.00419e-12</wgt>
  <wgt id="906">4.75273e-12</wgt>
  <wgt id="907">4.51201e-12</wgt>
  <wgt id="908">4.3206e-12</wgt>
  <wgt id="909">3.87963e-12</wgt>
  <wgt id="910">4.01151e-12</wgt>
  <wgt id="911">4.12309e-12</wgt>
  <wgt id="912">4.10304e-12</wgt>
  <wgt id="913">3.73203e-12</wgt>
  <wgt id="914">4.15319e-12</wgt>
  <wgt id="915">4.11769e-12</wgt>
  <wgt id="916">4.50324e-12</wgt>
  <wgt id="917">4.13974e-12</wgt>
  <wgt id="918">4.13561e-12</wgt>
  <wgt id="919">4.01107e-12</wgt>
  <wgt id="920">4.008e-12</wgt>
  <wgt id="921">4.12631e-12</wgt>
  <wgt id="922">3.80041e-12</wgt>
  <wgt id="923">3.92155e-12</wgt>
  <wgt id="924">3.90437e-12</wgt>
  <wgt id="925">3.74353e-12</wgt>
  <wgt id="926">4.42628e-12</wgt>
  <wgt id="927">4.35088e-12</wgt>
  <wgt id="928">4.4093e-12</wgt>
  <wgt id="929">4.21927e-12</wgt>
  <wgt id="930">4.07022e-12</wgt>
  <wgt id="931">4.106e-12</wgt>
  <wgt id="932">3.74695e-12</wgt>
  <wgt id="933">4.48082e-12</wgt>
  <wgt id="934">4.12833e-12</wgt>
  <wgt id="935">4.55803e-12</wgt>
  <wgt id="936">4.18733e-12</wgt>
  <wgt id="937">4.27172e-12</wgt>
  <wgt id="938">4.14061e-12</wgt>
  <wgt id="939">4.1114e-12</wgt>
  <wgt id="940">4.24784e-12</wgt>
  <wgt id="941">3.97353e-12</wgt>
  <wgt id="942">4.18766e-12</wgt>
  <wgt id="943">4.61702e-12</wgt>
  <wgt id="944">3.70033e-12</wgt>
  <wgt id="945">4.10261e-12</wgt>
  <wgt id="946">4.01427e-12</wgt>
  <wgt id="947">4.08848e-12</wgt>
  <wgt id="948">4.34686e-12</wgt>
  <wgt id="949">4.40774e-12</wgt>
  <wgt id="950">3.82039e-12</wgt>
  <wgt id="951">4.11705e-12</wgt>
  <wgt id="952">4.40401e-12</wgt>
  <wgt id="953">4.16538e-12</wgt>
  <wgt id="954">4.32154e-12</wgt>
  <wgt id="955">3.83565e-12</wgt>
  <wgt id="956">3.98646e-12</wgt>
  <wgt id="957">4.35644e-12</wgt>
  <wgt id="958">4.19569e-12</wgt>
  <wgt id="959">4.20766e-12</wgt>
  <wgt id="960">3.86083e-12</wgt>
  <wgt id="961">4.22438e-12</wgt>
  <wgt id="962">4.18296e-12</wgt>
  <wgt id="963">4.24163e-12</wgt>
  <wgt id="964">4.38743e-12</wgt>
  <wgt id="965">4.40727e-12</wgt>
  <wgt id="966">4.16382e-12</wgt>
  <wgt id="967">4.32899e-12</wgt>
  <wgt id="968">4.2529e-12</wgt>
  <wgt id="969">4.16002e-12</wgt>
  <wgt id="970">4.2795e-12</wgt>
  <wgt id="971">3.95304e-12</wgt>
  <wgt id="972">4.41958e-12</wgt>
  <wgt id="973">4.03533e-12</wgt>
  <wgt id="974">4.91108e-12</wgt>
  <wgt id="975">3.92693e-12</wgt>
  <wgt id="976">4.14643e-12</wgt>
  <wgt id="977">3.75454e-12</wgt>
  <wgt id="978">4.40002e-12</wgt>
  <wgt id="979">4.55673e-12</wgt>
  <wgt id="980">4.1747e-12</wgt>
  <wgt id="981">4.19219e-12</wgt>
  <wgt id="982">4.05491e-12</wgt>
</rwgt>
</event>
<event>
 5   1  0.3028200E-11  0.2327314E+04  0.7818608E-02  0.7702548E-01
       21   -1    0    0  502  501  0.00000000000E+00  0.00000000000E+00  0.42078662787E+03  0.42078662787E+03  0.00000000000E+00 0.  1.
       21   -1    0    0  501  502 -0.00000000000E+00 -0.00000000000E+00 -0.32180138422E+04  0.32180138422E+04  0.00000000000E+00 0. -1.
       39    2    1    2    0    0  0.00000000000E+00  0.00000000000E+00 -0.27972272143E+04  0.36388004701E+04  0.23273136386E+04 0.  0.
       25    1    3    3    0    0  0.11009222634E+04 -0.20689571762E+03 -0.94644405183E+03  0.14718073961E+04  0.12500000000E+03 0.  0.
       25    1    3    3    0    0 -0.11009222634E+04  0.20689571762E+03 -0.18507831625E+04  0.21669930740E+04  0.12500000000E+03 0.  0.
<mgrwt>
<rscale>  0 0.23273136E+04</rscale>
<asrwt>0</asrwt>
<pdfrwt beam="1">  1       21 0.64736405E-01 0.23273136E+04</pdfrwt>
<pdfrwt beam="2">  1       21 0.49507904E+00 0.23273136E+04</pdfrwt>
<totfact> 0.15275751E+00</totfact>
</mgrwt>
<rwgt>
  <wgt id="1">3.0282e-12</wgt>
  <wgt id="2">2.54649e-12</wgt>
  <wgt id="3">3.6574e-12</wgt>
  <wgt id="4">3.0282e-12</wgt>
  <wgt id="5">2.54649e-12</wgt>
  <wgt id="6">3.6574e-12</wgt>
  <wgt id="7">3.0282e-12</wgt>
  <wgt id="8">2.54649e-12</wgt>
  <wgt id="9">3.6574e-12</wgt>
  <wgt id="10">3.31029e-12</wgt>
  <wgt id="11">3.31501e-12</wgt>
  <wgt id="12">3.30507e-12</wgt>
  <wgt id="13">3.318e-12</wgt>
  <wgt id="14">3.28415e-12</wgt>
  <wgt id="15">3.2966e-12</wgt>
  <wgt id="16">3.30563e-12</wgt>
  <wgt id="17">3.34631e-12</wgt>
  <wgt id="18">3.30806e-12</wgt>
  <wgt id="19">3.32043e-12</wgt>
  <wgt id="20">3.32661e-12</wgt>
  <wgt id="21">3.23627e-12</wgt>
  <wgt id="22">3.27525e-12</wgt>
  <wgt id="23">3.2503e-12</wgt>
  <wgt id="24">3.29408e-12</wgt>
  <wgt id="25">3.32436e-12</wgt>
  <wgt id="26">3.315e-12</wgt>
  <wgt id="27">3.31703e-12</wgt>
  <wgt id="28">3.29233e-12</wgt>
  <wgt id="29">3.31361e-12</wgt>
  <wgt id="30">3.29335e-12</wgt>
  <wgt id="31">3.3209e-12</wgt>
  <wgt id="32">3.27303e-12</wgt>
  <wgt id="33">3.31117e-12</wgt>
  <wgt id="34">3.27917e-12</wgt>
  <wgt id="35">3.26743e-12</wgt>
  <wgt id="36">3.32081e-12</wgt>
  <wgt id="37">3.29342e-12</wgt>
  <wgt id="38">3.28089e-12</wgt>
  <wgt id="39">3.39261e-12</wgt>
  <wgt id="40">3.34498e-12</wgt>
  <wgt id="41">3.29673e-12</wgt>
  <wgt id="42">3.28108e-12</wgt>
  <wgt id="43">3.30311e-12</wgt>
  <wgt id="44">3.33795e-12</wgt>
  <wgt id="45">3.33634e-12</wgt>
  <wgt id="46">3.27851e-12</wgt>
  <wgt id="47">3.39732e-12</wgt>
  <wgt id="48">3.3738e-12</wgt>
  <wgt id="49">3.32161e-12</wgt>
  <wgt id="50">3.27216e-12</wgt>
  <wgt id="51">3.28506e-12</wgt>
  <wgt id="52">3.3179e-12</wgt>
  <wgt id="53">3.44217e-12</wgt>
  <wgt id="54">3.34542e-12</wgt>
  <wgt id="55">3.29168e-12</wgt>
  <wgt id="56">3.18986e-12</wgt>
  <wgt id="57">3.23169e-12</wgt>
  <wgt id="58">3.31268e-12</wgt>
  <wgt id="59">3.35753e-12</wgt>
  <wgt id="60">3.23532e-12</wgt>
  <wgt id="61">3.36413e-12</wgt>
  <wgt id="62">3.37861e-12</wgt>
  <wgt id="63">3.28498e-12</wgt>
  <wgt id="64">3.31304e-12</wgt>
  <wgt id="65">3.30463e-12</wgt>
  <wgt id="66">3.39842e-12</wgt>
  <wgt id="67">3.43066e-12</wgt>
  <wgt id="68">3.31757e-12</wgt>
  <wgt id="69">3.32541e-12</wgt>
  <wgt id="70">3.23796e-12</wgt>
  <wgt id="71">3.38794e-12</wgt>
  <wgt id="72">3.43557e-12</wgt>
  <wgt id="73">3.21412e-12</wgt>
  <wgt id="74">3.35639e-12</wgt>
  <wgt id="75">3.15803e-12</wgt>
  <wgt id="76">3.3043e-12</wgt>
  <wgt id="77">3.27119e-12</wgt>
  <wgt id="78">3.29321e-12</wgt>
  <wgt id="79">3.28527e-12</wgt>
  <wgt id="80">3.34618e-12</wgt>
  <wgt id="81">3.32478e-12</wgt>
  <wgt id="82">3.28591e-12</wgt>
  <wgt id="83">3.29732e-12</wgt>
  <wgt id="84">3.26487e-12</wgt>
  <wgt id="85">3.26525e-12</wgt>
  <wgt id="86">3.36995e-12</wgt>
  <wgt id="87">3.2547e-12</wgt>
  <wgt id="88">3.3052e-12</wgt>
  <wgt id="89">3.31342e-12</wgt>
  <wgt id="90">3.38267e-12</wgt>
  <wgt id="91">3.29674e-12</wgt>
  <wgt id="92">3.31555e-12</wgt>
  <wgt id="93">3.35662e-12</wgt>
  <wgt id="94">3.25159e-12</wgt>
  <wgt id="95">3.43819e-12</wgt>
  <wgt id="96">3.40954e-12</wgt>
  <wgt id="97">3.22618e-12</wgt>
  <wgt id="98">3.29587e-12</wgt>
  <wgt id="99">3.26809e-12</wgt>
  <wgt id="100">3.36372e-12</wgt>
  <wgt id="101">3.25273e-12</wgt>
  <wgt id="102">3.29698e-12</wgt>
  <wgt id="103">3.40647e-12</wgt>
  <wgt id="104">3.27291e-12</wgt>
  <wgt id="105">3.37337e-12</wgt>
  <wgt id="106">3.24921e-12</wgt>
  <wgt id="107">3.44798e-12</wgt>
  <wgt id="108">3.28518e-12</wgt>
  <wgt id="109">3.32034e-12</wgt>
  <wgt id="110">3.29222e-12</wgt>
  <wgt id="111">3.21497e-12</wgt>
  <wgt id="112">3.41079e-12</wgt>
  <wgt id="113">6.06164e-12</wgt>
  <wgt id="114">4.0743e-12</wgt>
  <wgt id="115">4.00693e-12</wgt>
  <wgt id="116">5.45003e-12</wgt>
  <wgt id="117">3.80355e-12</wgt>
  <wgt id="118">3.81973e-12</wgt>
  <wgt id="119">3.79436e-12</wgt>
  <wgt id="120">3.80323e-12</wgt>
  <wgt id="121">3.80368e-12</wgt>
  <wgt id="122">3.79899e-12</wgt>
  <wgt id="123">3.80997e-12</wgt>
  <wgt id="124">3.79931e-12</wgt>
  <wgt id="125">3.80617e-12</wgt>
  <wgt id="126">3.80588e-12</wgt>
  <wgt id="127">3.80207e-12</wgt>
  <wgt id="128">3.8144e-12</wgt>
  <wgt id="129">3.79283e-12</wgt>
  <wgt id="130">3.81369e-12</wgt>
  <wgt id="131">3.7925e-12</wgt>
  <wgt id="132">3.67952e-12</wgt>
  <wgt id="133">3.95349e-12</wgt>
  <wgt id="134">3.76532e-12</wgt>
  <wgt id="135">3.83381e-12</wgt>
  <wgt id="136">3.88985e-12</wgt>
  <wgt id="137">3.70119e-12</wgt>
  <wgt id="138">4.05234e-12</wgt>
  <wgt id="139">3.578e-12</wgt>
  <wgt id="140">3.80543e-12</wgt>
  <wgt id="141">3.80044e-12</wgt>
  <wgt id="142">3.80058e-12</wgt>
  <wgt id="143">3.82561e-12</wgt>
  <wgt id="144">3.51633e-12</wgt>
  <wgt id="145">4.11331e-12</wgt>
  <wgt id="146">3.91119e-12</wgt>
  <wgt id="147">3.71303e-12</wgt>
  <wgt id="148">3.81787e-12</wgt>
  <wgt id="149">3.8027e-12</wgt>
  <wgt id="150">3.83275e-12</wgt>
  <wgt id="151">3.78977e-12</wgt>
  <wgt id="152">3.80155e-12</wgt>
  <wgt id="153">3.80425e-12</wgt>
  <wgt id="154">3.75195e-12</wgt>
  <wgt id="155">3.84051e-12</wgt>
  <wgt id="156">4.09211e-12</wgt>
  <wgt id="157">3.58216e-12</wgt>
  <wgt id="158">4.46021e-12</wgt>
  <wgt id="159">4.48022e-12</wgt>
  <wgt id="160">4.4441e-12</wgt>
  <wgt id="161">4.44788e-12</wgt>
  <wgt id="162">4.47384e-12</wgt>
  <wgt id="163">4.4547e-12</wgt>
  <wgt id="164">4.46857e-12</wgt>
  <wgt id="165">4.46163e-12</wgt>
  <wgt id="166">4.45927e-12</wgt>
  <wgt id="167">4.45756e-12</wgt>
  <wgt id="168">4.46378e-12</wgt>
  <wgt id="169">4.4443e-12</wgt>
  <wgt id="170">4.47021e-12</wgt>
  <wgt id="171">4.46061e-12</wgt>
  <wgt id="172">4.46004e-12</wgt>
  <wgt id="173">4.43328e-12</wgt>
  <wgt id="174">4.46988e-12</wgt>
  <wgt id="175">4.31454e-12</wgt>
  <wgt id="176">4.6528e-12</wgt>
  <wgt id="177">4.46765e-12</wgt>
  <wgt id="178">4.45418e-12</wgt>
  <wgt id="179">4.80518e-12</wgt>
  <wgt id="180">3.96105e-12</wgt>
  <wgt id="181">4.25866e-12</wgt>
  <wgt id="182">4.59849e-12</wgt>
  <wgt id="183">4.33758e-12</wgt>
  <wgt id="184">4.52153e-12</wgt>
  <wgt id="185">4.38586e-12</wgt>
  <wgt id="186">4.55046e-12</wgt>
  <wgt id="187">4.37882e-12</wgt>
  <wgt id="188">4.60017e-12</wgt>
  <wgt id="189">4.41016e-12</wgt>
  <wgt id="190">4.48057e-12</wgt>
  <wgt id="191">4.48664e-12</wgt>
  <wgt id="192">4.44432e-12</wgt>
  <wgt id="193">4.5636e-12</wgt>
  <wgt id="194">4.40717e-12</wgt>
  <wgt id="195">4.15814e-12</wgt>
  <wgt id="196">4.93448e-12</wgt>
  <wgt id="197">4.4849e-12</wgt>
  <wgt id="198">4.45431e-12</wgt>
  <wgt id="199">4.46021e-12</wgt>
  <wgt id="200">4.51569e-12</wgt>
  <wgt id="201">4.49969e-12</wgt>
  <wgt id="202">4.48265e-12</wgt>
  <wgt id="203">4.4626e-12</wgt>
  <wgt id="204">4.45015e-12</wgt>
  <wgt id="205">4.44088e-12</wgt>
  <wgt id="206">4.46729e-12</wgt>
  <wgt id="207">4.49573e-12</wgt>
  <wgt id="208">4.43897e-12</wgt>
  <wgt id="209">4.48005e-12</wgt>
  <wgt id="210">4.45782e-12</wgt>
  <wgt id="211">4.46576e-12</wgt>
  <wgt id="212">4.46848e-12</wgt>
  <wgt id="213">4.46678e-12</wgt>
  <wgt id="214">4.46747e-12</wgt>
  <wgt id="215">4.47065e-12</wgt>
  <wgt id="216">4.46481e-12</wgt>
  <wgt id="217">4.47183e-12</wgt>
  <wgt id="218">4.46353e-12</wgt>
  <wgt id="219">4.46024e-12</wgt>
  <wgt id="220">4.47163e-12</wgt>
  <wgt id="221">4.47661e-12</wgt>
  <wgt id="222">4.44199e-12</wgt>
  <wgt id="223">4.14492e-12</wgt>
  <wgt id="224">4.76655e-12</wgt>
  <wgt id="225">4.40863e-12</wgt>
  <wgt id="226">4.5429e-12</wgt>
  <wgt id="227">4.42106e-12</wgt>
  <wgt id="228">4.4875e-12</wgt>
  <wgt id="229">4.39161e-12</wgt>
  <wgt id="230">4.50463e-12</wgt>
  <wgt id="231">4.69323e-12</wgt>
  <wgt id="232">4.28605e-12</wgt>
  <wgt id="233">4.41331e-12</wgt>
  <wgt id="234">4.5585e-12</wgt>
  <wgt id="235">4.02391e-12</wgt>
  <wgt id="236">4.82913e-12</wgt>
  <wgt id="237">4.22967e-12</wgt>
  <wgt id="238">4.54718e-12</wgt>
  <wgt id="239">4.37513e-12</wgt>
  <wgt id="240">4.63377e-12</wgt>
  <wgt id="241">4.38538e-12</wgt>
  <wgt id="242">4.56017e-12</wgt>
  <wgt id="243">4.61885e-12</wgt>
  <wgt id="244">4.4156e-12</wgt>
  <wgt id="245">4.4697e-12</wgt>
  <wgt id="246">4.47088e-12</wgt>
  <wgt id="247">4.46729e-12</wgt>
  <wgt id="248">4.5364e-12</wgt>
  <wgt id="249">4.51521e-12</wgt>
  <wgt id="250">4.48574e-12</wgt>
  <wgt id="251">4.45708e-12</wgt>
  <wgt id="252">4.43718e-12</wgt>
  <wgt id="253">4.42528e-12</wgt>
  <wgt id="254">4.16226e-12</wgt>
  <wgt id="255">4.16552e-12</wgt>
  <wgt id="256">4.15868e-12</wgt>
  <wgt id="257">4.16556e-12</wgt>
  <wgt id="258">4.15968e-12</wgt>
  <wgt id="259">4.19059e-12</wgt>
  <wgt id="260">4.13476e-12</wgt>
  <wgt id="261">4.17004e-12</wgt>
  <wgt id="262">4.15277e-12</wgt>
  <wgt id="263">4.157e-12</wgt>
  <wgt id="264">4.1685e-12</wgt>
  <wgt id="265">4.15696e-12</wgt>
  <wgt id="266">4.17251e-12</wgt>
  <wgt id="267">4.16333e-12</wgt>
  <wgt id="268">4.16085e-12</wgt>
  <wgt id="269">4.17281e-12</wgt>
  <wgt id="270">4.15498e-12</wgt>
  <wgt id="271">4.139e-12</wgt>
  <wgt id="272">4.1883e-12</wgt>
  <wgt id="273">4.15451e-12</wgt>
  <wgt id="274">4.168e-12</wgt>
  <wgt id="275">4.11646e-12</wgt>
  <wgt id="276">4.20995e-12</wgt>
  <wgt id="277">4.1457e-12</wgt>
  <wgt id="278">4.17709e-12</wgt>
  <wgt id="279">4.0812e-12</wgt>
  <wgt id="280">4.26517e-12</wgt>
  <wgt id="281">4.12041e-12</wgt>
  <wgt id="282">4.20626e-12</wgt>
  <wgt id="283">3.97074e-12</wgt>
  <wgt id="284">4.41106e-12</wgt>
  <wgt id="285">3.84707e-12</wgt>
  <wgt id="286">4.44332e-12</wgt>
  <wgt id="287">4.18094e-12</wgt>
  <wgt id="288">4.13869e-12</wgt>
  <wgt id="289">4.20801e-12</wgt>
  <wgt id="290">4.06768e-12</wgt>
  <wgt id="291">4.1411e-12</wgt>
  <wgt id="292">4.14726e-12</wgt>
  <wgt id="293">4.1112e-12</wgt>
  <wgt id="294">4.21328e-12</wgt>
  <wgt id="295">4.03643e-12</wgt>
  <wgt id="296">4.3162e-12</wgt>
  <wgt id="297">4.11711e-12</wgt>
  <wgt id="298">4.20015e-12</wgt>
  <wgt id="299">4.14501e-12</wgt>
  <wgt id="300">4.20811e-12</wgt>
  <wgt id="301">3.9878e-12</wgt>
  <wgt id="302">4.53716e-12</wgt>
  <wgt id="303">4.06852e-12</wgt>
  <wgt id="304">4.21356e-12</wgt>
  <wgt id="305">3.98014e-12</wgt>
  <wgt id="306">3.98314e-12</wgt>
  <wgt id="307">3.97687e-12</wgt>
  <wgt id="308">3.98363e-12</wgt>
  <wgt id="309">3.97781e-12</wgt>
  <wgt id="310">4.00744e-12</wgt>
  <wgt id="311">3.95487e-12</wgt>
  <wgt id="312">3.9893e-12</wgt>
  <wgt id="313">3.9704e-12</wgt>
  <wgt id="314">3.97405e-12</wgt>
  <wgt id="315">3.98629e-12</wgt>
  <wgt id="316">3.97442e-12</wgt>
  <wgt id="317">3.99274e-12</wgt>
  <wgt id="318">3.98281e-12</wgt>
  <wgt id="319">3.97557e-12</wgt>
  <wgt id="320">3.99222e-12</wgt>
  <wgt id="321">3.97365e-12</wgt>
  <wgt id="322">3.95878e-12</wgt>
  <wgt id="323">4.00547e-12</wgt>
  <wgt id="324">3.97827e-12</wgt>
  <wgt id="325">3.98203e-12</wgt>
  <wgt id="326">3.9417e-12</wgt>
  <wgt id="327">4.03001e-12</wgt>
  <wgt id="328">3.97257e-12</wgt>
  <wgt id="329">3.98326e-12</wgt>
  <wgt id="330">4.0936e-12</wgt>
  <wgt id="331">3.87332e-12</wgt>
  <wgt id="332">3.94388e-12</wgt>
  <wgt id="333">4.01322e-12</wgt>
  <wgt id="334">3.84739e-12</wgt>
  <wgt id="335">4.15228e-12</wgt>
  <wgt id="336">3.77319e-12</wgt>
  <wgt id="337">4.24892e-12</wgt>
  <wgt id="338">4.04281e-12</wgt>
  <wgt id="339">3.92441e-12</wgt>
  <wgt id="340">4.0161e-12</wgt>
  <wgt id="341">3.89739e-12</wgt>
  <wgt id="342">3.96995e-12</wgt>
  <wgt id="343">3.95108e-12</wgt>
  <wgt id="344">3.93988e-12</wgt>
  <wgt id="345">4.02728e-12</wgt>
  <wgt id="346">3.85923e-12</wgt>
  <wgt id="347">4.1161e-12</wgt>
  <wgt id="348">3.93394e-12</wgt>
  <wgt id="349">4.01688e-12</wgt>
  <wgt id="350">3.96052e-12</wgt>
  <wgt id="351">4.03109e-12</wgt>
  <wgt id="352">3.82318e-12</wgt>
  <wgt id="353">4.30009e-12</wgt>
  <wgt id="354">3.86233e-12</wgt>
  <wgt id="355">4.04787e-12</wgt>
  <wgt id="356">4.16226e-12</wgt>
  <wgt id="357">3.94619e-12</wgt>
  <wgt id="358">3.98014e-12</wgt>
  <wgt id="359">4.11272e-12</wgt>
  <wgt id="360">4.37441e-12</wgt>
  <wgt id="361">4.20863e-12</wgt>
  <wgt id="362">4.33701e-12</wgt>
  <wgt id="363">4.32147e-12</wgt>
  <wgt id="364">4.27898e-12</wgt>
  <wgt id="365">4.25548e-12</wgt>
  <wgt id="366">4.23464e-12</wgt>
  <wgt id="367">4.2024e-12</wgt>
  <wgt id="368">4.17445e-12</wgt>
  <wgt id="369">4.14424e-12</wgt>
  <wgt id="370">4.20863e-12</wgt>
  <wgt id="371">4.22222e-12</wgt>
  <wgt id="372">4.21411e-12</wgt>
  <wgt id="373">4.20515e-12</wgt>
  <wgt id="374">4.22885e-12</wgt>
  <wgt id="375">6.15632e-12</wgt>
  <wgt id="376">6.15631e-12</wgt>
  <wgt id="377">6.15672e-12</wgt>
  <wgt id="378">6.18386e-12</wgt>
  <wgt id="379">6.12919e-12</wgt>
  <wgt id="380">6.17671e-12</wgt>
  <wgt id="381">6.1482e-12</wgt>
  <wgt id="382">6.17387e-12</wgt>
  <wgt id="383">6.1392e-12</wgt>
  <wgt id="384">6.16109e-12</wgt>
  <wgt id="385">6.15195e-12</wgt>
  <wgt id="386">6.15852e-12</wgt>
  <wgt id="387">6.15559e-12</wgt>
  <wgt id="388">6.15285e-12</wgt>
  <wgt id="389">6.16069e-12</wgt>
  <wgt id="390">6.16127e-12</wgt>
  <wgt id="391">6.15135e-12</wgt>
  <wgt id="392">6.08521e-12</wgt>
  <wgt id="393">6.19683e-12</wgt>
  <wgt id="394">6.15019e-12</wgt>
  <wgt id="395">6.16477e-12</wgt>
  <wgt id="396">6.17652e-12</wgt>
  <wgt id="397">6.14212e-12</wgt>
  <wgt id="398">6.17189e-12</wgt>
  <wgt id="399">6.14189e-12</wgt>
  <wgt id="400">6.14325e-12</wgt>
  <wgt id="401">6.18781e-12</wgt>
  <wgt id="402">6.05351e-12</wgt>
  <wgt id="403">6.26125e-12</wgt>
  <wgt id="404">6.47367e-12</wgt>
  <wgt id="405">5.43158e-12</wgt>
  <wgt id="406">5.92617e-12</wgt>
  <wgt id="407">6.68691e-12</wgt>
  <wgt id="408">6.27684e-12</wgt>
  <wgt id="409">5.94188e-12</wgt>
  <wgt id="410">5.79125e-12</wgt>
  <wgt id="411">6.34065e-12</wgt>
  <wgt id="412">6.13117e-12</wgt>
  <wgt id="413">6.19165e-12</wgt>
  <wgt id="414">6.01587e-12</wgt>
  <wgt id="415">6.26596e-12</wgt>
  <wgt id="416">6.55477e-12</wgt>
  <wgt id="417">5.62832e-12</wgt>
  <wgt id="418">6.18119e-12</wgt>
  <wgt id="419">6.0229e-12</wgt>
  <wgt id="420">6.53246e-12</wgt>
  <wgt id="421">5.88893e-12</wgt>
  <wgt id="422">6.01319e-12</wgt>
  <wgt id="423">6.21901e-12</wgt>
  <wgt id="424">6.57655e-12</wgt>
  <wgt id="425">5.85954e-12</wgt>
  <wgt id="426">6.15632e-12</wgt>
  <wgt id="427">5.7881e-12</wgt>
  <wgt id="428">6.89399e-12</wgt>
  <wgt id="429">6.34695e-12</wgt>
  <wgt id="430">6.7205e-12</wgt>
  <wgt id="431">6.63563e-12</wgt>
  <wgt id="432">6.56921e-12</wgt>
  <wgt id="433">6.50396e-12</wgt>
  <wgt id="434">6.41335e-12</wgt>
  <wgt id="435">6.26599e-12</wgt>
  <wgt id="436">6.19562e-12</wgt>
  <wgt id="437">6.12273e-12</wgt>
  <wgt id="438">6.34695e-12</wgt>
  <wgt id="439">6.36236e-12</wgt>
  <wgt id="440">6.35027e-12</wgt>
  <wgt id="441">6.34652e-12</wgt>
  <wgt id="442">6.34704e-12</wgt>
  <wgt id="443">4.15164e-12</wgt>
  <wgt id="444">4.2368e-12</wgt>
  <wgt id="445">4.30698e-12</wgt>
  <wgt id="446">4.13461e-12</wgt>
  <wgt id="447">4.12442e-12</wgt>
  <wgt id="448">4.08353e-12</wgt>
  <wgt id="449">4.33717e-12</wgt>
  <wgt id="450">4.28123e-12</wgt>
  <wgt id="451">4.14118e-12</wgt>
  <wgt id="452">4.2238e-12</wgt>
  <wgt id="453">4.34295e-12</wgt>
  <wgt id="454">3.82278e-12</wgt>
  <wgt id="455">4.25402e-12</wgt>
  <wgt id="456">4.3309e-12</wgt>
  <wgt id="457">4.16024e-12</wgt>
  <wgt id="458">4.25899e-12</wgt>
  <wgt id="459">4.18563e-12</wgt>
  <wgt id="460">4.36712e-12</wgt>
  <wgt id="461">3.9944e-12</wgt>
  <wgt id="462">4.11389e-12</wgt>
  <wgt id="463">4.04722e-12</wgt>
  <wgt id="464">4.16668e-12</wgt>
  <wgt id="465">4.18527e-12</wgt>
  <wgt id="466">3.89396e-12</wgt>
  <wgt id="467">4.14095e-12</wgt>
  <wgt id="468">4.18631e-12</wgt>
  <wgt id="469">4.13043e-12</wgt>
  <wgt id="470">4.03096e-12</wgt>
  <wgt id="471">4.05434e-12</wgt>
  <wgt id="472">4.18004e-12</wgt>
  <wgt id="473">3.97163e-12</wgt>
  <wgt id="474">3.0282e-12</wgt>
  <wgt id="475">3.17544e-12</wgt>
  <wgt id="476">3.29681e-12</wgt>
  <wgt id="477">3.70202e-12</wgt>
  <wgt id="478">3.48651e-12</wgt>
  <wgt id="479">2.49372e-12</wgt>
  <wgt id="480">3.38397e-12</wgt>
  <wgt id="481">3.26115e-12</wgt>
  <wgt id="482">3.89386e-12</wgt>
  <wgt id="483">3.08358e-12</wgt>
  <wgt id="484">3.66316e-12</wgt>
  <wgt id="485">2.98335e-12</wgt>
  <wgt id="486">3.33687e-12</wgt>
  <wgt id="487">2.82432e-12</wgt>
  <wgt id="488">2.34925e-12</wgt>
  <wgt id="489">1.90528e-12</wgt>
  <wgt id="490">3.39235e-12</wgt>
  <wgt id="491">3.0672e-12</wgt>
  <wgt id="492">3.12319e-12</wgt>
  <wgt id="493">2.03907e-12</wgt>
  <wgt id="494">2.10628e-12</wgt>
  <wgt id="495">3.56757e-12</wgt>
  <wgt id="496">2.04123e-12</wgt>
  <wgt id="497">2.84948e-12</wgt>
  <wgt id="498">3.08987e-12</wgt>
  <wgt id="499">3.05022e-12</wgt>
  <wgt id="500">3.72583e-12</wgt>
  <wgt id="501">3.49162e-12</wgt>
  <wgt id="502">3.8448e-12</wgt>
  <wgt id="503">2.96799e-12</wgt>
  <wgt id="504">3.17441e-12</wgt>
  <wgt id="505">3.596e-12</wgt>
  <wgt id="506">2.43241e-12</wgt>
  <wgt id="507">2.70442e-12</wgt>
  <wgt id="508">3.17656e-12</wgt>
  <wgt id="509">3.42032e-12</wgt>
  <wgt id="510">2.54435e-12</wgt>
  <wgt id="511">2.95559e-12</wgt>
  <wgt id="512">3.19871e-12</wgt>
  <wgt id="513">3.82912e-12</wgt>
  <wgt id="514">3.48237e-12</wgt>
  <wgt id="515">3.88128e-12</wgt>
  <wgt id="516">3.61412e-12</wgt>
  <wgt id="517">3.03825e-12</wgt>
  <wgt id="518">3.59389e-12</wgt>
  <wgt id="519">3.24086e-12</wgt>
  <wgt id="520">2.25971e-12</wgt>
  <wgt id="521">2.75904e-12</wgt>
  <wgt id="522">2.86403e-12</wgt>
  <wgt id="523">3.28911e-12</wgt>
  <wgt id="524">2.70071e-12</wgt>
  <wgt id="525">3.2225e-12</wgt>
  <wgt id="526">3.33569e-12</wgt>
  <wgt id="527">3.1529e-12</wgt>
  <wgt id="528">2.35146e-12</wgt>
  <wgt id="529">1.81461e-12</wgt>
  <wgt id="530">3.46548e-12</wgt>
  <wgt id="531">2.87434e-12</wgt>
  <wgt id="532">3.09729e-12</wgt>
  <wgt id="533">3.28437e-12</wgt>
  <wgt id="534">2.42761e-12</wgt>
  <wgt id="535">3.59625e-12</wgt>
  <wgt id="536">3.64227e-12</wgt>
  <wgt id="537">2.33089e-12</wgt>
  <wgt id="538">2.87345e-12</wgt>
  <wgt id="539">3.08428e-12</wgt>
  <wgt id="540">2.64186e-12</wgt>
  <wgt id="541">3.08252e-12</wgt>
  <wgt id="542">2.26381e-12</wgt>
  <wgt id="543">2.45514e-12</wgt>
  <wgt id="544">2.75313e-12</wgt>
  <wgt id="545">2.59919e-12</wgt>
  <wgt id="546">2.71245e-12</wgt>
  <wgt id="547">2.67205e-12</wgt>
  <wgt id="548">3.69048e-12</wgt>
  <wgt id="549">2.89829e-12</wgt>
  <wgt id="550">2.08353e-12</wgt>
  <wgt id="551">2.34386e-12</wgt>
  <wgt id="552">3.71766e-12</wgt>
  <wgt id="553">2.62842e-12</wgt>
  <wgt id="554">2.73733e-12</wgt>
  <wgt id="555">2.87267e-12</wgt>
  <wgt id="556">3.39235e-12</wgt>
  <wgt id="557">2.71346e-12</wgt>
  <wgt id="558">2.9029e-12</wgt>
  <wgt id="559">3.17237e-12</wgt>
  <wgt id="560">3.07714e-12</wgt>
  <wgt id="561">3.61517e-12</wgt>
  <wgt id="562">3.2672e-12</wgt>
  <wgt id="563">3.19532e-12</wgt>
  <wgt id="564">3.69479e-12</wgt>
  <wgt id="565">3.7902e-12</wgt>
  <wgt id="566">2.21204e-12</wgt>
  <wgt id="567">3.43387e-12</wgt>
  <wgt id="568">2.21177e-12</wgt>
  <wgt id="569">3.20534e-12</wgt>
  <wgt id="570">3.20291e-12</wgt>
  <wgt id="571">3.59363e-12</wgt>
  <wgt id="572">2.31956e-12</wgt>
  <wgt id="573">2.9883e-12</wgt>
  <wgt id="574">3.19581e-12</wgt>
  <wgt id="575">3.01865e-12</wgt>
  <wgt id="576">3.22893e-12</wgt>
  <wgt id="577">3.14121e-12</wgt>
  <wgt id="578">1.91413e-12</wgt>
  <wgt id="579">3.14213e-12</wgt>
  <wgt id="580">3.0206e-12</wgt>
  <wgt id="581">3.66477e-12</wgt>
  <wgt id="582">2.74129e-12</wgt>
  <wgt id="583">3.49143e-12</wgt>
  <wgt id="584">3.31471e-12</wgt>
  <wgt id="585">2.85163e-12</wgt>
  <wgt id="586">2.70972e-12</wgt>
  <wgt id="587">3.03728e-12</wgt>
  <wgt id="588">4.31326e-12</wgt>
  <wgt id="589">3.65193e-12</wgt>
  <wgt id="590">3.30463e-12</wgt>
  <wgt id="591">3.30279e-12</wgt>
  <wgt id="592">3.52798e-12</wgt>
  <wgt id="593">3.16269e-12</wgt>
  <wgt id="594">3.10788e-12</wgt>
  <wgt id="595">3.57198e-12</wgt>
  <wgt id="596">3.23521e-12</wgt>
  <wgt id="597">2.63458e-12</wgt>
  <wgt id="598">4.06296e-12</wgt>
  <wgt id="599">3.62984e-12</wgt>
  <wgt id="600">3.06804e-12</wgt>
  <wgt id="601">2.80947e-12</wgt>
  <wgt id="602">2.22684e-12</wgt>
  <wgt id="603">2.02639e-12</wgt>
  <wgt id="604">3.67249e-12</wgt>
  <wgt id="605">2.76188e-12</wgt>
  <wgt id="606">1.36925e-12</wgt>
  <wgt id="607">3.31398e-12</wgt>
  <wgt id="608">3.01786e-12</wgt>
  <wgt id="609">2.95935e-12</wgt>
  <wgt id="610">2.41033e-12</wgt>
  <wgt id="611">2.62892e-12</wgt>
  <wgt id="612">2.79312e-12</wgt>
  <wgt id="613">2.53771e-12</wgt>
  <wgt id="614">3.40184e-12</wgt>
  <wgt id="615">3.17578e-12</wgt>
  <wgt id="616">2.41126e-12</wgt>
  <wgt id="617">3.03865e-12</wgt>
  <wgt id="618">3.59448e-12</wgt>
  <wgt id="619">2.81091e-12</wgt>
  <wgt id="620">3.19947e-12</wgt>
  <wgt id="621">3.40738e-12</wgt>
  <wgt id="622">3.03728e-12</wgt>
  <wgt id="623">3.04559e-12</wgt>
  <wgt id="624">2.57326e-12</wgt>
  <wgt id="625">2.75282e-12</wgt>
  <wgt id="626">7.08458e-13</wgt>
  <wgt id="627">2.66936e-12</wgt>
  <wgt id="628">3.24418e-12</wgt>
  <wgt id="629">3.80422e-12</wgt>
  <wgt id="630">3.67641e-12</wgt>
  <wgt id="631">3.7841e-12</wgt>
  <wgt id="632">2.80361e-12</wgt>
  <wgt id="633">3.05416e-12</wgt>
  <wgt id="634">2.43132e-12</wgt>
  <wgt id="635">2.99459e-12</wgt>
  <wgt id="636">2.31468e-12</wgt>
  <wgt id="637">2.91382e-12</wgt>
  <wgt id="638">2.77491e-12</wgt>
  <wgt id="639">2.39349e-12</wgt>
  <wgt id="640">2.2592e-12</wgt>
  <wgt id="641">3.70764e-12</wgt>
  <wgt id="642">2.44509e-12</wgt>
  <wgt id="643">2.94359e-12</wgt>
  <wgt id="644">3.19124e-12</wgt>
  <wgt id="645">3.6146e-12</wgt>
  <wgt id="646">2.05748e-12</wgt>
  <wgt id="647">3.61366e-12</wgt>
  <wgt id="648">3.64808e-12</wgt>
  <wgt id="649">3.6737e-12</wgt>
  <wgt id="650">3.20892e-12</wgt>
  <wgt id="651">2.90744e-12</wgt>
  <wgt id="652">2.6044e-12</wgt>
  <wgt id="653">3.06687e-12</wgt>
  <wgt id="654">3.09855e-12</wgt>
  <wgt id="655">2.23138e-12</wgt>
  <wgt id="656">3.63803e-12</wgt>
  <wgt id="657">3.68525e-12</wgt>
  <wgt id="658">2.62264e-12</wgt>
  <wgt id="659">3.35905e-12</wgt>
  <wgt id="660">2.36453e-12</wgt>
  <wgt id="661">2.75409e-12</wgt>
  <wgt id="662">3.26357e-12</wgt>
  <wgt id="663">3.44787e-12</wgt>
  <wgt id="664">3.51632e-12</wgt>
  <wgt id="665">2.63389e-12</wgt>
  <wgt id="666">2.81764e-12</wgt>
  <wgt id="667">2.98981e-12</wgt>
  <wgt id="668">3.05476e-12</wgt>
  <wgt id="669">2.60342e-12</wgt>
  <wgt id="670">3.51785e-12</wgt>
  <wgt id="671">3.01726e-12</wgt>
  <wgt id="672">3.63606e-12</wgt>
  <wgt id="673">3.55422e-12</wgt>
  <wgt id="674">3.06564e-12</wgt>
  <wgt id="675">2.71138e-12</wgt>
  <wgt id="676">4.2878e-12</wgt>
  <wgt id="677">4.2091e-12</wgt>
  <wgt id="678">5.25455e-12</wgt>
  <wgt id="679">4.39112e-12</wgt>
  <wgt id="680">4.68237e-12</wgt>
  <wgt id="681">4.12167e-12</wgt>
  <wgt id="682">5.08473e-12</wgt>
  <wgt id="683">3.84054e-12</wgt>
  <wgt id="684">5.31028e-12</wgt>
  <wgt id="685">4.69209e-12</wgt>
  <wgt id="686">4.71959e-12</wgt>
  <wgt id="687">3.66048e-12</wgt>
  <wgt id="688">4.67524e-12</wgt>
  <wgt id="689">5.92987e-12</wgt>
  <wgt id="690">5.13886e-12</wgt>
  <wgt id="691">5.13662e-12</wgt>
  <wgt id="692">3.65807e-12</wgt>
  <wgt id="693">7.42306e-12</wgt>
  <wgt id="694">5.77931e-12</wgt>
  <wgt id="695">2.95573e-12</wgt>
  <wgt id="696">2.615e-12</wgt>
  <wgt id="697">2.87376e-12</wgt>
  <wgt id="698">2.20543e-12</wgt>
  <wgt id="699">3.5953e-12</wgt>
  <wgt id="700">2.55546e-12</wgt>
  <wgt id="701">4.66308e-12</wgt>
  <wgt id="702">3.80106e-12</wgt>
  <wgt id="703">6.94669e-12</wgt>
  <wgt id="704">5.64978e-12</wgt>
  <wgt id="705">4.2638e-12</wgt>
  <wgt id="706">2.46289e-12</wgt>
  <wgt id="707">3.50331e-12</wgt>
  <wgt id="708">3.78384e-12</wgt>
  <wgt id="709">3.44544e-12</wgt>
  <wgt id="710">8.0728e-13</wgt>
  <wgt id="711">5.15055e-12</wgt>
  <wgt id="712">4.08591e-12</wgt>
  <wgt id="713">4.86856e-12</wgt>
  <wgt id="714">2.86747e-12</wgt>
  <wgt id="715">2.93939e-12</wgt>
  <wgt id="716">3.66282e-12</wgt>
  <wgt id="717">2.27777e-12</wgt>
  <wgt id="718">4.14737e-12</wgt>
  <wgt id="719">3.52004e-12</wgt>
  <wgt id="720">3.45087e-12</wgt>
  <wgt id="721">2.72457e-12</wgt>
  <wgt id="722">4.81175e-13</wgt>
  <wgt id="723">6.35738e-12</wgt>
  <wgt id="724">5.01155e-12</wgt>
  <wgt id="725">5.03176e-12</wgt>
  <wgt id="726">4.36994e-12</wgt>
  <wgt id="727">4.52596e-12</wgt>
  <wgt id="728">6.05022e-12</wgt>
  <wgt id="729">2.40378e-12</wgt>
  <wgt id="730">5.76655e-12</wgt>
  <wgt id="731">4.2187e-12</wgt>
  <wgt id="732">5.3327e-12</wgt>
  <wgt id="733">3.75297e-12</wgt>
  <wgt id="734">4.68393e-12</wgt>
  <wgt id="735">3.30438e-12</wgt>
  <wgt id="736">3.3115e-12</wgt>
  <wgt id="737">1.64524e-12</wgt>
  <wgt id="738">3.44788e-12</wgt>
  <wgt id="739">4.46601e-12</wgt>
  <wgt id="740">6.11605e-12</wgt>
  <wgt id="741">5.44516e-12</wgt>
  <wgt id="742">3.17941e-12</wgt>
  <wgt id="743">3.86251e-12</wgt>
  <wgt id="744">3.92244e-12</wgt>
  <wgt id="745">5.717e-12</wgt>
  <wgt id="746">6.11973e-12</wgt>
  <wgt id="747">3.22239e-12</wgt>
  <wgt id="748">4.25223e-12</wgt>
  <wgt id="749">5.6661e-12</wgt>
  <wgt id="750">5.50721e-12</wgt>
  <wgt id="751">4.84004e-12</wgt>
  <wgt id="752">3.3486e-12</wgt>
  <wgt id="753">3.35571e-12</wgt>
  <wgt id="754">4.30045e-12</wgt>
  <wgt id="755">3.40924e-12</wgt>
  <wgt id="756">3.53775e-12</wgt>
  <wgt id="757">3.45088e-12</wgt>
  <wgt id="758">4.54614e-12</wgt>
  <wgt id="759">4.5095e-12</wgt>
  <wgt id="760">3.10639e-12</wgt>
  <wgt id="761">5.79833e-12</wgt>
  <wgt id="762">5.37305e-12</wgt>
  <wgt id="763">6.60916e-12</wgt>
  <wgt id="764">5.56705e-12</wgt>
  <wgt id="765">5.0126e-12</wgt>
  <wgt id="766">5.44314e-12</wgt>
  <wgt id="767">5.1909e-12</wgt>
  <wgt id="768">3.60788e-12</wgt>
  <wgt id="769">4.63313e-12</wgt>
  <wgt id="770">1.26987e-12</wgt>
  <wgt id="771">7.36939e-12</wgt>
  <wgt id="772">3.89173e-12</wgt>
  <wgt id="773">5.05955e-12</wgt>
  <wgt id="774">3.18191e-12</wgt>
  <wgt id="775">5.24292e-12</wgt>
  <wgt id="776">6.72384e-12</wgt>
  <wgt id="777">2.12583e-12</wgt>
  <wgt id="778">1.7674e-12</wgt>
  <wgt id="779">7.63306e-20</wgt>
  <wgt id="780">7.58959e-20</wgt>
  <wgt id="781">1.07346e-13</wgt>
  <wgt id="782">4.19274e-13</wgt>
  <wgt id="783">7.65131e-20</wgt>
  <wgt id="784">7.68194e-20</wgt>
  <wgt id="785">4.40849e-12</wgt>
  <wgt id="786">7.55662e-20</wgt>
  <wgt id="787">3.6052e-12</wgt>
  <wgt id="788">7.38193e-20</wgt>
  <wgt id="789">8.0433e-20</wgt>
  <wgt id="790">7.55643e-20</wgt>
  <wgt id="791">4.72626e-13</wgt>
  <wgt id="792">1.70374e-12</wgt>
  <wgt id="793">7.74045e-20</wgt>
  <wgt id="794">7.5286e-20</wgt>
  <wgt id="795">3.72228e-12</wgt>
  <wgt id="796">4.44487e-12</wgt>
  <wgt id="797">3.30895e-12</wgt>
  <wgt id="798">7.56028e-20</wgt>
  <wgt id="799">3.89105e-12</wgt>
  <wgt id="800">7.76344e-20</wgt>
  <wgt id="801">2.90138e-12</wgt>
  <wgt id="802">7.69305e-20</wgt>
  <wgt id="803">2.74622e-12</wgt>
  <wgt id="804">3.9618e-12</wgt>
  <wgt id="805">3.90005e-12</wgt>
  <wgt id="806">7.08468e-13</wgt>
  <wgt id="807">7.84564e-20</wgt>
  <wgt id="808">2.65804e-12</wgt>
  <wgt id="809">7.91752e-20</wgt>
  <wgt id="810">6.7178e-12</wgt>
  <wgt id="811">2.55403e-12</wgt>
  <wgt id="812">7.65971e-20</wgt>
  <wgt id="813">7.58905e-20</wgt>
  <wgt id="814">7.41706e-20</wgt>
  <wgt id="815">7.62029e-20</wgt>
  <wgt id="816">7.7276e-20</wgt>
  <wgt id="817">2.3976e-12</wgt>
  <wgt id="818">3.56572e-12</wgt>
  <wgt id="819">7.70173e-20</wgt>
  <wgt id="820">7.81543e-20</wgt>
  <wgt id="821">3.11389e-12</wgt>
  <wgt id="822">7.81124e-20</wgt>
  <wgt id="823">4.1663e-12</wgt>
  <wgt id="824">2.63126e-12</wgt>
  <wgt id="825">7.53247e-20</wgt>
  <wgt id="826">3.9762e-12</wgt>
  <wgt id="827">7.61705e-20</wgt>
  <wgt id="828">2.46899e-12</wgt>
  <wgt id="829">2.04811e-12</wgt>
  <wgt id="830">7.57559e-20</wgt>
  <wgt id="831">3.2119e-12</wgt>
  <wgt id="832">6.21638e-12</wgt>
  <wgt id="833">7.8196e-20</wgt>
  <wgt id="834">6.54933e-12</wgt>
  <wgt id="835">7.69431e-20</wgt>
  <wgt id="836">8.0836e-20</wgt>
  <wgt id="837">3.19619e-12</wgt>
  <wgt id="838">7.6949e-20</wgt>
  <wgt id="839">4.31234e-12</wgt>
  <wgt id="840">4.00348e-13</wgt>
  <wgt id="841">3.63511e-12</wgt>
  <wgt id="842">7.89915e-20</wgt>
  <wgt id="843">3.63792e-13</wgt>
  <wgt id="844">3.20205e-12</wgt>
  <wgt id="845">5.66889e-12</wgt>
  <wgt id="846">8.01022e-20</wgt>
  <wgt id="847">2.72261e-12</wgt>
  <wgt id="848">7.76055e-20</wgt>
  <wgt id="849">3.26865e-12</wgt>
  <wgt id="850">5.05975e-12</wgt>
  <wgt id="851">3.1712e-12</wgt>
  <wgt id="852">7.69956e-20</wgt>
  <wgt id="853">3.32633e-12</wgt>
  <wgt id="854">4.53253e-12</wgt>
  <wgt id="855">1.56559e-12</wgt>
  <wgt id="856">7.55011e-20</wgt>
  <wgt id="857">7.80726e-20</wgt>
  <wgt id="858">2.72696e-12</wgt>
  <wgt id="859">7.82663e-20</wgt>
  <wgt id="860">6.09157e-13</wgt>
  <wgt id="861">7.87866e-20</wgt>
  <wgt id="862">2.41247e-12</wgt>
  <wgt id="863">3.46621e-12</wgt>
  <wgt id="864">1.20507e-12</wgt>
  <wgt id="865">4.99748e-12</wgt>
  <wgt id="866">5.51584e-12</wgt>
  <wgt id="867">2.275e-12</wgt>
  <wgt id="868">3.19351e-12</wgt>
  <wgt id="869">7.60109e-20</wgt>
  <wgt id="870">7.67926e-20</wgt>
  <wgt id="871">7.69481e-20</wgt>
  <wgt id="872">5.67156e-12</wgt>
  <wgt id="873">7.74474e-20</wgt>
  <wgt id="874">3.07954e-12</wgt>
  <wgt id="875">7.61339e-20</wgt>
  <wgt id="876">5.09855e-12</wgt>
  <wgt id="877">3.07821e-12</wgt>
  <wgt id="878">7.76603e-20</wgt>
  <wgt id="879">4.2878e-12</wgt>
  <wgt id="880">4.2091e-12</wgt>
  <wgt id="881">5.25455e-12</wgt>
  <wgt id="882">4.39112e-12</wgt>
  <wgt id="883">4.68237e-12</wgt>
  <wgt id="884">4.12167e-12</wgt>
  <wgt id="885">5.08473e-12</wgt>
  <wgt id="886">3.84054e-12</wgt>
  <wgt id="887">5.31028e-12</wgt>
  <wgt id="888">4.69209e-12</wgt>
  <wgt id="889">4.71959e-12</wgt>
  <wgt id="890">3.66048e-12</wgt>
  <wgt id="891">4.67524e-12</wgt>
  <wgt id="892">5.92987e-12</wgt>
  <wgt id="893">5.13886e-12</wgt>
  <wgt id="894">5.13662e-12</wgt>
  <wgt id="895">3.65807e-12</wgt>
  <wgt id="896">7.42306e-12</wgt>
  <wgt id="897">5.77931e-12</wgt>
  <wgt id="898">2.95573e-12</wgt>
  <wgt id="899">2.615e-12</wgt>
  <wgt id="900">2.87376e-12</wgt>
  <wgt id="901">2.20543e-12</wgt>
  <wgt id="902">3.5953e-12</wgt>
  <wgt id="903">2.55546e-12</wgt>
  <wgt id="904">4.66308e-12</wgt>
  <wgt id="905">3.80106e-12</wgt>
  <wgt id="906">6.94669e-12</wgt>
  <wgt id="907">5.64978e-12</wgt>
  <wgt id="908">4.2638e-12</wgt>
  <wgt id="909">2.46289e-12</wgt>
  <wgt id="910">3.50331e-12</wgt>
  <wgt id="911">3.78384e-12</wgt>
  <wgt id="912">3.44544e-12</wgt>
  <wgt id="913">8.0728e-13</wgt>
  <wgt id="914">5.15055e-12</wgt>
  <wgt id="915">4.08591e-12</wgt>
  <wgt id="916">4.86856e-12</wgt>
  <wgt id="917">2.86747e-12</wgt>
  <wgt id="918">2.93939e-12</wgt>
  <wgt id="919">3.66282e-12</wgt>
  <wgt id="920">2.27777e-12</wgt>
  <wgt id="921">4.14737e-12</wgt>
  <wgt id="922">3.52004e-12</wgt>
  <wgt id="923">3.45087e-12</wgt>
  <wgt id="924">2.72457e-12</wgt>
  <wgt id="925">4.81175e-13</wgt>
  <wgt id="926">6.35738e-12</wgt>
  <wgt id="927">5.01155e-12</wgt>
  <wgt id="928">5.03176e-12</wgt>
  <wgt id="929">4.36994e-12</wgt>
  <wgt id="930">4.52596e-12</wgt>
  <wgt id="931">6.05022e-12</wgt>
  <wgt id="932">2.40378e-12</wgt>
  <wgt id="933">5.76655e-12</wgt>
  <wgt id="934">4.2187e-12</wgt>
  <wgt id="935">5.3327e-12</wgt>
  <wgt id="936">3.75297e-12</wgt>
  <wgt id="937">4.68393e-12</wgt>
  <wgt id="938">3.30438e-12</wgt>
  <wgt id="939">3.3115e-12</wgt>
  <wgt id="940">1.64524e-12</wgt>
  <wgt id="941">3.44788e-12</wgt>
  <wgt id="942">4.46601e-12</wgt>
  <wgt id="943">6.11605e-12</wgt>
  <wgt id="944">5.44516e-12</wgt>
  <wgt id="945">3.17941e-12</wgt>
  <wgt id="946">3.86251e-12</wgt>
  <wgt id="947">3.92244e-12</wgt>
  <wgt id="948">5.717e-12</wgt>
  <wgt id="949">6.11973e-12</wgt>
  <wgt id="950">3.22239e-12</wgt>
  <wgt id="951">4.25223e-12</wgt>
  <wgt id="952">5.6661e-12</wgt>
  <wgt id="953">5.50721e-12</wgt>
  <wgt id="954">4.84004e-12</wgt>
  <wgt id="955">3.3486e-12</wgt>
  <wgt id="956">3.35571e-12</wgt>
  <wgt id="957">4.30045e-12</wgt>
  <wgt id="958">3.40924e-12</wgt>
  <wgt id="959">3.53775e-12</wgt>
  <wgt id="960">3.45088e-12</wgt>
  <wgt id="961">4.54614e-12</wgt>
  <wgt id="962">4.5095e-12</wgt>
  <wgt id="963">3.10639e-12</wgt>
  <wgt id="964">5.79833e-12</wgt>
  <wgt id="965">5.37305e-12</wgt>
  <wgt id="966">6.60916e-12</wgt>
  <wgt id="967">5.56705e-12</wgt>
  <wgt id="968">5.0126e-12</wgt>
  <wgt id="969">5.44314e-12</wgt>
  <wgt id="970">5.1909e-12</wgt>
  <wgt id="971">3.60788e-12</wgt>
  <wgt id="972">4.63313e-12</wgt>
  <wgt id="973">1.26987e-12</wgt>
  <wgt id="974">7.36939e-12</wgt>
  <wgt id="975">3.89173e-12</wgt>
  <wgt id="976">5.05955e-12</wgt>
  <wgt id="977">3.18191e-12</wgt>
  <wgt id="978">5.24292e-12</wgt>
  <wgt id="979">6.72384e-12</wgt>
  <wgt id="980">4.20016e-12</wgt>
  <wgt id="981">4.90532e-12</wgt>
  <wgt id="982">4.58296e-12</wgt>
</rwgt>
</event>
<event>
 5   1  0.3028200E-11  0.1534015E+04  0.7818608E-02  0.8059726E-01
       21   -1    0    0  502  501  0.00000000000E+00  0.00000000000E+00  0.33685439395E+03  0.33685439395E+03  0.00000000000E+00 0.  1.
       21   -1    0    0  501  502 -0.00000000000E+00 -0.00000000000E+00 -0.17464532775E+04  0.17464532775E+04  0.00000000000E+00 0. -1.
       39    2    1    2    0    0  0.00000000000E+00  0.00000000000E+00 -0.14095988836E+04  0.20833076715E+04  0.15340149417E+04 0.  0.
       25    1    3    3    0    0  0.66603232218E+03  0.16713008922E+03 -0.27288894810E+03  0.74941637219E+03  0.12500000000E+03 0.  0.
       25    1    3    3    0    0 -0.66603232218E+03 -0.16713008922E+03 -0.11367099355E+04  0.13338912993E+04  0.12500000000E+03 0.  0.
<mgrwt>
<rscale>  0 0.15340149E+04</rscale>
<asrwt>0</asrwt>
<pdfrwt beam="1">  1       21 0.51823753E-01 0.15340149E+04</pdfrwt>
<pdfrwt beam="2">  1       21 0.26868512E+00 0.15340149E+04</pdfrwt>
<totfact> 0.89210564E+01</totfact>
</mgrwt>
<rwgt>
  <wgt id="1">3.0282e-12</wgt>
  <wgt id="2">2.67074e-12</wgt>
  <wgt id="3">3.46523e-12</wgt>
  <wgt id="4">3.0282e-12</wgt>
  <wgt id="5">2.67074e-12</wgt>
  <wgt id="6">3.46523e-12</wgt>
  <wgt id="7">3.0282e-12</wgt>
  <wgt id="8">2.67074e-12</wgt>
  <wgt id="9">3.46523e-12</wgt>
  <wgt id="10">3.08304e-12</wgt>
  <wgt id="11">3.08064e-12</wgt>
  <wgt id="12">3.07867e-12</wgt>
  <wgt id="13">3.07666e-12</wgt>
  <wgt id="14">3.09419e-12</wgt>
  <wgt id="15">3.08648e-12</wgt>
  <wgt id="16">3.07844e-12</wgt>
  <wgt id="17">3.0888e-12</wgt>
  <wgt id="18">3.07395e-12</wgt>
  <wgt id="19">3.09149e-12</wgt>
  <wgt id="20">3.07959e-12</wgt>
  <wgt id="21">3.0608e-12</wgt>
  <wgt id="22">3.06619e-12</wgt>
  <wgt id="23">3.04962e-12</wgt>
  <wgt id="24">3.06985e-12</wgt>
  <wgt id="25">3.07634e-12</wgt>
  <wgt id="26">3.09265e-12</wgt>
  <wgt id="27">3.08061e-12</wgt>
  <wgt id="28">3.07083e-12</wgt>
  <wgt id="29">3.08459e-12</wgt>
  <wgt id="30">3.07278e-12</wgt>
  <wgt id="31">3.09184e-12</wgt>
  <wgt id="32">3.07833e-12</wgt>
  <wgt id="33">3.09052e-12</wgt>
  <wgt id="34">3.06837e-12</wgt>
  <wgt id="35">3.08338e-12</wgt>
  <wgt id="36">3.10122e-12</wgt>
  <wgt id="37">3.07491e-12</wgt>
  <wgt id="38">3.06902e-12</wgt>
  <wgt id="39">3.11805e-12</wgt>
  <wgt id="40">3.08242e-12</wgt>
  <wgt id="41">3.08439e-12</wgt>
  <wgt id="42">3.07923e-12</wgt>
  <wgt id="43">3.07952e-12</wgt>
  <wgt id="44">3.09537e-12</wgt>
  <wgt id="45">3.09006e-12</wgt>
  <wgt id="46">3.08342e-12</wgt>
  <wgt id="47">3.0946e-12</wgt>
  <wgt id="48">3.0855e-12</wgt>
  <wgt id="49">3.06305e-12</wgt>
  <wgt id="50">3.07434e-12</wgt>
  <wgt id="51">3.08087e-12</wgt>
  <wgt id="52">3.0985e-12</wgt>
  <wgt id="53">3.07519e-12</wgt>
  <wgt id="54">3.08652e-12</wgt>
  <wgt id="55">3.08319e-12</wgt>
  <wgt id="56">3.09007e-12</wgt>
  <wgt id="57">3.0829e-12</wgt>
  <wgt id="58">3.0755e-12</wgt>
  <wgt id="59">3.07874e-12</wgt>
  <wgt id="60">3.07934e-12</wgt>
  <wgt id="61">3.06456e-12</wgt>
  <wgt id="62">3.07331e-12</wgt>
  <wgt id="63">3.07909e-12</wgt>
  <wgt id="64">3.08254e-12</wgt>
  <wgt id="65">3.08334e-12</wgt>
  <wgt id="66">3.08014e-12</wgt>
  <wgt id="67">3.07017e-12</wgt>
  <wgt id="68">3.08284e-12</wgt>
  <wgt id="69">3.08245e-12</wgt>
  <wgt id="70">3.08263e-12</wgt>
  <wgt id="71">3.08045e-12</wgt>
  <wgt id="72">3.07218e-12</wgt>
  <wgt id="73">3.09013e-12</wgt>
  <wgt id="74">3.086e-12</wgt>
  <wgt id="75">3.08222e-12</wgt>
  <wgt id="76">3.09332e-12</wgt>
  <wgt id="77">3.08072e-12</wgt>
  <wgt id="78">3.08098e-12</wgt>
  <wgt id="79">3.09086e-12</wgt>
  <wgt id="80">3.06834e-12</wgt>
  <wgt id="81">3.083e-12</wgt>
  <wgt id="82">3.08393e-12</wgt>
  <wgt id="83">3.0713e-12</wgt>
  <wgt id="84">3.07941e-12</wgt>
  <wgt id="85">3.07527e-12</wgt>
  <wgt id="86">3.09163e-12</wgt>
  <wgt id="87">3.06523e-12</wgt>
  <wgt id="88">3.08666e-12</wgt>
  <wgt id="89">3.0851e-12</wgt>
  <wgt id="90">3.0914e-12</wgt>
  <wgt id="91">3.08617e-12</wgt>
  <wgt id="92">3.08888e-12</wgt>
  <wgt id="93">3.08658e-12</wgt>
  <wgt id="94">3.07976e-12</wgt>
  <wgt id="95">3.09107e-12</wgt>
  <wgt id="96">3.08645e-12</wgt>
  <wgt id="97">3.07551e-12</wgt>
  <wgt id="98">3.08396e-12</wgt>
  <wgt id="99">3.07603e-12</wgt>
  <wgt id="100">3.08879e-12</wgt>
  <wgt id="101">3.08412e-12</wgt>
  <wgt id="102">3.0817e-12</wgt>
  <wgt id="103">3.08879e-12</wgt>
  <wgt id="104">3.08041e-12</wgt>
  <wgt id="105">3.08752e-12</wgt>
  <wgt id="106">3.07786e-12</wgt>
  <wgt id="107">3.09385e-12</wgt>
  <wgt id="108">3.07875e-12</wgt>
  <wgt id="109">3.08565e-12</wgt>
  <wgt id="110">3.08238e-12</wgt>
  <wgt id="111">3.09075e-12</wgt>
  <wgt id="112">3.09992e-12</wgt>
  <wgt id="113">4.06025e-12</wgt>
  <wgt id="114">4.01832e-12</wgt>
  <wgt id="115">3.9428e-12</wgt>
  <wgt id="116">4.88816e-12</wgt>
  <wgt id="117">3.28054e-12</wgt>
  <wgt id="118">3.28814e-12</wgt>
  <wgt id="119">3.27626e-12</wgt>
  <wgt id="120">3.281e-12</wgt>
  <wgt id="121">3.28032e-12</wgt>
  <wgt id="122">3.27467e-12</wgt>
  <wgt id="123">3.28871e-12</wgt>
  <wgt id="124">3.27557e-12</wgt>
  <wgt id="125">3.28372e-12</wgt>
  <wgt id="126">3.28284e-12</wgt>
  <wgt id="127">3.27926e-12</wgt>
  <wgt id="128">3.29059e-12</wgt>
  <wgt id="129">3.27069e-12</wgt>
  <wgt id="130">3.29448e-12</wgt>
  <wgt id="131">3.26611e-12</wgt>
  <wgt id="132">3.20383e-12</wgt>
  <wgt id="133">3.37024e-12</wgt>
  <wgt id="134">3.25127e-12</wgt>
  <wgt id="135">3.30342e-12</wgt>
  <wgt id="136">3.319e-12</wgt>
  <wgt id="137">3.23408e-12</wgt>
  <wgt id="138">3.39618e-12</wgt>
  <wgt id="139">3.16859e-12</wgt>
  <wgt id="140">3.26178e-12</wgt>
  <wgt id="141">3.29481e-12</wgt>
  <wgt id="142">3.28033e-12</wgt>
  <wgt id="143">3.28692e-12</wgt>
  <wgt id="144">3.19485e-12</wgt>
  <wgt id="145">3.35901e-12</wgt>
  <wgt id="146">3.30632e-12</wgt>
  <wgt id="147">3.26e-12</wgt>
  <wgt id="148">3.28971e-12</wgt>
  <wgt id="149">3.27994e-12</wgt>
  <wgt id="150">3.30536e-12</wgt>
  <wgt id="151">3.26902e-12</wgt>
  <wgt id="152">3.28128e-12</wgt>
  <wgt id="153">3.28038e-12</wgt>
  <wgt id="154">3.29833e-12</wgt>
  <wgt id="155">3.2549e-12</wgt>
  <wgt id="156">3.34232e-12</wgt>
  <wgt id="157">3.21439e-12</wgt>
  <wgt id="158">3.94356e-12</wgt>
  <wgt id="159">3.95998e-12</wgt>
  <wgt id="160">3.93019e-12</wgt>
  <wgt id="161">3.9369e-12</wgt>
  <wgt id="162">3.95087e-12</wgt>
  <wgt id="163">3.94084e-12</wgt>
  <wgt id="164">3.94758e-12</wgt>
  <wgt id="165">3.94539e-12</wgt>
  <wgt id="166">3.94224e-12</wgt>
  <wgt id="167">3.9403e-12</wgt>
  <wgt id="168">3.94808e-12</wgt>
  <wgt id="169">3.92477e-12</wgt>
  <wgt id="170">3.95518e-12</wgt>
  <wgt id="171">3.94254e-12</wgt>
  <wgt id="172">3.94506e-12</wgt>
  <wgt id="173">3.93845e-12</wgt>
  <wgt id="174">3.94523e-12</wgt>
  <wgt id="175">3.8542e-12</wgt>
  <wgt id="176">4.0589e-12</wgt>
  <wgt id="177">3.95757e-12</wgt>
  <wgt id="178">3.93063e-12</wgt>
  <wgt id="179">4.09437e-12</wgt>
  <wgt id="180">3.70518e-12</wgt>
  <wgt id="181">3.84235e-12</wgt>
  <wgt id="182">4.01026e-12</wgt>
  <wgt id="183">3.88186e-12</wgt>
  <wgt id="184">3.97399e-12</wgt>
  <wgt id="185">3.91041e-12</wgt>
  <wgt id="186">3.98238e-12</wgt>
  <wgt id="187">3.90444e-12</wgt>
  <wgt id="188">4.01149e-12</wgt>
  <wgt id="189">3.92019e-12</wgt>
  <wgt id="190">3.95302e-12</wgt>
  <wgt id="191">3.95524e-12</wgt>
  <wgt id="192">3.93656e-12</wgt>
  <wgt id="193">3.99133e-12</wgt>
  <wgt id="194">3.91934e-12</wgt>
  <wgt id="195">3.86078e-12</wgt>
  <wgt id="196">4.08446e-12</wgt>
  <wgt id="197">3.9592e-12</wgt>
  <wgt id="198">3.93975e-12</wgt>
  <wgt id="199">3.94356e-12</wgt>
  <wgt id="200">3.97423e-12</wgt>
  <wgt id="201">3.96365e-12</wgt>
  <wgt id="202">3.95339e-12</wgt>
  <wgt id="203">3.93821e-12</wgt>
  <wgt id="204">3.93097e-12</wgt>
  <wgt id="205">3.92465e-12</wgt>
  <wgt id="206">3.87732e-12</wgt>
  <wgt id="207">3.89894e-12</wgt>
  <wgt id="208">3.85598e-12</wgt>
  <wgt id="209">3.88259e-12</wgt>
  <wgt id="210">3.87351e-12</wgt>
  <wgt id="211">3.87726e-12</wgt>
  <wgt id="212">3.87741e-12</wgt>
  <wgt id="213">3.87693e-12</wgt>
  <wgt id="214">3.87775e-12</wgt>
  <wgt id="215">3.87854e-12</wgt>
  <wgt id="216">3.87648e-12</wgt>
  <wgt id="217">3.88388e-12</wgt>
  <wgt id="218">3.87231e-12</wgt>
  <wgt id="219">3.86672e-12</wgt>
  <wgt id="220">3.88376e-12</wgt>
  <wgt id="221">3.87894e-12</wgt>
  <wgt id="222">3.87278e-12</wgt>
  <wgt id="223">3.70307e-12</wgt>
  <wgt id="224">4.03584e-12</wgt>
  <wgt id="225">3.83966e-12</wgt>
  <wgt id="226">3.92494e-12</wgt>
  <wgt id="227">3.84727e-12</wgt>
  <wgt id="228">3.89054e-12</wgt>
  <wgt id="229">3.83301e-12</wgt>
  <wgt id="230">3.89923e-12</wgt>
  <wgt id="231">3.98101e-12</wgt>
  <wgt id="232">3.79192e-12</wgt>
  <wgt id="233">3.85736e-12</wgt>
  <wgt id="234">3.91023e-12</wgt>
  <wgt id="235">3.78015e-12</wgt>
  <wgt id="236">3.96038e-12</wgt>
  <wgt id="237">3.8183e-12</wgt>
  <wgt id="238">3.89714e-12</wgt>
  <wgt id="239">3.85213e-12</wgt>
  <wgt id="240">3.92268e-12</wgt>
  <wgt id="241">3.84181e-12</wgt>
  <wgt id="242">3.91897e-12</wgt>
  <wgt id="243">3.91488e-12</wgt>
  <wgt id="244">3.88176e-12</wgt>
  <wgt id="245">3.87574e-12</wgt>
  <wgt id="246">3.89432e-12</wgt>
  <wgt id="247">3.87732e-12</wgt>
  <wgt id="248">3.90914e-12</wgt>
  <wgt id="249">3.89802e-12</wgt>
  <wgt id="250">3.88681e-12</wgt>
  <wgt id="251">3.87069e-12</wgt>
  <wgt id="252">3.86322e-12</wgt>
  <wgt id="253">3.85769e-12</wgt>
  <wgt id="254">3.76895e-12</wgt>
  <wgt id="255">3.77171e-12</wgt>
  <wgt id="256">3.7661e-12</wgt>
  <wgt id="257">3.7722e-12</wgt>
  <wgt id="258">3.76665e-12</wgt>
  <wgt id="259">3.79298e-12</wgt>
  <wgt id="260">3.74589e-12</wgt>
  <wgt id="261">3.7697e-12</wgt>
  <wgt id="262">3.76835e-12</wgt>
  <wgt id="263">3.76791e-12</wgt>
  <wgt id="264">3.77026e-12</wgt>
  <wgt id="265">3.76652e-12</wgt>
  <wgt id="266">3.77411e-12</wgt>
  <wgt id="267">3.76997e-12</wgt>
  <wgt id="268">3.76779e-12</wgt>
  <wgt id="269">3.77633e-12</wgt>
  <wgt id="270">3.76407e-12</wgt>
  <wgt id="271">3.7594e-12</wgt>
  <wgt id="272">3.77976e-12</wgt>
  <wgt id="273">3.76153e-12</wgt>
  <wgt id="274">3.77475e-12</wgt>
  <wgt id="275">3.75221e-12</wgt>
  <wgt id="276">3.78647e-12</wgt>
  <wgt id="277">3.74885e-12</wgt>
  <wgt id="278">3.78776e-12</wgt>
  <wgt id="279">3.71932e-12</wgt>
  <wgt id="280">3.8314e-12</wgt>
  <wgt id="281">3.757e-12</wgt>
  <wgt id="282">3.77063e-12</wgt>
  <wgt id="283">3.67598e-12</wgt>
  <wgt id="284">3.88359e-12</wgt>
  <wgt id="285">3.60746e-12</wgt>
  <wgt id="286">3.90255e-12</wgt>
  <wgt id="287">3.78058e-12</wgt>
  <wgt id="288">3.75408e-12</wgt>
  <wgt id="289">3.79272e-12</wgt>
  <wgt id="290">3.71582e-12</wgt>
  <wgt id="291">3.75925e-12</wgt>
  <wgt id="292">3.77017e-12</wgt>
  <wgt id="293">3.74275e-12</wgt>
  <wgt id="294">3.79494e-12</wgt>
  <wgt id="295">3.70295e-12</wgt>
  <wgt id="296">3.8495e-12</wgt>
  <wgt id="297">3.77006e-12</wgt>
  <wgt id="298">3.77892e-12</wgt>
  <wgt id="299">3.75886e-12</wgt>
  <wgt id="300">3.79583e-12</wgt>
  <wgt id="301">3.7263e-12</wgt>
  <wgt id="302">3.87278e-12</wgt>
  <wgt id="303">3.74371e-12</wgt>
  <wgt id="304">3.78326e-12</wgt>
  <wgt id="305">3.76631e-12</wgt>
  <wgt id="306">3.76922e-12</wgt>
  <wgt id="307">3.76311e-12</wgt>
  <wgt id="308">3.7697e-12</wgt>
  <wgt id="309">3.76397e-12</wgt>
  <wgt id="310">3.79096e-12</wgt>
  <wgt id="311">3.74338e-12</wgt>
  <wgt id="312">3.76605e-12</wgt>
  <wgt id="313">3.76683e-12</wgt>
  <wgt id="314">3.76498e-12</wgt>
  <wgt id="315">3.7675e-12</wgt>
  <wgt id="316">3.76379e-12</wgt>
  <wgt id="317">3.77171e-12</wgt>
  <wgt id="318">3.76821e-12</wgt>
  <wgt id="319">3.76311e-12</wgt>
  <wgt id="320">3.77406e-12</wgt>
  <wgt id="321">3.76206e-12</wgt>
  <wgt id="322">3.7554e-12</wgt>
  <wgt id="323">3.77908e-12</wgt>
  <wgt id="324">3.76146e-12</wgt>
  <wgt id="325">3.77051e-12</wgt>
  <wgt id="326">3.75221e-12</wgt>
  <wgt id="327">3.78437e-12</wgt>
  <wgt id="328">3.74561e-12</wgt>
  <wgt id="329">3.77858e-12</wgt>
  <wgt id="330">3.84852e-12</wgt>
  <wgt id="331">3.68784e-12</wgt>
  <wgt id="332">3.75646e-12</wgt>
  <wgt id="333">3.76724e-12</wgt>
  <wgt id="334">3.69455e-12</wgt>
  <wgt id="335">3.85551e-12</wgt>
  <wgt id="336">3.65025e-12</wgt>
  <wgt id="337">3.90742e-12</wgt>
  <wgt id="338">3.80543e-12</wgt>
  <wgt id="339">3.73002e-12</wgt>
  <wgt id="340">3.78821e-12</wgt>
  <wgt id="341">3.71147e-12</wgt>
  <wgt id="342">3.75972e-12</wgt>
  <wgt id="343">3.76225e-12</wgt>
  <wgt id="344">3.74263e-12</wgt>
  <wgt id="345">3.79376e-12</wgt>
  <wgt id="346">3.69856e-12</wgt>
  <wgt id="347">3.84386e-12</wgt>
  <wgt id="348">3.76939e-12</wgt>
  <wgt id="349">3.77377e-12</wgt>
  <wgt id="350">3.75346e-12</wgt>
  <wgt id="351">3.79869e-12</wgt>
  <wgt id="352">3.72362e-12</wgt>
  <wgt id="353">3.8688e-12</wgt>
  <wgt id="354">3.73042e-12</wgt>
  <wgt id="355">3.78792e-12</wgt>
  <wgt id="356">3.76895e-12</wgt>
  <wgt id="357">3.77734e-12</wgt>
  <wgt id="358">3.76631e-12</wgt>
  <wgt id="359">3.77806e-12</wgt>
  <wgt id="360">3.80192e-12</wgt>
  <wgt id="361">3.78168e-12</wgt>
  <wgt id="362">3.83607e-12</wgt>
  <wgt id="363">3.82929e-12</wgt>
  <wgt id="364">3.81709e-12</wgt>
  <wgt id="365">3.80652e-12</wgt>
  <wgt id="366">3.79507e-12</wgt>
  <wgt id="367">3.77261e-12</wgt>
  <wgt id="368">3.7586e-12</wgt>
  <wgt id="369">3.74339e-12</wgt>
  <wgt id="370">3.78168e-12</wgt>
  <wgt id="371">3.79571e-12</wgt>
  <wgt id="372">3.78804e-12</wgt>
  <wgt id="373">3.77672e-12</wgt>
  <wgt id="374">3.77843e-12</wgt>
  <wgt id="375">4.10599e-12</wgt>
  <wgt id="376">4.10536e-12</wgt>
  <wgt id="377">4.1066e-12</wgt>
  <wgt id="378">4.12061e-12</wgt>
  <wgt id="379">4.09146e-12</wgt>
  <wgt id="380">4.11773e-12</wgt>
  <wgt id="381">4.10117e-12</wgt>
  <wgt id="382">4.1195e-12</wgt>
  <wgt id="383">4.09244e-12</wgt>
  <wgt id="384">4.1084e-12</wgt>
  <wgt id="385">4.10353e-12</wgt>
  <wgt id="386">4.11411e-12</wgt>
  <wgt id="387">4.10244e-12</wgt>
  <wgt id="388">4.10319e-12</wgt>
  <wgt id="389">4.10924e-12</wgt>
  <wgt id="390">4.11309e-12</wgt>
  <wgt id="391">4.09838e-12</wgt>
  <wgt id="392">4.08187e-12</wgt>
  <wgt id="393">4.11958e-12</wgt>
  <wgt id="394">4.10848e-12</wgt>
  <wgt id="395">4.10224e-12</wgt>
  <wgt id="396">4.10919e-12</wgt>
  <wgt id="397">4.10351e-12</wgt>
  <wgt id="398">4.10744e-12</wgt>
  <wgt id="399">4.10461e-12</wgt>
  <wgt id="400">4.10439e-12</wgt>
  <wgt id="401">4.10825e-12</wgt>
  <wgt id="402">4.08004e-12</wgt>
  <wgt id="403">4.11926e-12</wgt>
  <wgt id="404">4.19092e-12</wgt>
  <wgt id="405">3.90153e-12</wgt>
  <wgt id="406">4.04135e-12</wgt>
  <wgt id="407">4.24683e-12</wgt>
  <wgt id="408">4.1381e-12</wgt>
  <wgt id="409">4.04569e-12</wgt>
  <wgt id="410">4.00257e-12</wgt>
  <wgt id="411">4.15479e-12</wgt>
  <wgt id="412">4.09899e-12</wgt>
  <wgt id="413">4.11582e-12</wgt>
  <wgt id="414">4.06366e-12</wgt>
  <wgt id="415">4.13865e-12</wgt>
  <wgt id="416">4.20414e-12</wgt>
  <wgt id="417">3.96837e-12</wgt>
  <wgt id="418">4.11245e-12</wgt>
  <wgt id="419">4.06981e-12</wgt>
  <wgt id="420">4.15605e-12</wgt>
  <wgt id="421">4.07274e-12</wgt>
  <wgt id="422">4.09753e-12</wgt>
  <wgt id="423">4.11011e-12</wgt>
  <wgt id="424">4.18019e-12</wgt>
  <wgt id="425">4.05447e-12</wgt>
  <wgt id="426">4.10599e-12</wgt>
  <wgt id="427">4.06416e-12</wgt>
  <wgt id="428">4.21429e-12</wgt>
  <wgt id="429">4.14156e-12</wgt>
  <wgt id="430">4.24127e-12</wgt>
  <wgt id="431">4.22173e-12</wgt>
  <wgt id="432">4.20326e-12</wgt>
  <wgt id="433">4.18481e-12</wgt>
  <wgt id="434">4.16223e-12</wgt>
  <wgt id="435">4.1157e-12</wgt>
  <wgt id="436">4.09115e-12</wgt>
  <wgt id="437">4.06815e-12</wgt>
  <wgt id="438">4.14156e-12</wgt>
  <wgt id="439">4.15312e-12</wgt>
  <wgt id="440">4.1463e-12</wgt>
  <wgt id="441">4.13805e-12</wgt>
  <wgt id="442">4.13527e-12</wgt>
  <wgt id="443">3.92301e-12</wgt>
  <wgt id="444">3.95213e-12</wgt>
  <wgt id="445">3.95084e-12</wgt>
  <wgt id="446">3.89093e-12</wgt>
  <wgt id="447">3.92706e-12</wgt>
  <wgt id="448">3.84114e-12</wgt>
  <wgt id="449">3.98005e-12</wgt>
  <wgt id="450">3.95738e-12</wgt>
  <wgt id="451">3.91423e-12</wgt>
  <wgt id="452">3.99207e-12</wgt>
  <wgt id="453">3.95414e-12</wgt>
  <wgt id="454">3.77925e-12</wgt>
  <wgt id="455">3.94368e-12</wgt>
  <wgt id="456">3.96072e-12</wgt>
  <wgt id="457">3.93114e-12</wgt>
  <wgt id="458">3.98803e-12</wgt>
  <wgt id="459">3.95495e-12</wgt>
  <wgt id="460">3.97893e-12</wgt>
  <wgt id="461">3.85185e-12</wgt>
  <wgt id="462">3.90801e-12</wgt>
  <wgt id="463">3.87363e-12</wgt>
  <wgt id="464">3.90865e-12</wgt>
  <wgt id="465">3.95738e-12</wgt>
  <wgt id="466">3.86707e-12</wgt>
  <wgt id="467">3.89486e-12</wgt>
  <wgt id="468">3.91689e-12</wgt>
  <wgt id="469">3.92213e-12</wgt>
  <wgt id="470">3.88085e-12</wgt>
  <wgt id="471">3.88996e-12</wgt>
  <wgt id="472">3.93808e-12</wgt>
  <wgt id="473">3.82894e-12</wgt>
  <wgt id="474">3.0282e-12</wgt>
  <wgt id="475">3.06897e-12</wgt>
  <wgt id="476">2.97095e-12</wgt>
  <wgt id="477">2.95346e-12</wgt>
  <wgt id="478">3.05066e-12</wgt>
  <wgt id="479">2.92954e-12</wgt>
  <wgt id="480">3.19715e-12</wgt>
  <wgt id="481">3.0531e-12</wgt>
  <wgt id="482">3.0102e-12</wgt>
  <wgt id="483">2.97947e-12</wgt>
  <wgt id="484">3.09549e-12</wgt>
  <wgt id="485">2.93411e-12</wgt>
  <wgt id="486">3.19133e-12</wgt>
  <wgt id="487">3.03375e-12</wgt>
  <wgt id="488">3.08007e-12</wgt>
  <wgt id="489">2.87086e-12</wgt>
  <wgt id="490">2.92649e-12</wgt>
  <wgt id="491">3.02571e-12</wgt>
  <wgt id="492">2.99816e-12</wgt>
  <wgt id="493">2.87628e-12</wgt>
  <wgt id="494">2.91555e-12</wgt>
  <wgt id="495">3.04063e-12</wgt>
  <wgt id="496">2.92281e-12</wgt>
  <wgt id="497">2.8821e-12</wgt>
  <wgt id="498">3.09287e-12</wgt>
  <wgt id="499">3.00532e-12</wgt>
  <wgt id="500">2.976e-12</wgt>
  <wgt id="501">3.08654e-12</wgt>
  <wgt id="502">3.06681e-12</wgt>
  <wgt id="503">3.03948e-12</wgt>
  <wgt id="504">3.12866e-12</wgt>
  <wgt id="505">3.02963e-12</wgt>
  <wgt id="506">3.03276e-12</wgt>
  <wgt id="507">3.03008e-12</wgt>
  <wgt id="508">3.12575e-12</wgt>
  <wgt id="509">2.84244e-12</wgt>
  <wgt id="510">3.10539e-12</wgt>
  <wgt id="511">2.95034e-12</wgt>
  <wgt id="512">3.12743e-12</wgt>
  <wgt id="513">3.14869e-12</wgt>
  <wgt id="514">3.08607e-12</wgt>
  <wgt id="515">3.02898e-12</wgt>
  <wgt id="516">3.20188e-12</wgt>
  <wgt id="517">3.07145e-12</wgt>
  <wgt id="518">3.08286e-12</wgt>
  <wgt id="519">2.93104e-12</wgt>
  <wgt id="520">3.10724e-12</wgt>
  <wgt id="521">3.04046e-12</wgt>
  <wgt id="522">3.11686e-12</wgt>
  <wgt id="523">2.98259e-12</wgt>
  <wgt id="524">3.02554e-12</wgt>
  <wgt id="525">3.09665e-12</wgt>
  <wgt id="526">3.09731e-12</wgt>
  <wgt id="527">2.99869e-12</wgt>
  <wgt id="528">3.06904e-12</wgt>
  <wgt id="529">2.95605e-12</wgt>
  <wgt id="530">3.11668e-12</wgt>
  <wgt id="531">2.97765e-12</wgt>
  <wgt id="532">3.17588e-12</wgt>
  <wgt id="533">2.96334e-12</wgt>
  <wgt id="534">3.0179e-12</wgt>
  <wgt id="535">3.03162e-12</wgt>
  <wgt id="536">3.02442e-12</wgt>
  <wgt id="537">2.96637e-12</wgt>
  <wgt id="538">3.01255e-12</wgt>
  <wgt id="539">2.99449e-12</wgt>
  <wgt id="540">3.05012e-12</wgt>
  <wgt id="541">2.93758e-12</wgt>
  <wgt id="542">3.02822e-12</wgt>
  <wgt id="543">3.00739e-12</wgt>
  <wgt id="544">3.0893e-12</wgt>
  <wgt id="545">2.96028e-12</wgt>
  <wgt id="546">2.87984e-12</wgt>
  <wgt id="547">2.97729e-12</wgt>
  <wgt id="548">2.93151e-12</wgt>
  <wgt id="549">2.99816e-12</wgt>
  <wgt id="550">2.95898e-12</wgt>
  <wgt id="551">3.03897e-12</wgt>
  <wgt id="552">2.9094e-12</wgt>
  <wgt id="553">2.95908e-12</wgt>
  <wgt id="554">3.17228e-12</wgt>
  <wgt id="555">3.06659e-12</wgt>
  <wgt id="556">2.92649e-12</wgt>
  <wgt id="557">3.10075e-12</wgt>
  <wgt id="558">2.98544e-12</wgt>
  <wgt id="559">2.96887e-12</wgt>
  <wgt id="560">3.2666e-12</wgt>
  <wgt id="561">3.04646e-12</wgt>
  <wgt id="562">3.143e-12</wgt>
  <wgt id="563">3.13957e-12</wgt>
  <wgt id="564">3.1359e-12</wgt>
  <wgt id="565">2.98665e-12</wgt>
  <wgt id="566">3.06412e-12</wgt>
  <wgt id="567">3.01949e-12</wgt>
  <wgt id="568">2.9835e-12</wgt>
  <wgt id="569">3.11406e-12</wgt>
  <wgt id="570">2.88658e-12</wgt>
  <wgt id="571">3.25251e-12</wgt>
  <wgt id="572">2.99179e-12</wgt>
  <wgt id="573">2.94845e-12</wgt>
  <wgt id="574">2.95451e-12</wgt>
  <wgt id="575">3.28698e-12</wgt>
  <wgt id="576">3.41726e-12</wgt>
  <wgt id="577">3.37277e-12</wgt>
  <wgt id="578">3.40058e-12</wgt>
  <wgt id="579">3.41469e-12</wgt>
  <wgt id="580">3.43629e-12</wgt>
  <wgt id="581">3.53721e-12</wgt>
  <wgt id="582">3.42941e-12</wgt>
  <wgt id="583">3.34501e-12</wgt>
  <wgt id="584">3.28119e-12</wgt>
  <wgt id="585">3.19348e-12</wgt>
  <wgt id="586">3.19349e-12</wgt>
  <wgt id="587">3.35832e-12</wgt>
  <wgt id="588">3.36488e-12</wgt>
  <wgt id="589">3.43443e-12</wgt>
  <wgt id="590">3.29681e-12</wgt>
  <wgt id="591">3.37043e-12</wgt>
  <wgt id="592">3.06076e-12</wgt>
  <wgt id="593">3.23176e-12</wgt>
  <wgt id="594">3.2788e-12</wgt>
  <wgt id="595">3.34533e-12</wgt>
  <wgt id="596">3.49702e-12</wgt>
  <wgt id="597">3.2925e-12</wgt>
  <wgt id="598">3.11301e-12</wgt>
  <wgt id="599">3.45278e-12</wgt>
  <wgt id="600">3.32014e-12</wgt>
  <wgt id="601">3.19557e-12</wgt>
  <wgt id="602">3.20752e-12</wgt>
  <wgt id="603">3.13773e-12</wgt>
  <wgt id="604">3.33423e-12</wgt>
  <wgt id="605">3.34701e-12</wgt>
  <wgt id="606">3.33702e-12</wgt>
  <wgt id="607">3.3053e-12</wgt>
  <wgt id="608">3.38759e-12</wgt>
  <wgt id="609">3.24483e-12</wgt>
  <wgt id="610">3.17282e-12</wgt>
  <wgt id="611">3.2084e-12</wgt>
  <wgt id="612">3.37995e-12</wgt>
  <wgt id="613">3.21955e-12</wgt>
  <wgt id="614">3.31686e-12</wgt>
  <wgt id="615">3.28424e-12</wgt>
  <wgt id="616">3.27788e-12</wgt>
  <wgt id="617">3.40065e-12</wgt>
  <wgt id="618">3.57186e-12</wgt>
  <wgt id="619">3.20508e-12</wgt>
  <wgt id="620">3.42623e-12</wgt>
  <wgt id="621">3.2949e-12</wgt>
  <wgt id="622">3.35832e-12</wgt>
  <wgt id="623">3.36481e-12</wgt>
  <wgt id="624">3.31508e-12</wgt>
  <wgt id="625">3.20321e-12</wgt>
  <wgt id="626">3.11733e-12</wgt>
  <wgt id="627">3.09387e-12</wgt>
  <wgt id="628">3.33771e-12</wgt>
  <wgt id="629">3.26162e-12</wgt>
  <wgt id="630">3.17293e-12</wgt>
  <wgt id="631">3.34016e-12</wgt>
  <wgt id="632">3.09552e-12</wgt>
  <wgt id="633">3.27719e-12</wgt>
  <wgt id="634">3.15454e-12</wgt>
  <wgt id="635">3.07066e-12</wgt>
  <wgt id="636">3.32959e-12</wgt>
  <wgt id="637">3.25315e-12</wgt>
  <wgt id="638">3.16132e-12</wgt>
  <wgt id="639">3.20854e-12</wgt>
  <wgt id="640">3.25675e-12</wgt>
  <wgt id="641">3.38488e-12</wgt>
  <wgt id="642">3.12413e-12</wgt>
  <wgt id="643">3.21952e-12</wgt>
  <wgt id="644">3.01152e-12</wgt>
  <wgt id="645">3.29759e-12</wgt>
  <wgt id="646">3.17757e-12</wgt>
  <wgt id="647">3.2906e-12</wgt>
  <wgt id="648">3.35983e-12</wgt>
  <wgt id="649">3.29564e-12</wgt>
  <wgt id="650">3.18389e-12</wgt>
  <wgt id="651">3.39411e-12</wgt>
  <wgt id="652">3.19498e-12</wgt>
  <wgt id="653">3.1583e-12</wgt>
  <wgt id="654">3.23435e-12</wgt>
  <wgt id="655">3.2815e-12</wgt>
  <wgt id="656">3.32106e-12</wgt>
  <wgt id="657">3.5455e-12</wgt>
  <wgt id="658">3.24352e-12</wgt>
  <wgt id="659">3.17999e-12</wgt>
  <wgt id="660">3.30507e-12</wgt>
  <wgt id="661">3.23059e-12</wgt>
  <wgt id="662">3.28941e-12</wgt>
  <wgt id="663">3.34241e-12</wgt>
  <wgt id="664">3.29932e-12</wgt>
  <wgt id="665">3.27938e-12</wgt>
  <wgt id="666">3.22235e-12</wgt>
  <wgt id="667">3.389e-12</wgt>
  <wgt id="668">3.3047e-12</wgt>
  <wgt id="669">3.31373e-12</wgt>
  <wgt id="670">3.40765e-12</wgt>
  <wgt id="671">3.3218e-12</wgt>
  <wgt id="672">3.17434e-12</wgt>
  <wgt id="673">3.39026e-12</wgt>
  <wgt id="674">3.2298e-12</wgt>
  <wgt id="675">3.27584e-12</wgt>
  <wgt id="676">4.05286e-12</wgt>
  <wgt id="677">4.12093e-12</wgt>
  <wgt id="678">4.26229e-12</wgt>
  <wgt id="679">3.91005e-12</wgt>
  <wgt id="680">4.0806e-12</wgt>
  <wgt id="681">4.03969e-12</wgt>
  <wgt id="682">4.29002e-12</wgt>
  <wgt id="683">3.90518e-12</wgt>
  <wgt id="684">4.19678e-12</wgt>
  <wgt id="685">4.01187e-12</wgt>
  <wgt id="686">3.83233e-12</wgt>
  <wgt id="687">4.07832e-12</wgt>
  <wgt id="688">4.02137e-12</wgt>
  <wgt id="689">4.27341e-12</wgt>
  <wgt id="690">4.07256e-12</wgt>
  <wgt id="691">4.24026e-12</wgt>
  <wgt id="692">3.99403e-12</wgt>
  <wgt id="693">4.82868e-12</wgt>
  <wgt id="694">4.31779e-12</wgt>
  <wgt id="695">3.97373e-12</wgt>
  <wgt id="696">3.99672e-12</wgt>
  <wgt id="697">3.91596e-12</wgt>
  <wgt id="698">3.55462e-12</wgt>
  <wgt id="699">3.69068e-12</wgt>
  <wgt id="700">3.62236e-12</wgt>
  <wgt id="701">4.04709e-12</wgt>
  <wgt id="702">4.06125e-12</wgt>
  <wgt id="703">4.62499e-12</wgt>
  <wgt id="704">4.4201e-12</wgt>
  <wgt id="705">4.39932e-12</wgt>
  <wgt id="706">3.93895e-12</wgt>
  <wgt id="707">3.8834e-12</wgt>
  <wgt id="708">3.91355e-12</wgt>
  <wgt id="709">3.93926e-12</wgt>
  <wgt id="710">3.74831e-12</wgt>
  <wgt id="711">4.04282e-12</wgt>
  <wgt id="712">3.89816e-12</wgt>
  <wgt id="713">4.36958e-12</wgt>
  <wgt id="714">3.83165e-12</wgt>
  <wgt id="715">3.9884e-12</wgt>
  <wgt id="716">3.92313e-12</wgt>
  <wgt id="717">3.78719e-12</wgt>
  <wgt id="718">4.15333e-12</wgt>
  <wgt id="719">3.7303e-12</wgt>
  <wgt id="720">3.97184e-12</wgt>
  <wgt id="721">3.5412e-12</wgt>
  <wgt id="722">3.53966e-12</wgt>
  <wgt id="723">4.35091e-12</wgt>
  <wgt id="724">4.28338e-12</wgt>
  <wgt id="725">4.15773e-12</wgt>
  <wgt id="726">4.02391e-12</wgt>
  <wgt id="727">4.00851e-12</wgt>
  <wgt id="728">3.87361e-12</wgt>
  <wgt id="729">3.96749e-12</wgt>
  <wgt id="730">4.39995e-12</wgt>
  <wgt id="731">3.94785e-12</wgt>
  <wgt id="732">4.4615e-12</wgt>
  <wgt id="733">3.95645e-12</wgt>
  <wgt id="734">4.102e-12</wgt>
  <wgt id="735">4.13243e-12</wgt>
  <wgt id="736">3.88409e-12</wgt>
  <wgt id="737">4.01724e-12</wgt>
  <wgt id="738">3.87849e-12</wgt>
  <wgt id="739">4.27117e-12</wgt>
  <wgt id="740">4.45456e-12</wgt>
  <wgt id="741">3.8792e-12</wgt>
  <wgt id="742">3.99718e-12</wgt>
  <wgt id="743">3.89089e-12</wgt>
  <wgt id="744">3.96799e-12</wgt>
  <wgt id="745">4.20775e-12</wgt>
  <wgt id="746">4.3211e-12</wgt>
  <wgt id="747">3.54922e-12</wgt>
  <wgt id="748">4.03589e-12</wgt>
  <wgt id="749">4.09774e-12</wgt>
  <wgt id="750">4.33833e-12</wgt>
  <wgt id="751">4.06386e-12</wgt>
  <wgt id="752">3.71492e-12</wgt>
  <wgt id="753">3.80246e-12</wgt>
  <wgt id="754">4.2845e-12</wgt>
  <wgt id="755">4.00747e-12</wgt>
  <wgt id="756">4.01212e-12</wgt>
  <wgt id="757">3.67711e-12</wgt>
  <wgt id="758">3.94886e-12</wgt>
  <wgt id="759">4.48473e-12</wgt>
  <wgt id="760">3.9617e-12</wgt>
  <wgt id="761">4.2576e-12</wgt>
  <wgt id="762">4.29429e-12</wgt>
  <wgt id="763">4.00884e-12</wgt>
  <wgt id="764">4.20937e-12</wgt>
  <wgt id="765">4.22016e-12</wgt>
  <wgt id="766">4.05427e-12</wgt>
  <wgt id="767">4.12911e-12</wgt>
  <wgt id="768">3.78725e-12</wgt>
  <wgt id="769">4.25861e-12</wgt>
  <wgt id="770">3.96595e-12</wgt>
  <wgt id="771">4.64311e-12</wgt>
  <wgt id="772">3.95725e-12</wgt>
  <wgt id="773">4.0183e-12</wgt>
  <wgt id="774">3.46768e-12</wgt>
  <wgt id="775">4.25249e-12</wgt>
  <wgt id="776">4.41393e-12</wgt>
  <wgt id="777">3.74496e-12</wgt>
  <wgt id="778">2.93973e-12</wgt>
  <wgt id="779">2.22701e-12</wgt>
  <wgt id="780">1.65043e-12</wgt>
  <wgt id="781">3.42801e-12</wgt>
  <wgt id="782">3.23001e-12</wgt>
  <wgt id="783">2.15109e-12</wgt>
  <wgt id="784">2.40864e-12</wgt>
  <wgt id="785">3.78396e-12</wgt>
  <wgt id="786">2.19251e-12</wgt>
  <wgt id="787">3.44451e-12</wgt>
  <wgt id="788">1.45496e-12</wgt>
  <wgt id="789">2.51375e-12</wgt>
  <wgt id="790">2.13203e-12</wgt>
  <wgt id="791">3.09933e-12</wgt>
  <wgt id="792">3.89507e-12</wgt>
  <wgt id="793">2.89468e-12</wgt>
  <wgt id="794">1.98018e-12</wgt>
  <wgt id="795">3.56992e-12</wgt>
  <wgt id="796">4.00842e-12</wgt>
  <wgt id="797">3.6159e-12</wgt>
  <wgt id="798">2.43388e-12</wgt>
  <wgt id="799">3.34265e-12</wgt>
  <wgt id="800">2.49855e-12</wgt>
  <wgt id="801">2.66916e-12</wgt>
  <wgt id="802">1.97988e-12</wgt>
  <wgt id="803">4.20623e-12</wgt>
  <wgt id="804">3.77658e-12</wgt>
  <wgt id="805">3.49449e-12</wgt>
  <wgt id="806">3.19166e-12</wgt>
  <wgt id="807">2.81308e-12</wgt>
  <wgt id="808">2.74603e-12</wgt>
  <wgt id="809">2.79769e-12</wgt>
  <wgt id="810">3.10516e-12</wgt>
  <wgt id="811">3.06531e-12</wgt>
  <wgt id="812">2.07903e-12</wgt>
  <wgt id="813">2.23645e-12</wgt>
  <wgt id="814">2.45536e-12</wgt>
  <wgt id="815">2.1877e-12</wgt>
  <wgt id="816">2.14573e-12</wgt>
  <wgt id="817">2.91551e-12</wgt>
  <wgt id="818">3.32445e-12</wgt>
  <wgt id="819">2.21123e-12</wgt>
  <wgt id="820">2.85624e-12</wgt>
  <wgt id="821">3.31426e-12</wgt>
  <wgt id="822">2.35364e-12</wgt>
  <wgt id="823">3.47029e-12</wgt>
  <wgt id="824">4.01522e-12</wgt>
  <wgt id="825">1.93858e-12</wgt>
  <wgt id="826">3.31084e-12</wgt>
  <wgt id="827">1.71629e-12</wgt>
  <wgt id="828">3.64157e-12</wgt>
  <wgt id="829">3.0011e-12</wgt>
  <wgt id="830">1.88134e-12</wgt>
  <wgt id="831">3.24296e-12</wgt>
  <wgt id="832">4.8458e-12</wgt>
  <wgt id="833">2.54431e-12</wgt>
  <wgt id="834">4.66767e-12</wgt>
  <wgt id="835">2.39356e-12</wgt>
  <wgt id="836">2.80494e-12</wgt>
  <wgt id="837">3.29928e-12</wgt>
  <wgt id="838">2.64632e-12</wgt>
  <wgt id="839">3.20891e-12</wgt>
  <wgt id="840">2.62257e-12</wgt>
  <wgt id="841">3.7761e-12</wgt>
  <wgt id="842">2.76324e-12</wgt>
  <wgt id="843">3.10052e-12</wgt>
  <wgt id="844">3.10933e-12</wgt>
  <wgt id="845">4.73102e-12</wgt>
  <wgt id="846">3.14139e-12</wgt>
  <wgt id="847">3.12723e-12</wgt>
  <wgt id="848">2.24908e-12</wgt>
  <wgt id="849">3.04935e-12</wgt>
  <wgt id="850">3.92481e-12</wgt>
  <wgt id="851">3.26452e-12</wgt>
  <wgt id="852">2.17998e-12</wgt>
  <wgt id="853">3.34095e-12</wgt>
  <wgt id="854">3.6996e-12</wgt>
  <wgt id="855">3.27136e-12</wgt>
  <wgt id="856">1.88265e-12</wgt>
  <wgt id="857">2.72963e-12</wgt>
  <wgt id="858">2.75724e-12</wgt>
  <wgt id="859">2.8228e-12</wgt>
  <wgt id="860">3.4235e-12</wgt>
  <wgt id="861">2.54967e-12</wgt>
  <wgt id="862">2.93234e-12</wgt>
  <wgt id="863">3.20572e-12</wgt>
  <wgt id="864">3.11976e-12</wgt>
  <wgt id="865">4.09778e-12</wgt>
  <wgt id="866">4.543e-12</wgt>
  <wgt id="867">2.99201e-12</wgt>
  <wgt id="868">2.82564e-12</wgt>
  <wgt id="869">2.11025e-12</wgt>
  <wgt id="870">2.24527e-12</wgt>
  <wgt id="871">2.20319e-12</wgt>
  <wgt id="872">3.68433e-12</wgt>
  <wgt id="873">2.47813e-12</wgt>
  <wgt id="874">3.12426e-12</wgt>
  <wgt id="875">2.50799e-12</wgt>
  <wgt id="876">3.5899e-12</wgt>
  <wgt id="877">3.24931e-12</wgt>
  <wgt id="878">2.40452e-12</wgt>
  <wgt id="879">4.05286e-12</wgt>
  <wgt id="880">4.12093e-12</wgt>
  <wgt id="881">4.26229e-12</wgt>
  <wgt id="882">3.91005e-12</wgt>
  <wgt id="883">4.0806e-12</wgt>
  <wgt id="884">4.03969e-12</wgt>
  <wgt id="885">4.29002e-12</wgt>
  <wgt id="886">3.90518e-12</wgt>
  <wgt id="887">4.19678e-12</wgt>
  <wgt id="888">4.01187e-12</wgt>
  <wgt id="889">3.83233e-12</wgt>
  <wgt id="890">4.07832e-12</wgt>
  <wgt id="891">4.02137e-12</wgt>
  <wgt id="892">4.27341e-12</wgt>
  <wgt id="893">4.07256e-12</wgt>
  <wgt id="894">4.24026e-12</wgt>
  <wgt id="895">3.99403e-12</wgt>
  <wgt id="896">4.82868e-12</wgt>
  <wgt id="897">4.31779e-12</wgt>
  <wgt id="898">3.97373e-12</wgt>
  <wgt id="899">3.99672e-12</wgt>
  <wgt id="900">3.91596e-12</wgt>
  <wgt id="901">3.55462e-12</wgt>
  <wgt id="902">3.69068e-12</wgt>
  <wgt id="903">3.62236e-12</wgt>
  <wgt id="904">4.04709e-12</wgt>
  <wgt id="905">4.06125e-12</wgt>
  <wgt id="906">4.62499e-12</wgt>
  <wgt id="907">4.4201e-12</wgt>
  <wgt id="908">4.39932e-12</wgt>
  <wgt id="909">3.93895e-12</wgt>
  <wgt id="910">3.8834e-12</wgt>
  <wgt id="911">3.91355e-12</wgt>
  <wgt id="912">3.93926e-12</wgt>
  <wgt id="913">3.74831e-12</wgt>
  <wgt id="914">4.04282e-12</wgt>
  <wgt id="915">3.89816e-12</wgt>
  <wgt id="916">4.36958e-12</wgt>
  <wgt id="917">3.83165e-12</wgt>
  <wgt id="918">3.9884e-12</wgt>
  <wgt id="919">3.92313e-12</wgt>
  <wgt id="920">3.78719e-12</wgt>
  <wgt id="921">4.15333e-12</wgt>
  <wgt id="922">3.7303e-12</wgt>
  <wgt id="923">3.97184e-12</wgt>
  <wgt id="924">3.5412e-12</wgt>
  <wgt id="925">3.53966e-12</wgt>
  <wgt id="926">4.35091e-12</wgt>
  <wgt id="927">4.28338e-12</wgt>
  <wgt id="928">4.15773e-12</wgt>
  <wgt id="929">4.02391e-12</wgt>
  <wgt id="930">4.00851e-12</wgt>
  <wgt id="931">3.87361e-12</wgt>
  <wgt id="932">3.96749e-12</wgt>
  <wgt id="933">4.39995e-12</wgt>
  <wgt id="934">3.94785e-12</wgt>
  <wgt id="935">4.4615e-12</wgt>
  <wgt id="936">3.95645e-12</wgt>
  <wgt id="937">4.102e-12</wgt>
  <wgt id="938">4.13243e-12</wgt>
  <wgt id="939">3.88409e-12</wgt>
  <wgt id="940">4.01724e-12</wgt>
  <wgt id="941">3.87849e-12</wgt>
  <wgt id="942">4.27117e-12</wgt>
  <wgt id="943">4.45456e-12</wgt>
  <wgt id="944">3.8792e-12</wgt>
  <wgt id="945">3.99718e-12</wgt>
  <wgt id="946">3.89089e-12</wgt>
  <wgt id="947">3.96799e-12</wgt>
  <wgt id="948">4.20775e-12</wgt>
  <wgt id="949">4.3211e-12</wgt>
  <wgt id="950">3.54922e-12</wgt>
  <wgt id="951">4.03589e-12</wgt>
  <wgt id="952">4.09774e-12</wgt>
  <wgt id="953">4.33833e-12</wgt>
  <wgt id="954">4.06386e-12</wgt>
  <wgt id="955">3.71492e-12</wgt>
  <wgt id="956">3.80246e-12</wgt>
  <wgt id="957">4.2845e-12</wgt>
  <wgt id="958">4.00747e-12</wgt>
  <wgt id="959">4.01212e-12</wgt>
  <wgt id="960">3.67711e-12</wgt>
  <wgt id="961">3.94886e-12</wgt>
  <wgt id="962">4.48473e-12</wgt>
  <wgt id="963">3.9617e-12</wgt>
  <wgt id="964">4.2576e-12</wgt>
  <wgt id="965">4.29429e-12</wgt>
  <wgt id="966">4.00884e-12</wgt>
  <wgt id="967">4.20937e-12</wgt>
  <wgt id="968">4.22016e-12</wgt>
  <wgt id="969">4.05427e-12</wgt>
  <wgt id="970">4.12911e-12</wgt>
  <wgt id="971">3.78725e-12</wgt>
  <wgt id="972">4.25861e-12</wgt>
  <wgt id="973">3.96595e-12</wgt>
  <wgt id="974">4.64311e-12</wgt>
  <wgt id="975">3.95725e-12</wgt>
  <wgt id="976">4.0183e-12</wgt>
  <wgt id="977">3.46768e-12</wgt>
  <wgt id="978">4.25249e-12</wgt>
  <wgt id="979">4.41393e-12</wgt>
  <wgt id="980">4.03649e-12</wgt>
  <wgt id="981">4.08947e-12</wgt>
  <wgt id="982">3.93135e-12</wgt>
</rwgt>
</event>
<event>
 5   1  0.3028200E-11  0.2347087E+04  0.7818608E-02  0.7695633E-01
       21   -1    0    0  502  501  0.00000000000E+00  0.00000000000E+00  0.67863330560E+03  0.67863330560E+03  0.00000000000E+00 0. -1.
       21   -1    0    0  501  502 -0.00000000000E+00 -0.00000000000E+00 -0.20293789118E+04  0.20293789118E+04  0.00000000000E+00 0.  1.
       39    2    1    2    0    0  0.00000000000E+00  0.00000000000E+00 -0.13507456062E+04  0.27080122174E+04  0.23470868064E+04 0.  0.
       25    1    3    3    0    0 -0.71952654312E+03  0.91387216310E+03 -0.78297960350E+03  0.14076799481E+04  0.12500000000E+03 0.  0.
       25    1    3    3    0    0  0.71952654312E+03 -0.91387216310E+03 -0.56776600268E+03  0.13003322693E+04  0.12500000000E+03 0.  0.
<mgrwt>
<rscale>  0 0.23470868E+04</rscale>
<asrwt>0</asrwt>
<pdfrwt beam="1">  1       21 0.10440513E+00 0.23470868E+04</pdfrwt>
<pdfrwt beam="2">  1       21 0.31221213E+00 0.23470868E+04</pdfrwt>
<totfact> 0.73475085E+00</totfact>
</mgrwt>
<rwgt>
  <wgt id="1">3.0282e-12</wgt>
  <wgt id="2">2.61645e-12</wgt>
  <wgt id="3">3.54355e-12</wgt>
  <wgt id="4">3.0282e-12</wgt>
  <wgt id="5">2.61645e-12</wgt>
  <wgt id="6">3.54355e-12</wgt>
  <wgt id="7">3.0282e-12</wgt>
  <wgt id="8">2.61645e-12</wgt>
  <wgt id="9">3.54355e-12</wgt>
  <wgt id="10">3.18337e-12</wgt>
  <wgt id="11">3.18208e-12</wgt>
  <wgt id="12">3.17627e-12</wgt>
  <wgt id="13">3.17627e-12</wgt>
  <wgt id="14">3.19414e-12</wgt>
  <wgt id="15">3.18871e-12</wgt>
  <wgt id="16">3.17646e-12</wgt>
  <wgt id="17">3.19938e-12</wgt>
  <wgt id="18">3.17993e-12</wgt>
  <wgt id="19">3.19534e-12</wgt>
  <wgt id="20">3.18127e-12</wgt>
  <wgt id="21">3.15777e-12</wgt>
  <wgt id="22">3.16075e-12</wgt>
  <wgt id="23">3.1355e-12</wgt>
  <wgt id="24">3.15929e-12</wgt>
  <wgt id="25">3.17095e-12</wgt>
  <wgt id="26">3.19255e-12</wgt>
  <wgt id="27">3.17744e-12</wgt>
  <wgt id="28">3.16267e-12</wgt>
  <wgt id="29">3.18456e-12</wgt>
  <wgt id="30">3.15776e-12</wgt>
  <wgt id="31">3.19798e-12</wgt>
  <wgt id="32">3.16055e-12</wgt>
  <wgt id="33">3.18786e-12</wgt>
  <wgt id="34">3.16283e-12</wgt>
  <wgt id="35">3.1631e-12</wgt>
  <wgt id="36">3.19838e-12</wgt>
  <wgt id="37">3.17258e-12</wgt>
  <wgt id="38">3.17011e-12</wgt>
  <wgt id="39">3.23917e-12</wgt>
  <wgt id="40">3.18672e-12</wgt>
  <wgt id="41">3.18114e-12</wgt>
  <wgt id="42">3.19039e-12</wgt>
  <wgt id="43">3.18546e-12</wgt>
  <wgt id="44">3.19709e-12</wgt>
  <wgt id="45">3.18743e-12</wgt>
  <wgt id="46">3.17182e-12</wgt>
  <wgt id="47">3.20948e-12</wgt>
  <wgt id="48">3.19906e-12</wgt>
  <wgt id="49">3.16702e-12</wgt>
  <wgt id="50">3.15974e-12</wgt>
  <wgt id="51">3.1656e-12</wgt>
  <wgt id="52">3.19082e-12</wgt>
  <wgt id="53">3.20652e-12</wgt>
  <wgt id="54">3.19726e-12</wgt>
  <wgt id="55">3.18224e-12</wgt>
  <wgt id="56">3.17358e-12</wgt>
  <wgt id="57">3.16853e-12</wgt>
  <wgt id="58">3.18002e-12</wgt>
  <wgt id="59">3.18691e-12</wgt>
  <wgt id="60">3.16255e-12</wgt>
  <wgt id="61">3.16449e-12</wgt>
  <wgt id="62">3.17479e-12</wgt>
  <wgt id="63">3.17999e-12</wgt>
  <wgt id="64">3.18113e-12</wgt>
  <wgt id="65">3.17353e-12</wgt>
  <wgt id="66">3.18504e-12</wgt>
  <wgt id="67">3.1759e-12</wgt>
  <wgt id="68">3.18261e-12</wgt>
  <wgt id="69">3.17843e-12</wgt>
  <wgt id="70">3.17624e-12</wgt>
  <wgt id="71">3.18087e-12</wgt>
  <wgt id="72">3.16547e-12</wgt>
  <wgt id="73">3.19592e-12</wgt>
  <wgt id="74">3.19346e-12</wgt>
  <wgt id="75">3.18325e-12</wgt>
  <wgt id="76">3.20299e-12</wgt>
  <wgt id="77">3.17797e-12</wgt>
  <wgt id="78">3.18045e-12</wgt>
  <wgt id="79">3.19191e-12</wgt>
  <wgt id="80">3.15831e-12</wgt>
  <wgt id="81">3.18286e-12</wgt>
  <wgt id="82">3.18606e-12</wgt>
  <wgt id="83">3.16462e-12</wgt>
  <wgt id="84">3.17444e-12</wgt>
  <wgt id="85">3.17158e-12</wgt>
  <wgt id="86">3.19502e-12</wgt>
  <wgt id="87">3.15571e-12</wgt>
  <wgt id="88">3.19133e-12</wgt>
  <wgt id="89">3.18816e-12</wgt>
  <wgt id="90">3.1944e-12</wgt>
  <wgt id="91">3.18727e-12</wgt>
  <wgt id="92">3.19174e-12</wgt>
  <wgt id="93">3.18747e-12</wgt>
  <wgt id="94">3.1757e-12</wgt>
  <wgt id="95">3.19421e-12</wgt>
  <wgt id="96">3.19066e-12</wgt>
  <wgt id="97">3.17164e-12</wgt>
  <wgt id="98">3.18319e-12</wgt>
  <wgt id="99">3.17772e-12</wgt>
  <wgt id="100">3.19104e-12</wgt>
  <wgt id="101">3.1805e-12</wgt>
  <wgt id="102">3.17858e-12</wgt>
  <wgt id="103">3.19427e-12</wgt>
  <wgt id="104">3.17742e-12</wgt>
  <wgt id="105">3.18972e-12</wgt>
  <wgt id="106">3.17553e-12</wgt>
  <wgt id="107">3.20122e-12</wgt>
  <wgt id="108">3.17744e-12</wgt>
  <wgt id="109">3.18681e-12</wgt>
  <wgt id="110">3.18184e-12</wgt>
  <wgt id="111">3.19181e-12</wgt>
  <wgt id="112">3.21939e-12</wgt>
  <wgt id="113">4.5429e-12</wgt>
  <wgt id="114">4.29224e-12</wgt>
  <wgt id="115">4.21445e-12</wgt>
  <wgt id="116">5.8592e-12</wgt>
  <wgt id="117">3.52105e-12</wgt>
  <wgt id="118">3.53426e-12</wgt>
  <wgt id="119">3.51353e-12</wgt>
  <wgt id="120">3.52118e-12</wgt>
  <wgt id="121">3.52097e-12</wgt>
  <wgt id="122">3.51545e-12</wgt>
  <wgt id="123">3.52884e-12</wgt>
  <wgt id="124">3.51635e-12</wgt>
  <wgt id="125">3.52412e-12</wgt>
  <wgt id="126">3.52651e-12</wgt>
  <wgt id="127">3.51742e-12</wgt>
  <wgt id="128">3.53183e-12</wgt>
  <wgt id="129">3.51033e-12</wgt>
  <wgt id="130">3.53906e-12</wgt>
  <wgt id="131">3.50241e-12</wgt>
  <wgt id="132">3.42389e-12</wgt>
  <wgt id="133">3.63678e-12</wgt>
  <wgt id="134">3.48283e-12</wgt>
  <wgt id="135">3.55105e-12</wgt>
  <wgt id="136">3.57409e-12</wgt>
  <wgt id="137">3.4573e-12</wgt>
  <wgt id="138">3.67875e-12</wgt>
  <wgt id="139">3.37112e-12</wgt>
  <wgt id="140">3.5032e-12</wgt>
  <wgt id="141">3.53464e-12</wgt>
  <wgt id="142">3.52038e-12</wgt>
  <wgt id="143">3.53122e-12</wgt>
  <wgt id="144">3.38072e-12</wgt>
  <wgt id="145">3.65675e-12</wgt>
  <wgt id="146">3.56601e-12</wgt>
  <wgt id="147">3.48443e-12</wgt>
  <wgt id="148">3.53383e-12</wgt>
  <wgt id="149">3.52014e-12</wgt>
  <wgt id="150">3.55104e-12</wgt>
  <wgt id="151">3.50703e-12</wgt>
  <wgt id="152">3.52218e-12</wgt>
  <wgt id="153">3.52066e-12</wgt>
  <wgt id="154">3.53226e-12</wgt>
  <wgt id="155">3.50204e-12</wgt>
  <wgt id="156">3.63392e-12</wgt>
  <wgt id="157">3.41673e-12</wgt>
  <wgt id="158">4.22187e-12</wgt>
  <wgt id="159">4.23982e-12</wgt>
  <wgt id="160">4.20742e-12</wgt>
  <wgt id="161">4.21097e-12</wgt>
  <wgt id="162">4.23402e-12</wgt>
  <wgt id="163">4.21701e-12</wgt>
  <wgt id="164">4.22902e-12</wgt>
  <wgt id="165">4.22348e-12</wgt>
  <wgt id="166">4.2206e-12</wgt>
  <wgt id="167">4.21887e-12</wgt>
  <wgt id="168">4.22597e-12</wgt>
  <wgt id="169">4.20452e-12</wgt>
  <wgt id="170">4.23266e-12</wgt>
  <wgt id="171">4.21833e-12</wgt>
  <wgt id="172">4.22683e-12</wgt>
  <wgt id="173">4.21529e-12</wgt>
  <wgt id="174">4.22405e-12</wgt>
  <wgt id="175">4.09836e-12</wgt>
  <wgt id="176">4.38374e-12</wgt>
  <wgt id="177">4.24235e-12</wgt>
  <wgt id="178">4.20322e-12</wgt>
  <wgt id="179">4.43269e-12</wgt>
  <wgt id="180">3.89608e-12</wgt>
  <wgt id="181">4.08237e-12</wgt>
  <wgt id="182">4.31479e-12</wgt>
  <wgt id="183">4.13721e-12</wgt>
  <wgt id="184">4.2639e-12</wgt>
  <wgt id="185">4.17649e-12</wgt>
  <wgt id="186">4.27674e-12</wgt>
  <wgt id="187">4.17558e-12</wgt>
  <wgt id="188">4.30369e-12</wgt>
  <wgt id="189">4.18933e-12</wgt>
  <wgt id="190">4.23503e-12</wgt>
  <wgt id="191">4.23652e-12</wgt>
  <wgt id="192">4.21323e-12</wgt>
  <wgt id="193">4.29183e-12</wgt>
  <wgt id="194">4.18674e-12</wgt>
  <wgt id="195">4.07472e-12</wgt>
  <wgt id="196">4.46467e-12</wgt>
  <wgt id="197">4.24461e-12</wgt>
  <wgt id="198">4.21641e-12</wgt>
  <wgt id="199">4.22187e-12</wgt>
  <wgt id="200">4.26247e-12</wgt>
  <wgt id="201">4.24852e-12</wgt>
  <wgt id="202">4.23501e-12</wgt>
  <wgt id="203">4.21545e-12</wgt>
  <wgt id="204">4.20566e-12</wgt>
  <wgt id="205">4.19766e-12</wgt>
  <wgt id="206">4.12171e-12</wgt>
  <wgt id="207">4.14641e-12</wgt>
  <wgt id="208">4.09729e-12</wgt>
  <wgt id="209">4.13446e-12</wgt>
  <wgt id="210">4.1124e-12</wgt>
  <wgt id="211">4.12019e-12</wgt>
  <wgt id="212">4.12288e-12</wgt>
  <wgt id="213">4.12135e-12</wgt>
  <wgt id="214">4.12226e-12</wgt>
  <wgt id="215">4.12485e-12</wgt>
  <wgt id="216">4.11946e-12</wgt>
  <wgt id="217">4.13174e-12</wgt>
  <wgt id="218">4.11398e-12</wgt>
  <wgt id="219">4.11693e-12</wgt>
  <wgt id="220">4.12459e-12</wgt>
  <wgt id="221">4.12265e-12</wgt>
  <wgt id="222">4.11862e-12</wgt>
  <wgt id="223">3.88753e-12</wgt>
  <wgt id="224">4.33639e-12</wgt>
  <wgt id="225">4.07017e-12</wgt>
  <wgt id="226">4.18715e-12</wgt>
  <wgt id="227">4.08174e-12</wgt>
  <wgt id="228">4.13922e-12</wgt>
  <wgt id="229">4.06227e-12</wgt>
  <wgt id="230">4.15124e-12</wgt>
  <wgt id="231">4.25935e-12</wgt>
  <wgt id="232">4.00916e-12</wgt>
  <wgt id="233">4.09623e-12</wgt>
  <wgt id="234">4.16408e-12</wgt>
  <wgt id="235">3.96431e-12</wgt>
  <wgt id="236">4.25166e-12</wgt>
  <wgt id="237">4.02864e-12</wgt>
  <wgt id="238">4.15276e-12</wgt>
  <wgt id="239">4.08385e-12</wgt>
  <wgt id="240">4.18957e-12</wgt>
  <wgt id="241">4.07227e-12</wgt>
  <wgt id="242">4.18043e-12</wgt>
  <wgt id="243">4.19158e-12</wgt>
  <wgt id="244">4.12532e-12</wgt>
  <wgt id="245">4.11985e-12</wgt>
  <wgt id="246">4.14601e-12</wgt>
  <wgt id="247">4.12171e-12</wgt>
  <wgt id="248">4.16498e-12</wgt>
  <wgt id="249">4.14994e-12</wgt>
  <wgt id="250">4.13434e-12</wgt>
  <wgt id="251">4.11312e-12</wgt>
  <wgt id="252">4.10231e-12</wgt>
  <wgt id="253">4.09486e-12</wgt>
  <wgt id="254">3.98408e-12</wgt>
  <wgt id="255">3.98767e-12</wgt>
  <wgt id="256">3.98019e-12</wgt>
  <wgt id="257">3.98719e-12</wgt>
  <wgt id="258">3.98182e-12</wgt>
  <wgt id="259">4.01082e-12</wgt>
  <wgt id="260">3.95828e-12</wgt>
  <wgt id="261">3.99056e-12</wgt>
  <wgt id="262">3.97644e-12</wgt>
  <wgt id="263">3.98128e-12</wgt>
  <wgt id="264">3.98738e-12</wgt>
  <wgt id="265">3.97919e-12</wgt>
  <wgt id="266">3.99391e-12</wgt>
  <wgt id="267">3.98543e-12</wgt>
  <wgt id="268">3.98213e-12</wgt>
  <wgt id="269">3.99674e-12</wgt>
  <wgt id="270">3.9755e-12</wgt>
  <wgt id="271">3.97389e-12</wgt>
  <wgt id="272">3.99544e-12</wgt>
  <wgt id="273">3.97304e-12</wgt>
  <wgt id="274">3.99249e-12</wgt>
  <wgt id="275">3.96091e-12</wgt>
  <wgt id="276">4.00807e-12</wgt>
  <wgt id="277">3.96078e-12</wgt>
  <wgt id="278">4.00537e-12</wgt>
  <wgt id="279">3.90848e-12</wgt>
  <wgt id="280">4.07929e-12</wgt>
  <wgt id="281">3.9652e-12</wgt>
  <wgt id="282">3.9888e-12</wgt>
  <wgt id="283">3.85508e-12</wgt>
  <wgt id="284">4.14492e-12</wgt>
  <wgt id="285">3.77129e-12</wgt>
  <wgt id="286">4.16357e-12</wgt>
  <wgt id="287">3.9981e-12</wgt>
  <wgt id="288">3.96615e-12</wgt>
  <wgt id="289">4.01603e-12</wgt>
  <wgt id="290">3.91311e-12</wgt>
  <wgt id="291">3.96921e-12</wgt>
  <wgt id="292">3.98483e-12</wgt>
  <wgt id="293">3.94935e-12</wgt>
  <wgt id="294">4.0186e-12</wgt>
  <wgt id="295">3.90006e-12</wgt>
  <wgt id="296">4.08706e-12</wgt>
  <wgt id="297">3.97556e-12</wgt>
  <wgt id="298">4.00391e-12</wgt>
  <wgt id="299">3.97045e-12</wgt>
  <wgt id="300">4.02033e-12</wgt>
  <wgt id="301">3.9055e-12</wgt>
  <wgt id="302">4.16664e-12</wgt>
  <wgt id="303">3.9414e-12</wgt>
  <wgt id="304">4.00803e-12</wgt>
  <wgt id="305">3.95556e-12</wgt>
  <wgt id="306">3.95931e-12</wgt>
  <wgt id="307">3.95155e-12</wgt>
  <wgt id="308">3.95894e-12</wgt>
  <wgt id="309">3.95327e-12</wgt>
  <wgt id="310">3.98288e-12</wgt>
  <wgt id="311">3.9303e-12</wgt>
  <wgt id="312">3.96131e-12</wgt>
  <wgt id="313">3.94946e-12</wgt>
  <wgt id="314">3.95263e-12</wgt>
  <wgt id="315">3.95832e-12</wgt>
  <wgt id="316">3.95065e-12</wgt>
  <wgt id="317">3.96619e-12</wgt>
  <wgt id="318">3.95853e-12</wgt>
  <wgt id="319">3.95031e-12</wgt>
  <wgt id="320">3.9691e-12</wgt>
  <wgt id="321">3.94799e-12</wgt>
  <wgt id="322">3.94417e-12</wgt>
  <wgt id="323">3.96878e-12</wgt>
  <wgt id="324">3.94718e-12</wgt>
  <wgt id="325">3.96284e-12</wgt>
  <wgt id="326">3.93655e-12</wgt>
  <wgt id="327">3.97993e-12</wgt>
  <wgt id="328">3.93487e-12</wgt>
  <wgt id="329">3.96711e-12</wgt>
  <wgt id="330">4.07053e-12</wgt>
  <wgt id="331">3.84627e-12</wgt>
  <wgt id="332">3.93988e-12</wgt>
  <wgt id="333">3.95844e-12</wgt>
  <wgt id="334">3.85697e-12</wgt>
  <wgt id="335">4.07917e-12</wgt>
  <wgt id="336">3.80425e-12</wgt>
  <wgt id="337">4.14284e-12</wgt>
  <wgt id="338">4.00429e-12</wgt>
  <wgt id="339">3.91064e-12</wgt>
  <wgt id="340">3.98457e-12</wgt>
  <wgt id="341">3.88379e-12</wgt>
  <wgt id="342">3.94489e-12</wgt>
  <wgt id="343">3.94854e-12</wgt>
  <wgt id="344">3.92506e-12</wgt>
  <wgt id="345">3.99102e-12</wgt>
  <wgt id="346">3.86951e-12</wgt>
  <wgt id="347">4.05435e-12</wgt>
  <wgt id="348">3.94783e-12</wgt>
  <wgt id="349">3.97324e-12</wgt>
  <wgt id="350">3.93867e-12</wgt>
  <wgt id="351">3.99841e-12</wgt>
  <wgt id="352">3.87483e-12</wgt>
  <wgt id="353">4.13543e-12</wgt>
  <wgt id="354">3.89441e-12</wgt>
  <wgt id="355">3.99199e-12</wgt>
  <wgt id="356">3.98408e-12</wgt>
  <wgt id="357">3.96051e-12</wgt>
  <wgt id="358">3.95556e-12</wgt>
  <wgt id="359">3.98561e-12</wgt>
  <wgt id="360">4.04746e-12</wgt>
  <wgt id="361">4.00383e-12</wgt>
  <wgt id="362">4.08325e-12</wgt>
  <wgt id="363">4.07279e-12</wgt>
  <wgt id="364">4.05343e-12</wgt>
  <wgt id="365">4.03805e-12</wgt>
  <wgt id="366">4.02215e-12</wgt>
  <wgt id="367">3.99165e-12</wgt>
  <wgt id="368">3.97261e-12</wgt>
  <wgt id="369">3.95205e-12</wgt>
  <wgt id="370">4.00383e-12</wgt>
  <wgt id="371">4.02078e-12</wgt>
  <wgt id="372">4.01125e-12</wgt>
  <wgt id="373">3.99783e-12</wgt>
  <wgt id="374">4.00193e-12</wgt>
  <wgt id="375">4.53085e-12</wgt>
  <wgt id="376">4.53126e-12</wgt>
  <wgt id="377">4.53036e-12</wgt>
  <wgt id="378">4.54804e-12</wgt>
  <wgt id="379">4.51386e-12</wgt>
  <wgt id="380">4.54379e-12</wgt>
  <wgt id="381">4.52572e-12</wgt>
  <wgt id="382">4.55266e-12</wgt>
  <wgt id="383">4.50933e-12</wgt>
  <wgt id="384">4.53381e-12</wgt>
  <wgt id="385">4.5281e-12</wgt>
  <wgt id="386">4.54651e-12</wgt>
  <wgt id="387">4.52416e-12</wgt>
  <wgt id="388">4.52686e-12</wgt>
  <wgt id="389">4.53588e-12</wgt>
  <wgt id="390">4.54164e-12</wgt>
  <wgt id="391">4.51941e-12</wgt>
  <wgt id="392">4.4905e-12</wgt>
  <wgt id="393">4.55376e-12</wgt>
  <wgt id="394">4.53461e-12</wgt>
  <wgt id="395">4.52559e-12</wgt>
  <wgt id="396">4.53835e-12</wgt>
  <wgt id="397">4.52552e-12</wgt>
  <wgt id="398">4.52054e-12</wgt>
  <wgt id="399">4.54089e-12</wgt>
  <wgt id="400">4.52366e-12</wgt>
  <wgt id="401">4.54704e-12</wgt>
  <wgt id="402">4.4891e-12</wgt>
  <wgt id="403">4.5562e-12</wgt>
  <wgt id="404">4.65989e-12</wgt>
  <wgt id="405">4.22407e-12</wgt>
  <wgt id="406">4.43811e-12</wgt>
  <wgt id="407">4.73661e-12</wgt>
  <wgt id="408">4.57934e-12</wgt>
  <wgt id="409">4.44129e-12</wgt>
  <wgt id="410">4.38041e-12</wgt>
  <wgt id="411">4.60312e-12</wgt>
  <wgt id="412">4.52049e-12</wgt>
  <wgt id="413">4.5463e-12</wgt>
  <wgt id="414">4.47086e-12</wgt>
  <wgt id="415">4.57755e-12</wgt>
  <wgt id="416">4.68312e-12</wgt>
  <wgt id="417">4.32195e-12</wgt>
  <wgt id="418">4.53973e-12</wgt>
  <wgt id="419">4.4833e-12</wgt>
  <wgt id="420">4.63778e-12</wgt>
  <wgt id="421">4.4608e-12</wgt>
  <wgt id="422">4.50558e-12</wgt>
  <wgt id="423">4.54286e-12</wgt>
  <wgt id="424">4.66245e-12</wgt>
  <wgt id="425">4.4423e-12</wgt>
  <wgt id="426">4.53085e-12</wgt>
  <wgt id="427">4.44673e-12</wgt>
  <wgt id="428">4.72786e-12</wgt>
  <wgt id="429">4.59074e-12</wgt>
  <wgt id="430">4.74064e-12</wgt>
  <wgt id="431">4.71017e-12</wgt>
  <wgt id="432">4.68248e-12</wgt>
  <wgt id="433">4.65533e-12</wgt>
  <wgt id="434">4.62078e-12</wgt>
  <wgt id="435">4.55309e-12</wgt>
  <wgt id="436">4.51885e-12</wgt>
  <wgt id="437">4.48559e-12</wgt>
  <wgt id="438">4.59074e-12</wgt>
  <wgt id="439">4.60489e-12</wgt>
  <wgt id="440">4.59614e-12</wgt>
  <wgt id="441">4.5869e-12</wgt>
  <wgt id="442">4.58387e-12</wgt>
  <wgt id="443">4.18291e-12</wgt>
  <wgt id="444">4.22493e-12</wgt>
  <wgt id="445">4.21777e-12</wgt>
  <wgt id="446">4.15211e-12</wgt>
  <wgt id="447">4.18206e-12</wgt>
  <wgt id="448">4.07795e-12</wgt>
  <wgt id="449">4.26867e-12</wgt>
  <wgt id="450">4.22832e-12</wgt>
  <wgt id="451">4.17132e-12</wgt>
  <wgt id="452">4.2777e-12</wgt>
  <wgt id="453">4.23481e-12</wgt>
  <wgt id="454">3.96874e-12</wgt>
  <wgt id="455">4.21419e-12</wgt>
  <wgt id="456">4.2472e-12</wgt>
  <wgt id="457">4.19768e-12</wgt>
  <wgt id="458">4.25555e-12</wgt>
  <wgt id="459">4.22088e-12</wgt>
  <wgt id="460">4.26039e-12</wgt>
  <wgt id="461">4.08217e-12</wgt>
  <wgt id="462">4.15128e-12</wgt>
  <wgt id="463">4.11669e-12</wgt>
  <wgt id="464">4.16136e-12</wgt>
  <wgt id="465">4.22959e-12</wgt>
  <wgt id="466">4.08748e-12</wgt>
  <wgt id="467">4.14765e-12</wgt>
  <wgt id="468">4.17795e-12</wgt>
  <wgt id="469">4.17168e-12</wgt>
  <wgt id="470">4.11947e-12</wgt>
  <wgt id="471">4.1309e-12</wgt>
  <wgt id="472">4.21146e-12</wgt>
  <wgt id="473">4.04123e-12</wgt>
  <wgt id="474">3.0282e-12</wgt>
  <wgt id="475">3.03618e-12</wgt>
  <wgt id="476">3.0065e-12</wgt>
  <wgt id="477">3.06747e-12</wgt>
  <wgt id="478">3.06547e-12</wgt>
  <wgt id="479">2.89037e-12</wgt>
  <wgt id="480">3.18403e-12</wgt>
  <wgt id="481">3.04344e-12</wgt>
  <wgt id="482">3.02405e-12</wgt>
  <wgt id="483">3.02367e-12</wgt>
  <wgt id="484">3.15762e-12</wgt>
  <wgt id="485">2.80047e-12</wgt>
  <wgt id="486">3.18206e-12</wgt>
  <wgt id="487">2.95793e-12</wgt>
  <wgt id="488">3.06399e-12</wgt>
  <wgt id="489">2.74333e-12</wgt>
  <wgt id="490">2.96611e-12</wgt>
  <wgt id="491">2.99166e-12</wgt>
  <wgt id="492">2.97741e-12</wgt>
  <wgt id="493">2.81253e-12</wgt>
  <wgt id="494">2.82873e-12</wgt>
  <wgt id="495">3.0367e-12</wgt>
  <wgt id="496">2.8816e-12</wgt>
  <wgt id="497">2.83699e-12</wgt>
  <wgt id="498">3.11769e-12</wgt>
  <wgt id="499">3.04384e-12</wgt>
  <wgt id="500">2.97765e-12</wgt>
  <wgt id="501">3.15007e-12</wgt>
  <wgt id="502">3.12718e-12</wgt>
  <wgt id="503">2.98246e-12</wgt>
  <wgt id="504">3.12625e-12</wgt>
  <wgt id="505">3.12901e-12</wgt>
  <wgt id="506">2.84549e-12</wgt>
  <wgt id="507">2.99027e-12</wgt>
  <wgt id="508">3.18458e-12</wgt>
  <wgt id="509">2.89874e-12</wgt>
  <wgt id="510">3.06078e-12</wgt>
  <wgt id="511">2.87698e-12</wgt>
  <wgt id="512">3.22072e-12</wgt>
  <wgt id="513">3.15349e-12</wgt>
  <wgt id="514">3.17705e-12</wgt>
  <wgt id="515">3.09496e-12</wgt>
  <wgt id="516">3.32749e-12</wgt>
  <wgt id="517">3.10204e-12</wgt>
  <wgt id="518">3.13669e-12</wgt>
  <wgt id="519">2.9077e-12</wgt>
  <wgt id="520">3.08071e-12</wgt>
  <wgt id="521">2.9816e-12</wgt>
  <wgt id="522">3.1552e-12</wgt>
  <wgt id="523">2.89316e-12</wgt>
  <wgt id="524">3.07335e-12</wgt>
  <wgt id="525">2.9916e-12</wgt>
  <wgt id="526">3.16808e-12</wgt>
  <wgt id="527">2.99772e-12</wgt>
  <wgt id="528">3.02559e-12</wgt>
  <wgt id="529">2.90707e-12</wgt>
  <wgt id="530">3.17383e-12</wgt>
  <wgt id="531">2.91056e-12</wgt>
  <wgt id="532">3.27923e-12</wgt>
  <wgt id="533">2.99515e-12</wgt>
  <wgt id="534">2.92532e-12</wgt>
  <wgt id="535">3.05564e-12</wgt>
  <wgt id="536">3.11787e-12</wgt>
  <wgt id="537">2.89616e-12</wgt>
  <wgt id="538">3.01229e-12</wgt>
  <wgt id="539">2.95751e-12</wgt>
  <wgt id="540">3.18996e-12</wgt>
  <wgt id="541">3.01248e-12</wgt>
  <wgt id="542">2.97066e-12</wgt>
  <wgt id="543">2.93593e-12</wgt>
  <wgt id="544">3.06997e-12</wgt>
  <wgt id="545">2.87744e-12</wgt>
  <wgt id="546">2.80716e-12</wgt>
  <wgt id="547">2.92729e-12</wgt>
  <wgt id="548">2.91861e-12</wgt>
  <wgt id="549">2.9697e-12</wgt>
  <wgt id="550">2.95242e-12</wgt>
  <wgt id="551">3.04678e-12</wgt>
  <wgt id="552">2.79855e-12</wgt>
  <wgt id="553">2.86324e-12</wgt>
  <wgt id="554">3.19304e-12</wgt>
  <wgt id="555">3.10386e-12</wgt>
  <wgt id="556">2.96611e-12</wgt>
  <wgt id="557">3.09964e-12</wgt>
  <wgt id="558">2.991e-12</wgt>
  <wgt id="559">3.04051e-12</wgt>
  <wgt id="560">3.35365e-12</wgt>
  <wgt id="561">3.088e-12</wgt>
  <wgt id="562">3.14141e-12</wgt>
  <wgt id="563">3.31419e-12</wgt>
  <wgt id="564">3.19584e-12</wgt>
  <wgt id="565">3.10545e-12</wgt>
  <wgt id="566">2.95502e-12</wgt>
  <wgt id="567">3.02307e-12</wgt>
  <wgt id="568">2.93211e-12</wgt>
  <wgt id="569">3.05732e-12</wgt>
  <wgt id="570">2.99184e-12</wgt>
  <wgt id="571">3.35529e-12</wgt>
  <wgt id="572">2.93318e-12</wgt>
  <wgt id="573">2.93895e-12</wgt>
  <wgt id="574">2.95387e-12</wgt>
  <wgt id="575">3.34849e-12</wgt>
  <wgt id="576">3.61863e-12</wgt>
  <wgt id="577">3.49496e-12</wgt>
  <wgt id="578">3.40707e-12</wgt>
  <wgt id="579">3.47872e-12</wgt>
  <wgt id="580">3.56106e-12</wgt>
  <wgt id="581">3.69093e-12</wgt>
  <wgt id="582">3.55996e-12</wgt>
  <wgt id="583">3.40892e-12</wgt>
  <wgt id="584">3.31335e-12</wgt>
  <wgt id="585">3.12116e-12</wgt>
  <wgt id="586">3.15705e-12</wgt>
  <wgt id="587">3.41268e-12</wgt>
  <wgt id="588">3.62416e-12</wgt>
  <wgt id="589">3.63828e-12</wgt>
  <wgt id="590">3.32288e-12</wgt>
  <wgt id="591">3.44683e-12</wgt>
  <wgt id="592">3.11526e-12</wgt>
  <wgt id="593">3.25351e-12</wgt>
  <wgt id="594">3.29135e-12</wgt>
  <wgt id="595">3.49949e-12</wgt>
  <wgt id="596">3.90897e-12</wgt>
  <wgt id="597">3.3864e-12</wgt>
  <wgt id="598">3.38309e-12</wgt>
  <wgt id="599">3.56105e-12</wgt>
  <wgt id="600">3.54775e-12</wgt>
  <wgt id="601">3.21237e-12</wgt>
  <wgt id="602">3.24377e-12</wgt>
  <wgt id="603">3.14711e-12</wgt>
  <wgt id="604">3.43136e-12</wgt>
  <wgt id="605">3.39131e-12</wgt>
  <wgt id="606">3.40593e-12</wgt>
  <wgt id="607">3.48473e-12</wgt>
  <wgt id="608">3.47267e-12</wgt>
  <wgt id="609">3.29752e-12</wgt>
  <wgt id="610">3.2021e-12</wgt>
  <wgt id="611">3.20828e-12</wgt>
  <wgt id="612">3.47001e-12</wgt>
  <wgt id="613">3.20318e-12</wgt>
  <wgt id="614">3.32061e-12</wgt>
  <wgt id="615">3.39456e-12</wgt>
  <wgt id="616">3.24226e-12</wgt>
  <wgt id="617">3.47619e-12</wgt>
  <wgt id="618">3.67574e-12</wgt>
  <wgt id="619">3.2823e-12</wgt>
  <wgt id="620">3.4598e-12</wgt>
  <wgt id="621">3.31117e-12</wgt>
  <wgt id="622">3.41268e-12</wgt>
  <wgt id="623">3.36808e-12</wgt>
  <wgt id="624">3.36824e-12</wgt>
  <wgt id="625">3.19765e-12</wgt>
  <wgt id="626">3.00352e-12</wgt>
  <wgt id="627">3.04279e-12</wgt>
  <wgt id="628">3.33597e-12</wgt>
  <wgt id="629">3.39571e-12</wgt>
  <wgt id="630">3.24917e-12</wgt>
  <wgt id="631">3.4287e-12</wgt>
  <wgt id="632">3.06677e-12</wgt>
  <wgt id="633">3.32934e-12</wgt>
  <wgt id="634">3.20948e-12</wgt>
  <wgt id="635">3.09099e-12</wgt>
  <wgt id="636">3.3894e-12</wgt>
  <wgt id="637">3.33228e-12</wgt>
  <wgt id="638">3.19497e-12</wgt>
  <wgt id="639">3.21051e-12</wgt>
  <wgt id="640">3.27405e-12</wgt>
  <wgt id="641">3.50382e-12</wgt>
  <wgt id="642">3.06814e-12</wgt>
  <wgt id="643">3.26529e-12</wgt>
  <wgt id="644">3.00343e-12</wgt>
  <wgt id="645">3.34441e-12</wgt>
  <wgt id="646">3.09556e-12</wgt>
  <wgt id="647">3.38079e-12</wgt>
  <wgt id="648">3.49827e-12</wgt>
  <wgt id="649">3.36516e-12</wgt>
  <wgt id="650">3.19787e-12</wgt>
  <wgt id="651">3.58002e-12</wgt>
  <wgt id="652">3.21391e-12</wgt>
  <wgt id="653">3.21558e-12</wgt>
  <wgt id="654">3.37458e-12</wgt>
  <wgt id="655">3.21995e-12</wgt>
  <wgt id="656">3.35649e-12</wgt>
  <wgt id="657">3.66482e-12</wgt>
  <wgt id="658">3.36216e-12</wgt>
  <wgt id="659">3.2033e-12</wgt>
  <wgt id="660">3.2535e-12</wgt>
  <wgt id="661">3.26383e-12</wgt>
  <wgt id="662">3.29471e-12</wgt>
  <wgt id="663">3.40598e-12</wgt>
  <wgt id="664">3.38401e-12</wgt>
  <wgt id="665">3.31369e-12</wgt>
  <wgt id="666">3.27171e-12</wgt>
  <wgt id="667">3.52902e-12</wgt>
  <wgt id="668">3.3075e-12</wgt>
  <wgt id="669">3.34896e-12</wgt>
  <wgt id="670">3.51021e-12</wgt>
  <wgt id="671">3.3815e-12</wgt>
  <wgt id="672">3.25301e-12</wgt>
  <wgt id="673">3.54697e-12</wgt>
  <wgt id="674">3.24403e-12</wgt>
  <wgt id="675">3.23233e-12</wgt>
  <wgt id="676">4.34208e-12</wgt>
  <wgt id="677">4.3886e-12</wgt>
  <wgt id="678">4.74934e-12</wgt>
  <wgt id="679">4.41138e-12</wgt>
  <wgt id="680">4.36933e-12</wgt>
  <wgt id="681">4.25158e-12</wgt>
  <wgt id="682">4.55464e-12</wgt>
  <wgt id="683">4.02063e-12</wgt>
  <wgt id="684">4.5746e-12</wgt>
  <wgt id="685">4.31557e-12</wgt>
  <wgt id="686">4.39925e-12</wgt>
  <wgt id="687">4.4911e-12</wgt>
  <wgt id="688">4.20876e-12</wgt>
  <wgt id="689">4.55139e-12</wgt>
  <wgt id="690">4.46336e-12</wgt>
  <wgt id="691">4.46019e-12</wgt>
  <wgt id="692">4.23924e-12</wgt>
  <wgt id="693">5.7129e-12</wgt>
  <wgt id="694">4.7743e-12</wgt>
  <wgt id="695">4.07584e-12</wgt>
  <wgt id="696">4.15487e-12</wgt>
  <wgt id="697">3.93788e-12</wgt>
  <wgt id="698">3.60356e-12</wgt>
  <wgt id="699">3.67755e-12</wgt>
  <wgt id="700">3.8237e-12</wgt>
  <wgt id="701">4.33854e-12</wgt>
  <wgt id="702">4.18432e-12</wgt>
  <wgt id="703">5.36787e-12</wgt>
  <wgt id="704">4.89456e-12</wgt>
  <wgt id="705">4.86556e-12</wgt>
  <wgt id="706">4.05281e-12</wgt>
  <wgt id="707">4.06838e-12</wgt>
  <wgt id="708">4.16004e-12</wgt>
  <wgt id="709">4.20524e-12</wgt>
  <wgt id="710">3.67619e-12</wgt>
  <wgt id="711">4.59183e-12</wgt>
  <wgt id="712">4.08032e-12</wgt>
  <wgt id="713">4.68457e-12</wgt>
  <wgt id="714">3.92936e-12</wgt>
  <wgt id="715">4.15404e-12</wgt>
  <wgt id="716">4.17572e-12</wgt>
  <wgt id="717">3.79807e-12</wgt>
  <wgt id="718">4.44039e-12</wgt>
  <wgt id="719">3.94732e-12</wgt>
  <wgt id="720">4.41121e-12</wgt>
  <wgt id="721">3.71397e-12</wgt>
  <wgt id="722">3.44542e-12</wgt>
  <wgt id="723">4.87241e-12</wgt>
  <wgt id="724">4.70444e-12</wgt>
  <wgt id="725">4.54697e-12</wgt>
  <wgt id="726">4.32235e-12</wgt>
  <wgt id="727">4.34908e-12</wgt>
  <wgt id="728">4.2432e-12</wgt>
  <wgt id="729">4.00482e-12</wgt>
  <wgt id="730">4.80971e-12</wgt>
  <wgt id="731">4.26963e-12</wgt>
  <wgt id="732">5.04592e-12</wgt>
  <wgt id="733">4.05274e-12</wgt>
  <wgt id="734">4.49026e-12</wgt>
  <wgt id="735">4.3524e-12</wgt>
  <wgt id="736">4.03707e-12</wgt>
  <wgt id="737">4.08654e-12</wgt>
  <wgt id="738">4.12744e-12</wgt>
  <wgt id="739">4.63267e-12</wgt>
  <wgt id="740">5.12475e-12</wgt>
  <wgt id="741">4.46441e-12</wgt>
  <wgt id="742">4.18378e-12</wgt>
  <wgt id="743">3.96089e-12</wgt>
  <wgt id="744">4.25618e-12</wgt>
  <wgt id="745">4.73684e-12</wgt>
  <wgt id="746">4.8688e-12</wgt>
  <wgt id="747">3.61996e-12</wgt>
  <wgt id="748">4.19458e-12</wgt>
  <wgt id="749">4.51959e-12</wgt>
  <wgt id="750">4.68464e-12</wgt>
  <wgt id="751">4.38027e-12</wgt>
  <wgt id="752">3.90482e-12</wgt>
  <wgt id="753">3.89722e-12</wgt>
  <wgt id="754">4.54119e-12</wgt>
  <wgt id="755">4.25131e-12</wgt>
  <wgt id="756">4.22099e-12</wgt>
  <wgt id="757">3.76402e-12</wgt>
  <wgt id="758">4.23301e-12</wgt>
  <wgt id="759">4.7598e-12</wgt>
  <wgt id="760">4.17792e-12</wgt>
  <wgt id="761">4.80011e-12</wgt>
  <wgt id="762">4.8227e-12</wgt>
  <wgt id="763">4.43128e-12</wgt>
  <wgt id="764">4.63622e-12</wgt>
  <wgt id="765">4.39605e-12</wgt>
  <wgt id="766">4.39432e-12</wgt>
  <wgt id="767">4.43272e-12</wgt>
  <wgt id="768">3.95334e-12</wgt>
  <wgt id="769">4.5824e-12</wgt>
  <wgt id="770">4.09217e-12</wgt>
  <wgt id="771">5.33746e-12</wgt>
  <wgt id="772">4.21645e-12</wgt>
  <wgt id="773">4.35164e-12</wgt>
  <wgt id="774">3.45267e-12</wgt>
  <wgt id="775">4.55591e-12</wgt>
  <wgt id="776">4.9789e-12</wgt>
  <wgt id="777">3.86406e-12</wgt>
  <wgt id="778">2.86485e-12</wgt>
  <wgt id="779">1.79702e-12</wgt>
  <wgt id="780">1.09091e-12</wgt>
  <wgt id="781">3.26914e-12</wgt>
  <wgt id="782">3.48267e-12</wgt>
  <wgt id="783">1.631e-12</wgt>
  <wgt id="784">2.03753e-12</wgt>
  <wgt id="785">4.26441e-12</wgt>
  <wgt id="786">1.61451e-12</wgt>
  <wgt id="787">3.70338e-12</wgt>
  <wgt id="788">6.23958e-13</wgt>
  <wgt id="789">2.01312e-12</wgt>
  <wgt id="790">1.62848e-12</wgt>
  <wgt id="791">3.28301e-12</wgt>
  <wgt id="792">3.89797e-12</wgt>
  <wgt id="793">2.70711e-12</wgt>
  <wgt id="794">1.49015e-12</wgt>
  <wgt id="795">3.95483e-12</wgt>
  <wgt id="796">4.06743e-12</wgt>
  <wgt id="797">3.72858e-12</wgt>
  <wgt id="798">2.20256e-12</wgt>
  <wgt id="799">3.63192e-12</wgt>
  <wgt id="800">2.19575e-12</wgt>
  <wgt id="801">2.7645e-12</wgt>
  <wgt id="802">1.43596e-12</wgt>
  <wgt id="803">4.60938e-12</wgt>
  <wgt id="804">3.9555e-12</wgt>
  <wgt id="805">3.86177e-12</wgt>
  <wgt id="806">3.15942e-12</wgt>
  <wgt id="807">2.80513e-12</wgt>
  <wgt id="808">2.7479e-12</wgt>
  <wgt id="809">2.57337e-12</wgt>
  <wgt id="810">3.41871e-12</wgt>
  <wgt id="811">3.02607e-12</wgt>
  <wgt id="812">1.66386e-12</wgt>
  <wgt id="813">1.78828e-12</wgt>
  <wgt id="814">1.98912e-12</wgt>
  <wgt id="815">1.66984e-12</wgt>
  <wgt id="816">1.83189e-12</wgt>
  <wgt id="817">2.91318e-12</wgt>
  <wgt id="818">3.79039e-12</wgt>
  <wgt id="819">1.7695e-12</wgt>
  <wgt id="820">2.70506e-12</wgt>
  <wgt id="821">3.50844e-12</wgt>
  <wgt id="822">2.29647e-12</wgt>
  <wgt id="823">3.69436e-12</wgt>
  <wgt id="824">4.39028e-12</wgt>
  <wgt id="825">1.35759e-12</wgt>
  <wgt id="826">3.61166e-12</wgt>
  <wgt id="827">1.22163e-12</wgt>
  <wgt id="828">3.73292e-12</wgt>
  <wgt id="829">2.96785e-12</wgt>
  <wgt id="830">1.28835e-12</wgt>
  <wgt id="831">3.40566e-12</wgt>
  <wgt id="832">5.22542e-12</wgt>
  <wgt id="833">2.28686e-12</wgt>
  <wgt id="834">5.10364e-12</wgt>
  <wgt id="835">1.98767e-12</wgt>
  <wgt id="836">2.34949e-12</wgt>
  <wgt id="837">3.4181e-12</wgt>
  <wgt id="838">2.29466e-12</wgt>
  <wgt id="839">3.39753e-12</wgt>
  <wgt id="840">2.43742e-12</wgt>
  <wgt id="841">4.089e-12</wgt>
  <wgt id="842">2.85104e-12</wgt>
  <wgt id="843">3.10244e-12</wgt>
  <wgt id="844">3.2138e-12</wgt>
  <wgt id="845">5.14977e-12</wgt>
  <wgt id="846">2.88063e-12</wgt>
  <wgt id="847">3.08027e-12</wgt>
  <wgt id="848">1.7416e-12</wgt>
  <wgt id="849">3.14949e-12</wgt>
  <wgt id="850">4.47595e-12</wgt>
  <wgt id="851">3.42713e-12</wgt>
  <wgt id="852">1.46979e-12</wgt>
  <wgt id="853">3.58317e-12</wgt>
  <wgt id="854">4.06529e-12</wgt>
  <wgt id="855">3.59099e-12</wgt>
  <wgt id="856">1.27475e-12</wgt>
  <wgt id="857">2.50315e-12</wgt>
  <wgt id="858">2.69851e-12</wgt>
  <wgt id="859">2.75675e-12</wgt>
  <wgt id="860">3.71785e-12</wgt>
  <wgt id="861">2.35614e-12</wgt>
  <wgt id="862">2.95118e-12</wgt>
  <wgt id="863">3.35003e-12</wgt>
  <wgt id="864">2.97164e-12</wgt>
  <wgt id="865">4.735e-12</wgt>
  <wgt id="866">5.23315e-12</wgt>
  <wgt id="867">2.92458e-12</wgt>
  <wgt id="868">3.00211e-12</wgt>
  <wgt id="869">1.60827e-12</wgt>
  <wgt id="870">1.93939e-12</wgt>
  <wgt id="871">1.95594e-12</wgt>
  <wgt id="872">4.1863e-12</wgt>
  <wgt id="873">2.25184e-12</wgt>
  <wgt id="874">3.21302e-12</wgt>
  <wgt id="875">2.19748e-12</wgt>
  <wgt id="876">4.00359e-12</wgt>
  <wgt id="877">3.31729e-12</wgt>
  <wgt id="878">2.28859e-12</wgt>
  <wgt id="879">4.34208e-12</wgt>
  <wgt id="880">4.3886e-12</wgt>
  <wgt id="881">4.74934e-12</wgt>
  <wgt id="882">4.41138e-12</wgt>
  <wgt id="883">4.36933e-12</wgt>
  <wgt id="884">4.25158e-12</wgt>
  <wgt id="885">4.55464e-12</wgt>
  <wgt id="886">4.02063e-12</wgt>
  <wgt id="887">4.5746e-12</wgt>
  <wgt id="888">4.31557e-12</wgt>
  <wgt id="889">4.39925e-12</wgt>
  <wgt id="890">4.4911e-12</wgt>
  <wgt id="891">4.20876e-12</wgt>
  <wgt id="892">4.55139e-12</wgt>
  <wgt id="893">4.46336e-12</wgt>
  <wgt id="894">4.46019e-12</wgt>
  <wgt id="895">4.23924e-12</wgt>
  <wgt id="896">5.7129e-12</wgt>
  <wgt id="897">4.7743e-12</wgt>
  <wgt id="898">4.07584e-12</wgt>
  <wgt id="899">4.15487e-12</wgt>
  <wgt id="900">3.93788e-12</wgt>
  <wgt id="901">3.60356e-12</wgt>
  <wgt id="902">3.67755e-12</wgt>
  <wgt id="903">3.8237e-12</wgt>
  <wgt id="904">4.33854e-12</wgt>
  <wgt id="905">4.18432e-12</wgt>
  <wgt id="906">5.36787e-12</wgt>
  <wgt id="907">4.89456e-12</wgt>
  <wgt id="908">4.86556e-12</wgt>
  <wgt id="909">4.05281e-12</wgt>
  <wgt id="910">4.06838e-12</wgt>
  <wgt id="911">4.16004e-12</wgt>
  <wgt id="912">4.20524e-12</wgt>
  <wgt id="913">3.67619e-12</wgt>
  <wgt id="914">4.59183e-12</wgt>
  <wgt id="915">4.08032e-12</wgt>
  <wgt id="916">4.68457e-12</wgt>
  <wgt id="917">3.92936e-12</wgt>
  <wgt id="918">4.15404e-12</wgt>
  <wgt id="919">4.17572e-12</wgt>
  <wgt id="920">3.79807e-12</wgt>
  <wgt id="921">4.44039e-12</wgt>
  <wgt id="922">3.94732e-12</wgt>
  <wgt id="923">4.41121e-12</wgt>
  <wgt id="924">3.71397e-12</wgt>
  <wgt id="925">3.44542e-12</wgt>
  <wgt id="926">4.87241e-12</wgt>
  <wgt id="927">4.70444e-12</wgt>
  <wgt id="928">4.54697e-12</wgt>
  <wgt id="929">4.32235e-12</wgt>
  <wgt id="930">4.34908e-12</wgt>
  <wgt id="931">4.2432e-12</wgt>
  <wgt id="932">4.00482e-12</wgt>
  <wgt id="933">4.80971e-12</wgt>
  <wgt id="934">4.26963e-12</wgt>
  <wgt id="935">5.04592e-12</wgt>
  <wgt id="936">4.05274e-12</wgt>
  <wgt id="937">4.49026e-12</wgt>
  <wgt id="938">4.3524e-12</wgt>
  <wgt id="939">4.03707e-12</wgt>
  <wgt id="940">4.08654e-12</wgt>
  <wgt id="941">4.12744e-12</wgt>
  <wgt id="942">4.63267e-12</wgt>
  <wgt id="943">5.12475e-12</wgt>
  <wgt id="944">4.46441e-12</wgt>
  <wgt id="945">4.18378e-12</wgt>
  <wgt id="946">3.96089e-12</wgt>
  <wgt id="947">4.25618e-12</wgt>
  <wgt id="948">4.73684e-12</wgt>
  <wgt id="949">4.8688e-12</wgt>
  <wgt id="950">3.61996e-12</wgt>
  <wgt id="951">4.19458e-12</wgt>
  <wgt id="952">4.51959e-12</wgt>
  <wgt id="953">4.68464e-12</wgt>
  <wgt id="954">4.38027e-12</wgt>
  <wgt id="955">3.90482e-12</wgt>
  <wgt id="956">3.89722e-12</wgt>
  <wgt id="957">4.54119e-12</wgt>
  <wgt id="958">4.25131e-12</wgt>
  <wgt id="959">4.22099e-12</wgt>
  <wgt id="960">3.76402e-12</wgt>
  <wgt id="961">4.23301e-12</wgt>
  <wgt id="962">4.7598e-12</wgt>
  <wgt id="963">4.17792e-12</wgt>
  <wgt id="964">4.80011e-12</wgt>
  <wgt id="965">4.8227e-12</wgt>
  <wgt id="966">4.43128e-12</wgt>
  <wgt id="967">4.63622e-12</wgt>
  <wgt id="968">4.39605e-12</wgt>
  <wgt id="969">4.39432e-12</wgt>
  <wgt id="970">4.43272e-12</wgt>
  <wgt id="971">3.95334e-12</wgt>
  <wgt id="972">4.5824e-12</wgt>
  <wgt id="973">4.09217e-12</wgt>
  <wgt id="974">5.33746e-12</wgt>
  <wgt id="975">4.21645e-12</wgt>
  <wgt id="976">4.35164e-12</wgt>
  <wgt id="977">3.45267e-12</wgt>
  <wgt id="978">4.55591e-12</wgt>
  <wgt id="979">4.9789e-12</wgt>
  <wgt id="980">4.3125e-12</wgt>
  <wgt id="981">4.43375e-12</wgt>
  <wgt id="982">4.20691e-12</wgt>
</rwgt>
</event>
<event>
 5   1  0.3028200E-11  0.2497640E+04  0.7818608E-02  0.7645210E-01
       21   -1    0    0  502  501  0.00000000000E+00  0.00000000000E+00  0.21157706589E+04  0.21157706589E+04  0.00000000000E+00 0.  1.
       21   -1    0    0  501  502 -0.00000000000E+00 -0.00000000000E+00 -0.73710791211E+03  0.73710791211E+03  0.00000000000E+00 0. -1.
       39    2    1    2    0    0  0.00000000000E+00  0.00000000000E+00  0.13786627468E+04  0.28528785710E+04  0.24976399203E+04 0.  0.
       25    1    3    3    0    0 -0.10162415439E+04  0.22941216890E+03 -0.84144122434E+02  0.10526547640E+04  0.12500000000E+03 0.  0.
       25    1    3    3    0    0  0.10162415439E+04 -0.22941216890E+03  0.14628068692E+04  0.18002238070E+04  0.12500000000E+03 0.  0.
<mgrwt>
<rscale>  0 0.24976399E+04</rscale>
<asrwt>0</asrwt>
<pdfrwt beam="1">  1       21 0.32550318E+00 0.24976399E+04</pdfrwt>
<pdfrwt beam="2">  1       21 0.11340122E+00 0.24976399E+04</pdfrwt>
<totfact> 0.47187481E+00</totfact>
</mgrwt>
<rwgt>
  <wgt id="1">3.0282e-12</wgt>
  <wgt id="2">2.60642e-12</wgt>
  <wgt id="3">3.55853e-12</wgt>
  <wgt id="4">3.0282e-12</wgt>
  <wgt id="5">2.60642e-12</wgt>
  <wgt id="6">3.55853e-12</wgt>
  <wgt id="7">3.0282e-12</wgt>
  <wgt id="8">2.60642e-12</wgt>
  <wgt id="9">3.55853e-12</wgt>
  <wgt id="10">3.20307e-12</wgt>
  <wgt id="11">3.20204e-12</wgt>
  <wgt id="12">3.19487e-12</wgt>
  <wgt id="13">3.19621e-12</wgt>
  <wgt id="14">3.21327e-12</wgt>
  <wgt id="15">3.20831e-12</wgt>
  <wgt id="16">3.19471e-12</wgt>
  <wgt id="17">3.22074e-12</wgt>
  <wgt id="18">3.20025e-12</wgt>
  <wgt id="19">3.21656e-12</wgt>
  <wgt id="20">3.2017e-12</wgt>
  <wgt id="21">3.17701e-12</wgt>
  <wgt id="22">3.1797e-12</wgt>
  <wgt id="23">3.1525e-12</wgt>
  <wgt id="24">3.17768e-12</wgt>
  <wgt id="25">3.19051e-12</wgt>
  <wgt id="26">3.2122e-12</wgt>
  <wgt id="27">3.19659e-12</wgt>
  <wgt id="28">3.18186e-12</wgt>
  <wgt id="29">3.20409e-12</wgt>
  <wgt id="30">3.17612e-12</wgt>
  <wgt id="31">3.21759e-12</wgt>
  <wgt id="32">3.17756e-12</wgt>
  <wgt id="33">3.20743e-12</wgt>
  <wgt id="34">3.18161e-12</wgt>
  <wgt id="35">3.17961e-12</wgt>
  <wgt id="36">3.21852e-12</wgt>
  <wgt id="37">3.19171e-12</wgt>
  <wgt id="38">3.18914e-12</wgt>
  <wgt id="39">3.26254e-12</wgt>
  <wgt id="40">3.20804e-12</wgt>
  <wgt id="41">3.20049e-12</wgt>
  <wgt id="42">3.21197e-12</wgt>
  <wgt id="43">3.20662e-12</wgt>
  <wgt id="44">3.21717e-12</wgt>
  <wgt id="45">3.20705e-12</wgt>
  <wgt id="46">3.18924e-12</wgt>
  <wgt id="47">3.23316e-12</wgt>
  <wgt id="48">3.22349e-12</wgt>
  <wgt id="49">3.18863e-12</wgt>
  <wgt id="50">3.17681e-12</wgt>
  <wgt id="51">3.18274e-12</wgt>
  <wgt id="52">3.20821e-12</wgt>
  <wgt id="53">3.23582e-12</wgt>
  <wgt id="54">3.21939e-12</wgt>
  <wgt id="55">3.20106e-12</wgt>
  <wgt id="56">3.18545e-12</wgt>
  <wgt id="57">3.18258e-12</wgt>
  <wgt id="58">3.20011e-12</wgt>
  <wgt id="59">3.20891e-12</wgt>
  <wgt id="60">3.17524e-12</wgt>
  <wgt id="61">3.18592e-12</wgt>
  <wgt id="62">3.19759e-12</wgt>
  <wgt id="63">3.20055e-12</wgt>
  <wgt id="64">3.20011e-12</wgt>
  <wgt id="65">3.18909e-12</wgt>
  <wgt id="66">3.20697e-12</wgt>
  <wgt id="67">3.20036e-12</wgt>
  <wgt id="68">3.20181e-12</wgt>
  <wgt id="69">3.19671e-12</wgt>
  <wgt id="70">3.19249e-12</wgt>
  <wgt id="71">3.20177e-12</wgt>
  <wgt id="72">3.18525e-12</wgt>
  <wgt id="73">3.2157e-12</wgt>
  <wgt id="74">3.21593e-12</wgt>
  <wgt id="75">3.20112e-12</wgt>
  <wgt id="76">3.22529e-12</wgt>
  <wgt id="77">3.19666e-12</wgt>
  <wgt id="78">3.20005e-12</wgt>
  <wgt id="79">3.21166e-12</wgt>
  <wgt id="80">3.17517e-12</wgt>
  <wgt id="81">3.20206e-12</wgt>
  <wgt id="82">3.20621e-12</wgt>
  <wgt id="83">3.1817e-12</wgt>
  <wgt id="84">3.19192e-12</wgt>
  <wgt id="85">3.18936e-12</wgt>
  <wgt id="86">3.21713e-12</wgt>
  <wgt id="87">3.17157e-12</wgt>
  <wgt id="88">3.21264e-12</wgt>
  <wgt id="89">3.20923e-12</wgt>
  <wgt id="90">3.21538e-12</wgt>
  <wgt id="91">3.20731e-12</wgt>
  <wgt id="92">3.21278e-12</wgt>
  <wgt id="93">3.20716e-12</wgt>
  <wgt id="94">3.19385e-12</wgt>
  <wgt id="95">3.21454e-12</wgt>
  <wgt id="96">3.21167e-12</wgt>
  <wgt id="97">3.18946e-12</wgt>
  <wgt id="98">3.20295e-12</wgt>
  <wgt id="99">3.19809e-12</wgt>
  <wgt id="100">3.21061e-12</wgt>
  <wgt id="101">3.19871e-12</wgt>
  <wgt id="102">3.19689e-12</wgt>
  <wgt id="103">3.21527e-12</wgt>
  <wgt id="104">3.19695e-12</wgt>
  <wgt id="105">3.21106e-12</wgt>
  <wgt id="106">3.19407e-12</wgt>
  <wgt id="107">3.22315e-12</wgt>
  <wgt id="108">3.19661e-12</wgt>
  <wgt id="109">3.2054e-12</wgt>
  <wgt id="110">3.20198e-12</wgt>
  <wgt id="111">3.20784e-12</wgt>
  <wgt id="112">3.24399e-12</wgt>
  <wgt id="113">4.66237e-12</wgt>
  <wgt id="114">4.33485e-12</wgt>
  <wgt id="115">4.25678e-12</wgt>
  <wgt id="116">6.03444e-12</wgt>
  <wgt id="117">3.56971e-12</wgt>
  <wgt id="118">3.58396e-12</wgt>
  <wgt id="119">3.56155e-12</wgt>
  <wgt id="120">3.56975e-12</wgt>
  <wgt id="121">3.56964e-12</wgt>
  <wgt id="122">3.56419e-12</wgt>
  <wgt id="123">3.57737e-12</wgt>
  <wgt id="124">3.56508e-12</wgt>
  <wgt id="125">3.57269e-12</wgt>
  <wgt id="126">3.57558e-12</wgt>
  <wgt id="127">3.56577e-12</wgt>
  <wgt id="128">3.58057e-12</wgt>
  <wgt id="129">3.55887e-12</wgt>
  <wgt id="130">3.58798e-12</wgt>
  <wgt id="131">3.55076e-12</wgt>
  <wgt id="132">3.46836e-12</wgt>
  <wgt id="133">3.69087e-12</wgt>
  <wgt id="134">3.52985e-12</wgt>
  <wgt id="135">3.601e-12</wgt>
  <wgt id="136">3.62629e-12</wgt>
  <wgt id="137">3.50176e-12</wgt>
  <wgt id="138">3.7375e-12</wgt>
  <wgt id="139">3.41087e-12</wgt>
  <wgt id="140">3.55274e-12</wgt>
  <wgt id="141">3.58257e-12</wgt>
  <wgt id="142">3.56884e-12</wgt>
  <wgt id="143">3.58102e-12</wgt>
  <wgt id="144">3.41442e-12</wgt>
  <wgt id="145">3.72133e-12</wgt>
  <wgt id="146">3.61999e-12</wgt>
  <wgt id="147">3.52858e-12</wgt>
  <wgt id="148">3.58328e-12</wgt>
  <wgt id="149">3.56875e-12</wgt>
  <wgt id="150">3.60057e-12</wgt>
  <wgt id="151">3.5552e-12</wgt>
  <wgt id="152">3.57088e-12</wgt>
  <wgt id="153">3.56931e-12</wgt>
  <wgt id="154">3.57749e-12</wgt>
  <wgt id="155">3.55378e-12</wgt>
  <wgt id="156">3.6973e-12</wgt>
  <wgt id="157">3.45466e-12</wgt>
  <wgt id="158">4.2748e-12</wgt>
  <wgt id="159">4.29302e-12</wgt>
  <wgt id="160">4.26001e-12</wgt>
  <wgt id="161">4.26307e-12</wgt>
  <wgt id="162">4.28778e-12</wgt>
  <wgt id="163">4.26957e-12</wgt>
  <wgt id="164">4.28246e-12</wgt>
  <wgt id="165">4.27634e-12</wgt>
  <wgt id="166">4.27353e-12</wgt>
  <wgt id="167">4.27181e-12</wgt>
  <wgt id="168">4.2788e-12</wgt>
  <wgt id="169">4.25754e-12</wgt>
  <wgt id="170">4.28543e-12</wgt>
  <wgt id="171">4.271e-12</wgt>
  <wgt id="172">4.27999e-12</wgt>
  <wgt id="173">4.2669e-12</wgt>
  <wgt id="174">4.27738e-12</wgt>
  <wgt id="175">4.14511e-12</wgt>
  <wgt id="176">4.44506e-12</wgt>
  <wgt id="177">4.29609e-12</wgt>
  <wgt id="178">4.25544e-12</wgt>
  <wgt id="179">4.50027e-12</wgt>
  <wgt id="180">3.92816e-12</wgt>
  <wgt id="181">4.1267e-12</wgt>
  <wgt id="182">4.37361e-12</wgt>
  <wgt id="183">4.18498e-12</wgt>
  <wgt id="184">4.31937e-12</wgt>
  <wgt id="185">4.22628e-12</wgt>
  <wgt id="186">4.3339e-12</wgt>
  <wgt id="187">4.22604e-12</wgt>
  <wgt id="188">4.36095e-12</wgt>
  <wgt id="189">4.23997e-12</wgt>
  <wgt id="190">4.28883e-12</wgt>
  <wgt id="191">4.29034e-12</wgt>
  <wgt id="192">4.26552e-12</wgt>
  <wgt id="193">4.34973e-12</wgt>
  <wgt id="194">4.23718e-12</wgt>
  <wgt id="195">4.10923e-12</wgt>
  <wgt id="196">4.54394e-12</wgt>
  <wgt id="197">4.29878e-12</wgt>
  <wgt id="198">4.26898e-12</wgt>
  <wgt id="199">4.2748e-12</wgt>
  <wgt id="200">4.31745e-12</wgt>
  <wgt id="201">4.30292e-12</wgt>
  <wgt id="202">4.28886e-12</wgt>
  <wgt id="203">4.26852e-12</wgt>
  <wgt id="204">4.2583e-12</wgt>
  <wgt id="205">4.24997e-12</wgt>
  <wgt id="206">4.16715e-12</wgt>
  <wgt id="207">4.19243e-12</wgt>
  <wgt id="208">4.14221e-12</wgt>
  <wgt id="209">4.18129e-12</wgt>
  <wgt id="210">4.15694e-12</wgt>
  <wgt id="211">4.16544e-12</wgt>
  <wgt id="212">4.16853e-12</wgt>
  <wgt id="213">4.16681e-12</wgt>
  <wgt id="214">4.1677e-12</wgt>
  <wgt id="215">4.17067e-12</wgt>
  <wgt id="216">4.16465e-12</wgt>
  <wgt id="217">4.17755e-12</wgt>
  <wgt id="218">4.15918e-12</wgt>
  <wgt id="219">4.16319e-12</wgt>
  <wgt id="220">4.16954e-12</wgt>
  <wgt id="221">4.16844e-12</wgt>
  <wgt id="222">4.16327e-12</wgt>
  <wgt id="223">3.92107e-12</wgt>
  <wgt id="224">4.39332e-12</wgt>
  <wgt id="225">4.11299e-12</wgt>
  <wgt id="226">4.23616e-12</wgt>
  <wgt id="227">4.12542e-12</wgt>
  <wgt id="228">4.18547e-12</wgt>
  <wgt id="229">4.10497e-12</wgt>
  <wgt id="230">4.19813e-12</wgt>
  <wgt id="231">4.31302e-12</wgt>
  <wgt id="232">4.04817e-12</wgt>
  <wgt id="233">4.14006e-12</wgt>
  <wgt id="234">4.21273e-12</wgt>
  <wgt id="235">3.9896e-12</wgt>
  <wgt id="236">4.31226e-12</wgt>
  <wgt id="237">4.0635e-12</wgt>
  <wgt id="238">4.20173e-12</wgt>
  <wgt id="239">4.12541e-12</wgt>
  <wgt id="240">4.242e-12</wgt>
  <wgt id="241">4.11438e-12</wgt>
  <wgt id="242">4.22993e-12</wgt>
  <wgt id="243">4.24691e-12</wgt>
  <wgt id="244">4.16707e-12</wgt>
  <wgt id="245">4.16564e-12</wgt>
  <wgt id="246">4.19108e-12</wgt>
  <wgt id="247">4.16715e-12</wgt>
  <wgt id="248">4.21289e-12</wgt>
  <wgt id="249">4.19719e-12</wgt>
  <wgt id="250">4.1806e-12</wgt>
  <wgt id="251">4.1584e-12</wgt>
  <wgt id="252">4.14686e-12</wgt>
  <wgt id="253">4.13908e-12</wgt>
  <wgt id="254">4.02225e-12</wgt>
  <wgt id="255">4.02594e-12</wgt>
  <wgt id="256">4.01827e-12</wgt>
  <wgt id="257">4.02533e-12</wgt>
  <wgt id="258">4.02008e-12</wgt>
  <wgt id="259">4.0494e-12</wgt>
  <wgt id="260">3.99608e-12</wgt>
  <wgt id="261">4.02987e-12</wgt>
  <wgt id="262">4.01327e-12</wgt>
  <wgt id="263">4.01913e-12</wgt>
  <wgt id="264">4.02603e-12</wgt>
  <wgt id="265">4.01695e-12</wgt>
  <wgt id="266">4.03298e-12</wgt>
  <wgt id="267">4.02376e-12</wgt>
  <wgt id="268">4.02025e-12</wgt>
  <wgt id="269">4.03586e-12</wgt>
  <wgt id="270">4.01306e-12</wgt>
  <wgt id="271">4.01154e-12</wgt>
  <wgt id="272">4.03427e-12</wgt>
  <wgt id="273">4.01079e-12</wgt>
  <wgt id="274">4.03104e-12</wgt>
  <wgt id="275">3.99711e-12</wgt>
  <wgt id="276">4.04838e-12</wgt>
  <wgt id="277">3.99835e-12</wgt>
  <wgt id="278">4.04409e-12</wgt>
  <wgt id="279">3.94268e-12</wgt>
  <wgt id="280">4.12265e-12</wgt>
  <wgt id="281">4.00187e-12</wgt>
  <wgt id="282">4.02827e-12</wgt>
  <wgt id="283">3.8854e-12</wgt>
  <wgt id="284">4.19351e-12</wgt>
  <wgt id="285">3.79778e-12</wgt>
  <wgt id="286">4.21265e-12</wgt>
  <wgt id="287">4.03693e-12</wgt>
  <wgt id="288">4.00358e-12</wgt>
  <wgt id="289">4.05607e-12</wgt>
  <wgt id="290">3.94776e-12</wgt>
  <wgt id="291">4.00618e-12</wgt>
  <wgt id="292">4.02254e-12</wgt>
  <wgt id="293">3.98558e-12</wgt>
  <wgt id="294">4.05885e-12</wgt>
  <wgt id="295">3.93388e-12</wgt>
  <wgt id="296">4.13078e-12</wgt>
  <wgt id="297">4.01119e-12</wgt>
  <wgt id="298">4.04442e-12</wgt>
  <wgt id="299">4.00792e-12</wgt>
  <wgt id="300">4.06065e-12</wgt>
  <wgt id="301">3.93313e-12</wgt>
  <wgt id="302">4.22571e-12</wgt>
  <wgt id="303">3.97453e-12</wgt>
  <wgt id="304">4.04896e-12</wgt>
  <wgt id="305">3.98452e-12</wgt>
  <wgt id="306">3.98837e-12</wgt>
  <wgt id="307">3.98046e-12</wgt>
  <wgt id="308">3.9879e-12</wgt>
  <wgt id="309">3.9823e-12</wgt>
  <wgt id="310">4.01221e-12</wgt>
  <wgt id="311">3.95897e-12</wgt>
  <wgt id="312">3.99152e-12</wgt>
  <wgt id="313">3.97711e-12</wgt>
  <wgt id="314">3.98126e-12</wgt>
  <wgt id="315">3.98767e-12</wgt>
  <wgt id="316">3.97917e-12</wgt>
  <wgt id="317">3.99616e-12</wgt>
  <wgt id="318">3.98776e-12</wgt>
  <wgt id="319">3.97891e-12</wgt>
  <wgt id="320">3.99906e-12</wgt>
  <wgt id="321">3.97642e-12</wgt>
  <wgt id="322">3.97267e-12</wgt>
  <wgt id="323">3.99825e-12</wgt>
  <wgt id="324">3.97582e-12</wgt>
  <wgt id="325">3.99212e-12</wgt>
  <wgt id="326">3.96395e-12</wgt>
  <wgt id="327">4.01096e-12</wgt>
  <wgt id="328">3.96381e-12</wgt>
  <wgt id="329">3.9959e-12</wgt>
  <wgt id="330">4.10433e-12</wgt>
  <wgt id="331">3.87086e-12</wgt>
  <wgt id="332">3.96756e-12</wgt>
  <wgt id="333">3.98824e-12</wgt>
  <wgt id="334">3.88045e-12</wgt>
  <wgt id="335">4.1154e-12</wgt>
  <wgt id="336">3.82551e-12</wgt>
  <wgt id="337">4.18227e-12</wgt>
  <wgt id="338">4.03546e-12</wgt>
  <wgt id="339">3.9377e-12</wgt>
  <wgt id="340">4.01498e-12</wgt>
  <wgt id="341">3.90968e-12</wgt>
  <wgt id="342">3.97295e-12</wgt>
  <wgt id="343">3.97641e-12</wgt>
  <wgt id="344">3.95247e-12</wgt>
  <wgt id="345">4.02179e-12</wgt>
  <wgt id="346">3.89427e-12</wgt>
  <wgt id="347">4.08816e-12</wgt>
  <wgt id="348">3.97385e-12</wgt>
  <wgt id="349">4.00467e-12</wgt>
  <wgt id="350">3.9668e-12</wgt>
  <wgt id="351">4.02964e-12</wgt>
  <wgt id="352">3.89327e-12</wgt>
  <wgt id="353">4.18345e-12</wgt>
  <wgt id="354">3.91645e-12</wgt>
  <wgt id="355">4.02484e-12</wgt>
  <wgt id="356">4.02225e-12</wgt>
  <wgt id="357">3.98719e-12</wgt>
  <wgt id="358">3.98452e-12</wgt>
  <wgt id="359">4.0211e-12</wgt>
  <wgt id="360">4.09538e-12</wgt>
  <wgt id="361">4.04416e-12</wgt>
  <wgt id="362">4.12898e-12</wgt>
  <wgt id="363">4.11777e-12</wgt>
  <wgt id="364">4.09659e-12</wgt>
  <wgt id="365">4.08014e-12</wgt>
  <wgt id="366">4.06342e-12</wgt>
  <wgt id="367">4.03173e-12</wgt>
  <wgt id="368">4.01166e-12</wgt>
  <wgt id="369">3.99e-12</wgt>
  <wgt id="370">4.04416e-12</wgt>
  <wgt id="371">4.06138e-12</wgt>
  <wgt id="372">4.05169e-12</wgt>
  <wgt id="373">4.03805e-12</wgt>
  <wgt id="374">4.04331e-12</wgt>
  <wgt id="375">4.64027e-12</wgt>
  <wgt id="376">4.64071e-12</wgt>
  <wgt id="377">4.63961e-12</wgt>
  <wgt id="378">4.65806e-12</wgt>
  <wgt id="379">4.62256e-12</wgt>
  <wgt id="380">4.65341e-12</wgt>
  <wgt id="381">4.635e-12</wgt>
  <wgt id="382">4.66346e-12</wgt>
  <wgt id="383">4.6173e-12</wgt>
  <wgt id="384">4.6433e-12</wgt>
  <wgt id="385">4.6373e-12</wgt>
  <wgt id="386">4.65686e-12</wgt>
  <wgt id="387">4.63309e-12</wgt>
  <wgt id="388">4.63597e-12</wgt>
  <wgt id="389">4.64551e-12</wgt>
  <wgt id="390">4.65154e-12</wgt>
  <wgt id="391">4.62825e-12</wgt>
  <wgt id="392">4.59583e-12</wgt>
  <wgt id="393">4.66544e-12</wgt>
  <wgt id="394">4.64383e-12</wgt>
  <wgt id="395">4.6351e-12</wgt>
  <wgt id="396">4.64916e-12</wgt>
  <wgt id="397">4.63392e-12</wgt>
  <wgt id="398">4.62884e-12</wgt>
  <wgt id="399">4.65125e-12</wgt>
  <wgt id="400">4.63203e-12</wgt>
  <wgt id="401">4.65873e-12</wgt>
  <wgt id="402">4.59444e-12</wgt>
  <wgt id="403">4.66934e-12</wgt>
  <wgt id="404">4.78138e-12</wgt>
  <wgt id="405">4.30583e-12</wgt>
  <wgt id="406">4.53927e-12</wgt>
  <wgt id="407">4.86514e-12</wgt>
  <wgt id="408">4.69321e-12</wgt>
  <wgt id="409">4.54277e-12</wgt>
  <wgt id="410">4.47672e-12</wgt>
  <wgt id="411">4.71926e-12</wgt>
  <wgt id="412">4.62896e-12</wgt>
  <wgt id="413">4.65714e-12</wgt>
  <wgt id="414">4.57517e-12</wgt>
  <wgt id="415">4.69089e-12</wgt>
  <wgt id="416">4.80832e-12</wgt>
  <wgt id="417">4.41039e-12</wgt>
  <wgt id="418">4.64991e-12</wgt>
  <wgt id="419">4.58828e-12</wgt>
  <wgt id="420">4.76468e-12</wgt>
  <wgt id="421">4.55773e-12</wgt>
  <wgt id="422">4.60859e-12</wgt>
  <wgt id="423">4.65507e-12</wgt>
  <wgt id="424">4.78992e-12</wgt>
  <wgt id="425">4.53907e-12</wgt>
  <wgt id="426">4.64027e-12</wgt>
  <wgt id="427">4.54242e-12</wgt>
  <wgt id="428">4.86571e-12</wgt>
  <wgt id="429">4.70789e-12</wgt>
  <wgt id="430">4.8711e-12</wgt>
  <wgt id="431">4.83763e-12</wgt>
  <wgt id="432">4.80762e-12</wgt>
  <wgt id="433">4.7781e-12</wgt>
  <wgt id="434">4.74026e-12</wgt>
  <wgt id="435">4.66731e-12</wgt>
  <wgt id="436">4.63057e-12</wgt>
  <wgt id="437">4.59468e-12</wgt>
  <wgt id="438">4.70789e-12</wgt>
  <wgt id="439">4.72238e-12</wgt>
  <wgt id="440">4.71332e-12</wgt>
  <wgt id="441">4.70409e-12</wgt>
  <wgt id="442">4.70119e-12</wgt>
  <wgt id="443">4.22419e-12</wgt>
  <wgt id="444">4.27023e-12</wgt>
  <wgt id="445">4.26388e-12</wgt>
  <wgt id="446">4.19337e-12</wgt>
  <wgt id="447">4.22193e-12</wgt>
  <wgt id="448">4.11553e-12</wgt>
  <wgt id="449">4.31768e-12</wgt>
  <wgt id="450">4.27519e-12</wgt>
  <wgt id="451">4.21183e-12</wgt>
  <wgt id="452">4.32384e-12</wgt>
  <wgt id="453">4.28336e-12</wgt>
  <wgt id="454">3.99549e-12</wgt>
  <wgt id="455">4.25932e-12</wgt>
  <wgt id="456">4.29904e-12</wgt>
  <wgt id="457">4.24059e-12</wgt>
  <wgt id="458">4.30024e-12</wgt>
  <wgt id="459">4.26324e-12</wgt>
  <wgt id="460">4.30964e-12</wgt>
  <wgt id="461">4.11578e-12</wgt>
  <wgt id="462">4.18869e-12</wgt>
  <wgt id="463">4.15375e-12</wgt>
  <wgt id="464">4.20086e-12</wgt>
  <wgt id="465">4.27364e-12</wgt>
  <wgt id="466">4.11609e-12</wgt>
  <wgt id="467">4.1878e-12</wgt>
  <wgt id="468">4.22021e-12</wgt>
  <wgt id="469">4.21029e-12</wgt>
  <wgt id="470">4.155e-12</wgt>
  <wgt id="471">4.1667e-12</wgt>
  <wgt id="472">4.25647e-12</wgt>
  <wgt id="473">4.06903e-12</wgt>
  <wgt id="474">3.0282e-12</wgt>
  <wgt id="475">3.04104e-12</wgt>
  <wgt id="476">3.01741e-12</wgt>
  <wgt id="477">3.10245e-12</wgt>
  <wgt id="478">3.07263e-12</wgt>
  <wgt id="479">2.86815e-12</wgt>
  <wgt id="480">3.19218e-12</wgt>
  <wgt id="481">3.04363e-12</wgt>
  <wgt id="482">3.02863e-12</wgt>
  <wgt id="483">3.05451e-12</wgt>
  <wgt id="484">3.17483e-12</wgt>
  <wgt id="485">2.77183e-12</wgt>
  <wgt id="486">3.17703e-12</wgt>
  <wgt id="487">2.94302e-12</wgt>
  <wgt id="488">3.05108e-12</wgt>
  <wgt id="489">2.70402e-12</wgt>
  <wgt id="490">2.97974e-12</wgt>
  <wgt id="491">2.97998e-12</wgt>
  <wgt id="492">2.97001e-12</wgt>
  <wgt id="493">2.78622e-12</wgt>
  <wgt id="494">2.79636e-12</wgt>
  <wgt id="495">3.04853e-12</wgt>
  <wgt id="496">2.8629e-12</wgt>
  <wgt id="497">2.82078e-12</wgt>
  <wgt id="498">3.11404e-12</wgt>
  <wgt id="499">3.05356e-12</wgt>
  <wgt id="500">2.99889e-12</wgt>
  <wgt id="501">3.16824e-12</wgt>
  <wgt id="502">3.15635e-12</wgt>
  <wgt id="503">2.96612e-12</wgt>
  <wgt id="504">3.13041e-12</wgt>
  <wgt id="505">3.16671e-12</wgt>
  <wgt id="506">2.79899e-12</wgt>
  <wgt id="507">2.96149e-12</wgt>
  <wgt id="508">3.19031e-12</wgt>
  <wgt id="509">2.93479e-12</wgt>
  <wgt id="510">3.05815e-12</wgt>
  <wgt id="511">2.86914e-12</wgt>
  <wgt id="512">3.24842e-12</wgt>
  <wgt id="513">3.17403e-12</wgt>
  <wgt id="514">3.20551e-12</wgt>
  <wgt id="515">3.12025e-12</wgt>
  <wgt id="516">3.35766e-12</wgt>
  <wgt id="517">3.10513e-12</wgt>
  <wgt id="518">3.14935e-12</wgt>
  <wgt id="519">2.9004e-12</wgt>
  <wgt id="520">3.06532e-12</wgt>
  <wgt id="521">2.95565e-12</wgt>
  <wgt id="522">3.15201e-12</wgt>
  <wgt id="523">2.88663e-12</wgt>
  <wgt id="524">3.11436e-12</wgt>
  <wgt id="525">2.96069e-12</wgt>
  <wgt id="526">3.19782e-12</wgt>
  <wgt id="527">2.99464e-12</wgt>
  <wgt id="528">3.01504e-12</wgt>
  <wgt id="529">2.87318e-12</wgt>
  <wgt id="530">3.18877e-12</wgt>
  <wgt id="531">2.89505e-12</wgt>
  <wgt id="532">3.29902e-12</wgt>
  <wgt id="533">3.01327e-12</wgt>
  <wgt id="534">2.90045e-12</wgt>
  <wgt id="535">3.07891e-12</wgt>
  <wgt id="536">3.14358e-12</wgt>
  <wgt id="537">2.86581e-12</wgt>
  <wgt id="538">3.00432e-12</wgt>
  <wgt id="539">2.9499e-12</wgt>
  <wgt id="540">3.20068e-12</wgt>
  <wgt id="541">3.01609e-12</wgt>
  <wgt id="542">2.9521e-12</wgt>
  <wgt id="543">2.9086e-12</wgt>
  <wgt id="544">3.05924e-12</wgt>
  <wgt id="545">2.85718e-12</wgt>
  <wgt id="546">2.79086e-12</wgt>
  <wgt id="547">2.90903e-12</wgt>
  <wgt id="548">2.92799e-12</wgt>
  <wgt id="549">2.96468e-12</wgt>
  <wgt id="550">2.93246e-12</wgt>
  <wgt id="551">3.03545e-12</wgt>
  <wgt id="552">2.79192e-12</wgt>
  <wgt id="553">2.82959e-12</wgt>
  <wgt id="554">3.18756e-12</wgt>
  <wgt id="555">3.10284e-12</wgt>
  <wgt id="556">2.97974e-12</wgt>
  <wgt id="557">3.08819e-12</wgt>
  <wgt id="558">2.99369e-12</wgt>
  <wgt id="559">3.06762e-12</wgt>
  <wgt id="560">3.36142e-12</wgt>
  <wgt id="561">3.11374e-12</wgt>
  <wgt id="562">3.139e-12</wgt>
  <wgt id="563">3.3349e-12</wgt>
  <wgt id="564">3.20538e-12</wgt>
  <wgt id="565">3.1452e-12</wgt>
  <wgt id="566">2.91675e-12</wgt>
  <wgt id="567">3.02797e-12</wgt>
  <wgt id="568">2.90641e-12</wgt>
  <wgt id="569">3.04995e-12</wgt>
  <wgt id="570">3.04333e-12</wgt>
  <wgt id="571">3.37291e-12</wgt>
  <wgt id="572">2.90983e-12</wgt>
  <wgt id="573">2.93487e-12</wgt>
  <wgt id="574">2.95596e-12</wgt>
  <wgt id="575">3.35893e-12</wgt>
  <wgt id="576">3.67246e-12</wgt>
  <wgt id="577">3.49732e-12</wgt>
  <wgt id="578">3.38761e-12</wgt>
  <wgt id="579">3.48904e-12</wgt>
  <wgt id="580">3.57781e-12</wgt>
  <wgt id="581">3.71286e-12</wgt>
  <wgt id="582">3.59235e-12</wgt>
  <wgt id="583">3.4357e-12</wgt>
  <wgt id="584">3.32515e-12</wgt>
  <wgt id="585">3.10447e-12</wgt>
  <wgt id="586">3.1497e-12</wgt>
  <wgt id="587">3.42306e-12</wgt>
  <wgt id="588">3.70825e-12</wgt>
  <wgt id="589">3.69581e-12</wgt>
  <wgt id="590">3.34396e-12</wgt>
  <wgt id="591">3.45547e-12</wgt>
  <wgt id="592">3.15521e-12</wgt>
  <wgt id="593">3.25143e-12</wgt>
  <wgt id="594">3.26674e-12</wgt>
  <wgt id="595">3.54601e-12</wgt>
  <wgt id="596">3.97346e-12</wgt>
  <wgt id="597">3.40653e-12</wgt>
  <wgt id="598">3.4373e-12</wgt>
  <wgt id="599">3.59233e-12</wgt>
  <wgt id="600">3.61535e-12</wgt>
  <wgt id="601">3.21127e-12</wgt>
  <wgt id="602">3.24364e-12</wgt>
  <wgt id="603">3.13139e-12</wgt>
  <wgt id="604">3.45482e-12</wgt>
  <wgt id="605">3.383e-12</wgt>
  <wgt id="606">3.40468e-12</wgt>
  <wgt id="607">3.52655e-12</wgt>
  <wgt id="608">3.48667e-12</wgt>
  <wgt id="609">3.30706e-12</wgt>
  <wgt id="610">3.1981e-12</wgt>
  <wgt id="611">3.20053e-12</wgt>
  <wgt id="612">3.47571e-12</wgt>
  <wgt id="613">3.18526e-12</wgt>
  <wgt id="614">3.33322e-12</wgt>
  <wgt id="615">3.42456e-12</wgt>
  <wgt id="616">3.19967e-12</wgt>
  <wgt id="617">3.50162e-12</wgt>
  <wgt id="618">3.68383e-12</wgt>
  <wgt id="619">3.28772e-12</wgt>
  <wgt id="620">3.46389e-12</wgt>
  <wgt id="621">3.31833e-12</wgt>
  <wgt id="622">3.42306e-12</wgt>
  <wgt id="623">3.36041e-12</wgt>
  <wgt id="624">3.37199e-12</wgt>
  <wgt id="625">3.18874e-12</wgt>
  <wgt id="626">2.95468e-12</wgt>
  <wgt id="627">3.01452e-12</wgt>
  <wgt id="628">3.35063e-12</wgt>
  <wgt id="629">3.45428e-12</wgt>
  <wgt id="630">3.28257e-12</wgt>
  <wgt id="631">3.45796e-12</wgt>
  <wgt id="632">3.05508e-12</wgt>
  <wgt id="633">3.33272e-12</wgt>
  <wgt id="634">3.20834e-12</wgt>
  <wgt id="635">3.09422e-12</wgt>
  <wgt id="636">3.38692e-12</wgt>
  <wgt id="637">3.35543e-12</wgt>
  <wgt id="638">3.18605e-12</wgt>
  <wgt id="639">3.19467e-12</wgt>
  <wgt id="640">3.26101e-12</wgt>
  <wgt id="641">3.52754e-12</wgt>
  <wgt id="642">3.05926e-12</wgt>
  <wgt id="643">3.26101e-12</wgt>
  <wgt id="644">3.01725e-12</wgt>
  <wgt id="645">3.35477e-12</wgt>
  <wgt id="646">3.06644e-12</wgt>
  <wgt id="647">3.41046e-12</wgt>
  <wgt id="648">3.53071e-12</wgt>
  <wgt id="649">3.38183e-12</wgt>
  <wgt id="650">3.20712e-12</wgt>
  <wgt id="651">3.5957e-12</wgt>
  <wgt id="652">3.2077e-12</wgt>
  <wgt id="653">3.22065e-12</wgt>
  <wgt id="654">3.4244e-12</wgt>
  <wgt id="655">3.1917e-12</wgt>
  <wgt id="656">3.36788e-12</wgt>
  <wgt id="657">3.67937e-12</wgt>
  <wgt id="658">3.38079e-12</wgt>
  <wgt id="659">3.21255e-12</wgt>
  <wgt id="660">3.22871e-12</wgt>
  <wgt id="661">3.2582e-12</wgt>
  <wgt id="662">3.29679e-12</wgt>
  <wgt id="663">3.42315e-12</wgt>
  <wgt id="664">3.40839e-12</wgt>
  <wgt id="665">3.30753e-12</wgt>
  <wgt id="666">3.27312e-12</wgt>
  <wgt id="667">3.55106e-12</wgt>
  <wgt id="668">3.30589e-12</wgt>
  <wgt id="669">3.34007e-12</wgt>
  <wgt id="670">3.53337e-12</wgt>
  <wgt id="671">3.39746e-12</wgt>
  <wgt id="672">3.2829e-12</wgt>
  <wgt id="673">3.59131e-12</wgt>
  <wgt id="674">3.24783e-12</wgt>
  <wgt id="675">3.20892e-12</wgt>
  <wgt id="676">4.3931e-12</wgt>
  <wgt id="677">4.43113e-12</wgt>
  <wgt id="678">4.85616e-12</wgt>
  <wgt id="679">4.5379e-12</wgt>
  <wgt id="680">4.42815e-12</wgt>
  <wgt id="681">4.2747e-12</wgt>
  <wgt id="682">4.61814e-12</wgt>
  <wgt id="683">4.00543e-12</wgt>
  <wgt id="684">4.66212e-12</wgt>
  <wgt id="685">4.3727e-12</wgt>
  <wgt id="686">4.52609e-12</wgt>
  <wgt id="687">4.55703e-12</wgt>
  <wgt id="688">4.24252e-12</wgt>
  <wgt id="689">4.64376e-12</wgt>
  <wgt id="690">4.5328e-12</wgt>
  <wgt id="691">4.49672e-12</wgt>
  <wgt id="692">4.26967e-12</wgt>
  <wgt id="693">5.9538e-12</wgt>
  <wgt id="694">4.87375e-12</wgt>
  <wgt id="695">4.07338e-12</wgt>
  <wgt id="696">4.15439e-12</wgt>
  <wgt id="697">3.90962e-12</wgt>
  <wgt id="698">3.57075e-12</wgt>
  <wgt id="699">3.67502e-12</wgt>
  <wgt id="700">3.84833e-12</wgt>
  <wgt id="701">4.39426e-12</wgt>
  <wgt id="702">4.1772e-12</wgt>
  <wgt id="703">5.5628e-12</wgt>
  <wgt id="704">4.9892e-12</wgt>
  <wgt id="705">4.94997e-12</wgt>
  <wgt id="706">4.04271e-12</wgt>
  <wgt id="707">4.08789e-12</wgt>
  <wgt id="708">4.17742e-12</wgt>
  <wgt id="709">4.24368e-12</wgt>
  <wgt id="710">3.58904e-12</wgt>
  <wgt id="711">4.73221e-12</wgt>
  <wgt id="712">4.10733e-12</wgt>
  <wgt id="713">4.74402e-12</wgt>
  <wgt id="714">3.91941e-12</wgt>
  <wgt id="715">4.16405e-12</wgt>
  <wgt id="716">4.21482e-12</wgt>
  <wgt id="717">3.76622e-12</wgt>
  <wgt id="718">4.4876e-12</wgt>
  <wgt id="719">3.98996e-12</wgt>
  <wgt id="720">4.50697e-12</wgt>
  <wgt id="721">3.72636e-12</wgt>
  <wgt id="722">3.37636e-12</wgt>
  <wgt id="723">5.0033e-12</wgt>
  <wgt id="724">4.79889e-12</wgt>
  <wgt id="725">4.62157e-12</wgt>
  <wgt id="726">4.3745e-12</wgt>
  <wgt id="727">4.41868e-12</wgt>
  <wgt id="728">4.32932e-12</wgt>
  <wgt id="729">3.94086e-12</wgt>
  <wgt id="730">4.93041e-12</wgt>
  <wgt id="731">4.33372e-12</wgt>
  <wgt id="732">5.17547e-12</wgt>
  <wgt id="733">4.06256e-12</wgt>
  <wgt id="734">4.56796e-12</wgt>
  <wgt id="735">4.36079e-12</wgt>
  <wgt id="736">4.04499e-12</wgt>
  <wgt id="737">4.0332e-12</wgt>
  <wgt id="738">4.15357e-12</wgt>
  <wgt id="739">4.67824e-12</wgt>
  <wgt id="740">5.28707e-12</wgt>
  <wgt id="741">4.62516e-12</wgt>
  <wgt id="742">4.17343e-12</wgt>
  <wgt id="743">3.96734e-12</wgt>
  <wgt id="744">4.30245e-12</wgt>
  <wgt id="745">4.86687e-12</wgt>
  <wgt id="746">5.008e-12</wgt>
  <wgt id="747">3.60855e-12</wgt>
  <wgt id="748">4.20697e-12</wgt>
  <wgt id="749">4.60225e-12</wgt>
  <wgt id="750">4.74351e-12</wgt>
  <wgt id="751">4.44451e-12</wgt>
  <wgt id="752">3.92085e-12</wgt>
  <wgt id="753">3.89699e-12</wgt>
  <wgt id="754">4.59468e-12</wgt>
  <wgt id="755">4.28257e-12</wgt>
  <wgt id="756">4.25164e-12</wgt>
  <wgt id="757">3.74797e-12</wgt>
  <wgt id="758">4.28083e-12</wgt>
  <wgt id="759">4.79212e-12</wgt>
  <wgt id="760">4.19496e-12</wgt>
  <wgt id="761">4.92604e-12</wgt>
  <wgt id="762">4.95402e-12</wgt>
  <wgt id="763">4.5336e-12</wgt>
  <wgt id="764">4.73719e-12</wgt>
  <wgt id="765">4.43643e-12</wgt>
  <wgt id="766">4.4678e-12</wgt>
  <wgt id="767">4.4991e-12</wgt>
  <wgt id="768">3.96656e-12</wgt>
  <wgt id="769">4.63509e-12</wgt>
  <wgt id="770">4.06525e-12</wgt>
  <wgt id="771">5.50415e-12</wgt>
  <wgt id="772">4.26131e-12</wgt>
  <wgt id="773">4.42403e-12</wgt>
  <wgt id="774">3.433e-12</wgt>
  <wgt id="775">4.62078e-12</wgt>
  <wgt id="776">5.16841e-12</wgt>
  <wgt id="777">3.83439e-12</wgt>
  <wgt id="778">2.80613e-12</wgt>
  <wgt id="779">1.63815e-12</wgt>
  <wgt id="780">8.90836e-13</wgt>
  <wgt id="781">3.15876e-12</wgt>
  <wgt id="782">3.47653e-12</wgt>
  <wgt id="783">1.41605e-12</wgt>
  <wgt id="784">1.8748e-12</wgt>
  <wgt id="785">4.32112e-12</wgt>
  <wgt id="786">1.37923e-12</wgt>
  <wgt id="787">3.757e-12</wgt>
  <wgt id="788">3.16309e-13</wgt>
  <wgt id="789">1.81665e-12</wgt>
  <wgt id="790">1.43409e-12</wgt>
  <wgt id="791">3.29076e-12</wgt>
  <wgt id="792">3.84442e-12</wgt>
  <wgt id="793">2.5859e-12</wgt>
  <wgt id="794">1.28502e-12</wgt>
  <wgt id="795">4.04458e-12</wgt>
  <wgt id="796">4.10021e-12</wgt>
  <wgt id="797">3.70684e-12</wgt>
  <wgt id="798">2.07673e-12</wgt>
  <wgt id="799">3.70114e-12</wgt>
  <wgt id="800">2.06237e-12</wgt>
  <wgt id="801">2.79626e-12</wgt>
  <wgt id="802">1.23013e-12</wgt>
  <wgt id="803">4.6369e-12</wgt>
  <wgt id="804">4.03279e-12</wgt>
  <wgt id="805">3.94466e-12</wgt>
  <wgt id="806">3.13841e-12</wgt>
  <wgt id="807">2.77221e-12</wgt>
  <wgt id="808">2.7239e-12</wgt>
  <wgt id="809">2.474e-12</wgt>
  <wgt id="810">3.58283e-12</wgt>
  <wgt id="811">2.98437e-12</wgt>
  <wgt id="812">1.47393e-12</wgt>
  <wgt id="813">1.60703e-12</wgt>
  <wgt id="814">1.85332e-12</wgt>
  <wgt id="815">1.46781e-12</wgt>
  <wgt id="816">1.68809e-12</wgt>
  <wgt id="817">2.88372e-12</wgt>
  <wgt id="818">3.9071e-12</wgt>
  <wgt id="819">1.60087e-12</wgt>
  <wgt id="820">2.61692e-12</wgt>
  <wgt id="821">3.53442e-12</wgt>
  <wgt id="822">2.22486e-12</wgt>
  <wgt id="823">3.7445e-12</wgt>
  <wgt id="824">4.39099e-12</wgt>
  <wgt id="825">1.11764e-12</wgt>
  <wgt id="826">3.69664e-12</wgt>
  <wgt id="827">1.03695e-12</wgt>
  <wgt id="828">3.70442e-12</wgt>
  <wgt id="829">2.92816e-12</wgt>
  <wgt id="830">1.06587e-12</wgt>
  <wgt id="831">3.43632e-12</wgt>
  <wgt id="832">5.31492e-12</wgt>
  <wgt id="833">2.17065e-12</wgt>
  <wgt id="834">5.20948e-12</wgt>
  <wgt id="835">1.82467e-12</wgt>
  <wgt id="836">2.20862e-12</wgt>
  <wgt id="837">3.42965e-12</wgt>
  <wgt id="838">2.15984e-12</wgt>
  <wgt id="839">3.44215e-12</wgt>
  <wgt id="840">2.35047e-12</wgt>
  <wgt id="841">4.14949e-12</wgt>
  <wgt id="842">2.84897e-12</wgt>
  <wgt id="843">3.06015e-12</wgt>
  <wgt id="844">3.22774e-12</wgt>
  <wgt id="845">5.26154e-12</wgt>
  <wgt id="846">2.71992e-12</wgt>
  <wgt id="847">3.05607e-12</wgt>
  <wgt id="848">1.53068e-12</wgt>
  <wgt id="849">3.16281e-12</wgt>
  <wgt id="850">4.62137e-12</wgt>
  <wgt id="851">3.44766e-12</wgt>
  <wgt id="852">1.22088e-12</wgt>
  <wgt id="853">3.62459e-12</wgt>
  <wgt id="854">4.15863e-12</wgt>
  <wgt id="855">3.63151e-12</wgt>
  <wgt id="856">1.04978e-12</wgt>
  <wgt id="857">2.37747e-12</wgt>
  <wgt id="858">2.68899e-12</wgt>
  <wgt id="859">2.70381e-12</wgt>
  <wgt id="860">3.75969e-12</wgt>
  <wgt id="861">2.2392e-12</wgt>
  <wgt id="862">2.93457e-12</wgt>
  <wgt id="863">3.36828e-12</wgt>
  <wgt id="864">2.90295e-12</wgt>
  <wgt id="865">4.88172e-12</wgt>
  <wgt id="866">5.35294e-12</wgt>
  <wgt id="867">2.87497e-12</wgt>
  <wgt id="868">3.02931e-12</wgt>
  <wgt id="869">1.41172e-12</wgt>
  <wgt id="870">1.81059e-12</wgt>
  <wgt id="871">1.87277e-12</wgt>
  <wgt id="872">4.32927e-12</wgt>
  <wgt id="873">2.1437e-12</wgt>
  <wgt id="874">3.21503e-12</wgt>
  <wgt id="875">2.06152e-12</wgt>
  <wgt id="876">4.11441e-12</wgt>
  <wgt id="877">3.31843e-12</wgt>
  <wgt id="878">2.22526e-12</wgt>
  <wgt id="879">4.3931e-12</wgt>
  <wgt id="880">4.43113e-12</wgt>
  <wgt id="881">4.85616e-12</wgt>
  <wgt id="882">4.5379e-12</wgt>
  <wgt id="883">4.42815e-12</wgt>
  <wgt id="884">4.2747e-12</wgt>
  <wgt id="885">4.61814e-12</wgt>
  <wgt id="886">4.00543e-12</wgt>
  <wgt id="887">4.66212e-12</wgt>
  <wgt id="888">4.3727e-12</wgt>
  <wgt id="889">4.52609e-12</wgt>
  <wgt id="890">4.55703e-12</wgt>
  <wgt id="891">4.24252e-12</wgt>
  <wgt id="892">4.64376e-12</wgt>
  <wgt id="893">4.5328e-12</wgt>
  <wgt id="894">4.49672e-12</wgt>
  <wgt id="895">4.26967e-12</wgt>
  <wgt id="896">5.9538e-12</wgt>
  <wgt id="897">4.87375e-12</wgt>
  <wgt id="898">4.07338e-12</wgt>
  <wgt id="899">4.15439e-12</wgt>
  <wgt id="900">3.90962e-12</wgt>
  <wgt id="901">3.57075e-12</wgt>
  <wgt id="902">3.67502e-12</wgt>
  <wgt id="903">3.84833e-12</wgt>
  <wgt id="904">4.39426e-12</wgt>
  <wgt id="905">4.1772e-12</wgt>
  <wgt id="906">5.5628e-12</wgt>
  <wgt id="907">4.9892e-12</wgt>
  <wgt id="908">4.94997e-12</wgt>
  <wgt id="909">4.04271e-12</wgt>
  <wgt id="910">4.08789e-12</wgt>
  <wgt id="911">4.17742e-12</wgt>
  <wgt id="912">4.24368e-12</wgt>
  <wgt id="913">3.58904e-12</wgt>
  <wgt id="914">4.73221e-12</wgt>
  <wgt id="915">4.10733e-12</wgt>
  <wgt id="916">4.74402e-12</wgt>
  <wgt id="917">3.91941e-12</wgt>
  <wgt id="918">4.16405e-12</wgt>
  <wgt id="919">4.21482e-12</wgt>
  <wgt id="920">3.76622e-12</wgt>
  <wgt id="921">4.4876e-12</wgt>
  <wgt id="922">3.98996e-12</wgt>
  <wgt id="923">4.50697e-12</wgt>
  <wgt id="924">3.72636e-12</wgt>
  <wgt id="925">3.37636e-12</wgt>
  <wgt id="926">5.0033e-12</wgt>
  <wgt id="927">4.79889e-12</wgt>
  <wgt id="928">4.62157e-12</wgt>
  <wgt id="929">4.3745e-12</wgt>
  <wgt id="930">4.41868e-12</wgt>
  <wgt id="931">4.32932e-12</wgt>
  <wgt id="932">3.94086e-12</wgt>
  <wgt id="933">4.93041e-12</wgt>
  <wgt id="934">4.33372e-12</wgt>
  <wgt id="935">5.17547e-12</wgt>
  <wgt id="936">4.06256e-12</wgt>
  <wgt id="937">4.56796e-12</wgt>
  <wgt id="938">4.36079e-12</wgt>
  <wgt id="939">4.04499e-12</wgt>
  <wgt id="940">4.0332e-12</wgt>
  <wgt id="941">4.15357e-12</wgt>
  <wgt id="942">4.67824e-12</wgt>
  <wgt id="943">5.28707e-12</wgt>
  <wgt id="944">4.62516e-12</wgt>
  <wgt id="945">4.17343e-12</wgt>
  <wgt id="946">3.96734e-12</wgt>
  <wgt id="947">4.30245e-12</wgt>
  <wgt id="948">4.86687e-12</wgt>
  <wgt id="949">5.008e-12</wgt>
  <wgt id="950">3.60855e-12</wgt>
  <wgt id="951">4.20697e-12</wgt>
  <wgt id="952">4.60225e-12</wgt>
  <wgt id="953">4.74351e-12</wgt>
  <wgt id="954">4.44451e-12</wgt>
  <wgt id="955">3.92085e-12</wgt>
  <wgt id="956">3.89699e-12</wgt>
  <wgt id="957">4.59468e-12</wgt>
  <wgt id="958">4.28257e-12</wgt>
  <wgt id="959">4.25164e-12</wgt>
  <wgt id="960">3.74797e-12</wgt>
  <wgt id="961">4.28083e-12</wgt>
  <wgt id="962">4.79212e-12</wgt>
  <wgt id="963">4.19496e-12</wgt>
  <wgt id="964">4.92604e-12</wgt>
  <wgt id="965">4.95402e-12</wgt>
  <wgt id="966">4.5336e-12</wgt>
  <wgt id="967">4.73719e-12</wgt>
  <wgt id="968">4.43643e-12</wgt>
  <wgt id="969">4.4678e-12</wgt>
  <wgt id="970">4.4991e-12</wgt>
  <wgt id="971">3.96656e-12</wgt>
  <wgt id="972">4.63509e-12</wgt>
  <wgt id="973">4.06525e-12</wgt>
  <wgt id="974">5.50415e-12</wgt>
  <wgt id="975">4.26131e-12</wgt>
  <wgt id="976">4.42403e-12</wgt>
  <wgt id="977">3.433e-12</wgt>
  <wgt id="978">4.62078e-12</wgt>
  <wgt id="979">5.16841e-12</wgt>
  <wgt id="980">4.36116e-12</wgt>
  <wgt id="981">4.50677e-12</wgt>
  <wgt id="982">4.26174e-12</wgt>
</rwgt>
</event>
<event>
 5   1  0.3028200E-11  0.2311841E+04  0.7818608E-02  0.7708009E-01
       21   -1    0    0  502  501  0.00000000000E+00  0.00000000000E+00  0.11402105503E+04  0.11402105503E+04  0.00000000000E+00 0. -1.
       21   -1    0    0  501  502 -0.00000000000E+00 -0.00000000000E+00 -0.11718472234E+04  0.11718472234E+04  0.00000000000E+00 0.  1.
       39    2    1    2    0    0  0.00000000000E+00  0.00000000000E+00 -0.31636673094E+02  0.23120577737E+04  0.23118413159E+04 0.  0.
       25    1    3    3    0    0  0.60801019766E+03 -0.97163204507E+03 -0.98180986805E+02  0.11571558830E+04  0.12500000000E+03 0.  0.
       25    1    3    3    0    0 -0.60801019766E+03  0.97163204507E+03  0.66544313711E+02  0.11549018907E+04  0.12500000000E+03 0.  0.
<mgrwt>
<rscale>  0 0.23118413E+04</rscale>
<asrwt>0</asrwt>
<pdfrwt beam="1">  1       21 0.17541701E+00 0.23118413E+04</pdfrwt>
<pdfrwt beam="2">  1       21 0.18028419E+00 0.23118413E+04</pdfrwt>
<totfact> 0.13570071E+01</totfact>
</mgrwt>
<rwgt>
  <wgt id="1">3.0282e-12</wgt>
  <wgt id="2">2.63746e-12</wgt>
  <wgt id="3">3.5131e-12</wgt>
  <wgt id="4">3.0282e-12</wgt>
  <wgt id="5">2.63746e-12</wgt>
  <wgt id="6">3.5131e-12</wgt>
  <wgt id="7">3.0282e-12</wgt>
  <wgt id="8">2.63746e-12</wgt>
  <wgt id="9">3.5131e-12</wgt>
  <wgt id="10">3.12676e-12</wgt>
  <wgt id="11">3.1233e-12</wgt>
  <wgt id="12">3.12043e-12</wgt>
  <wgt id="13">3.11572e-12</wgt>
  <wgt id="14">3.1382e-12</wgt>
  <wgt id="15">3.1312e-12</wgt>
  <wgt id="16">3.11982e-12</wgt>
  <wgt id="17">3.13097e-12</wgt>
  <wgt id="18">3.12139e-12</wgt>
  <wgt id="19">3.13378e-12</wgt>
  <wgt id="20">3.11682e-12</wgt>
  <wgt id="21">3.11024e-12</wgt>
  <wgt id="22">3.11783e-12</wgt>
  <wgt id="23">3.10063e-12</wgt>
  <wgt id="24">3.11374e-12</wgt>
  <wgt id="25">3.11958e-12</wgt>
  <wgt id="26">3.14065e-12</wgt>
  <wgt id="27">3.12707e-12</wgt>
  <wgt id="28">3.1126e-12</wgt>
  <wgt id="29">3.13002e-12</wgt>
  <wgt id="30">3.12102e-12</wgt>
  <wgt id="31">3.13396e-12</wgt>
  <wgt id="32">3.12268e-12</wgt>
  <wgt id="33">3.13453e-12</wgt>
  <wgt id="34">3.11825e-12</wgt>
  <wgt id="35">3.12578e-12</wgt>
  <wgt id="36">3.13565e-12</wgt>
  <wgt id="37">3.11885e-12</wgt>
  <wgt id="38">3.11812e-12</wgt>
  <wgt id="39">3.1567e-12</wgt>
  <wgt id="40">3.13461e-12</wgt>
  <wgt id="41">3.12635e-12</wgt>
  <wgt id="42">3.13535e-12</wgt>
  <wgt id="43">3.12868e-12</wgt>
  <wgt id="44">3.11426e-12</wgt>
  <wgt id="45">3.1333e-12</wgt>
  <wgt id="46">3.13266e-12</wgt>
  <wgt id="47">3.11157e-12</wgt>
  <wgt id="48">3.12662e-12</wgt>
  <wgt id="49">3.13807e-12</wgt>
  <wgt id="50">3.14895e-12</wgt>
  <wgt id="51">3.14302e-12</wgt>
  <wgt id="52">3.11844e-12</wgt>
  <wgt id="53">3.10292e-12</wgt>
  <wgt id="54">3.11898e-12</wgt>
  <wgt id="55">3.12625e-12</wgt>
  <wgt id="56">3.13671e-12</wgt>
  <wgt id="57">3.13802e-12</wgt>
  <wgt id="58">3.10328e-12</wgt>
  <wgt id="59">3.11506e-12</wgt>
  <wgt id="60">3.12719e-12</wgt>
  <wgt id="61">3.12296e-12</wgt>
  <wgt id="62">3.12756e-12</wgt>
  <wgt id="63">3.13172e-12</wgt>
  <wgt id="64">3.13069e-12</wgt>
  <wgt id="65">3.12949e-12</wgt>
  <wgt id="66">3.1226e-12</wgt>
  <wgt id="67">3.12382e-12</wgt>
  <wgt id="68">3.12308e-12</wgt>
  <wgt id="69">3.12578e-12</wgt>
  <wgt id="70">3.12377e-12</wgt>
  <wgt id="71">3.12573e-12</wgt>
  <wgt id="72">3.12402e-12</wgt>
  <wgt id="73">3.12887e-12</wgt>
  <wgt id="74">3.12893e-12</wgt>
  <wgt id="75">3.12606e-12</wgt>
  <wgt id="76">3.1354e-12</wgt>
  <wgt id="77">3.12634e-12</wgt>
  <wgt id="78">3.12779e-12</wgt>
  <wgt id="79">3.13183e-12</wgt>
  <wgt id="80">3.11369e-12</wgt>
  <wgt id="81">3.12249e-12</wgt>
  <wgt id="82">3.12677e-12</wgt>
  <wgt id="83">3.11517e-12</wgt>
  <wgt id="84">3.11964e-12</wgt>
  <wgt id="85">3.12189e-12</wgt>
  <wgt id="86">3.13283e-12</wgt>
  <wgt id="87">3.11222e-12</wgt>
  <wgt id="88">3.13042e-12</wgt>
  <wgt id="89">3.12959e-12</wgt>
  <wgt id="90">3.13007e-12</wgt>
  <wgt id="91">3.1286e-12</wgt>
  <wgt id="92">3.13225e-12</wgt>
  <wgt id="93">3.12585e-12</wgt>
  <wgt id="94">3.12413e-12</wgt>
  <wgt id="95">3.12808e-12</wgt>
  <wgt id="96">3.12891e-12</wgt>
  <wgt id="97">3.12322e-12</wgt>
  <wgt id="98">3.12827e-12</wgt>
  <wgt id="99">3.12637e-12</wgt>
  <wgt id="100">3.12971e-12</wgt>
  <wgt id="101">3.12529e-12</wgt>
  <wgt id="102">3.12348e-12</wgt>
  <wgt id="103">3.131e-12</wgt>
  <wgt id="104">3.12399e-12</wgt>
  <wgt id="105">3.1291e-12</wgt>
  <wgt id="106">3.12324e-12</wgt>
  <wgt id="107">3.13428e-12</wgt>
  <wgt id="108">3.12398e-12</wgt>
  <wgt id="109">3.12824e-12</wgt>
  <wgt id="110">3.12595e-12</wgt>
  <wgt id="111">3.16073e-12</wgt>
  <wgt id="112">3.12045e-12</wgt>
  <wgt id="113">4.17541e-12</wgt>
  <wgt id="114">4.33596e-12</wgt>
  <wgt id="115">4.27793e-12</wgt>
  <wgt id="116">5.98008e-12</wgt>
  <wgt id="117">3.47541e-12</wgt>
  <wgt id="118">3.48739e-12</wgt>
  <wgt id="119">3.4687e-12</wgt>
  <wgt id="120">3.47573e-12</wgt>
  <wgt id="121">3.47513e-12</wgt>
  <wgt id="122">3.46936e-12</wgt>
  <wgt id="123">3.48393e-12</wgt>
  <wgt id="124">3.47054e-12</wgt>
  <wgt id="125">3.47876e-12</wgt>
  <wgt id="126">3.48181e-12</wgt>
  <wgt id="127">3.47117e-12</wgt>
  <wgt id="128">3.48641e-12</wgt>
  <wgt id="129">3.46448e-12</wgt>
  <wgt id="130">3.49578e-12</wgt>
  <wgt id="131">3.45453e-12</wgt>
  <wgt id="132">3.38579e-12</wgt>
  <wgt id="133">3.58122e-12</wgt>
  <wgt id="134">3.43843e-12</wgt>
  <wgt id="135">3.50431e-12</wgt>
  <wgt id="136">3.51897e-12</wgt>
  <wgt id="137">3.42267e-12</wgt>
  <wgt id="138">3.60743e-12</wgt>
  <wgt id="139">3.34749e-12</wgt>
  <wgt id="140">3.45187e-12</wgt>
  <wgt id="141">3.49388e-12</wgt>
  <wgt id="142">3.47602e-12</wgt>
  <wgt id="143">3.47981e-12</wgt>
  <wgt id="144">3.38278e-12</wgt>
  <wgt id="145">3.56097e-12</wgt>
  <wgt id="146">3.50494e-12</wgt>
  <wgt id="147">3.45221e-12</wgt>
  <wgt id="148">3.48591e-12</wgt>
  <wgt id="149">3.47479e-12</wgt>
  <wgt id="150">3.5055e-12</wgt>
  <wgt id="151">3.46135e-12</wgt>
  <wgt id="152">3.47698e-12</wgt>
  <wgt id="153">3.47483e-12</wgt>
  <wgt id="154">3.50499e-12</wgt>
  <wgt id="155">3.44054e-12</wgt>
  <wgt id="156">3.53949e-12</wgt>
  <wgt id="157">3.40646e-12</wgt>
  <wgt id="158">4.18146e-12</wgt>
  <wgt id="159">4.19879e-12</wgt>
  <wgt id="160">4.16744e-12</wgt>
  <wgt id="161">4.17102e-12</wgt>
  <wgt id="162">4.1932e-12</wgt>
  <wgt id="163">4.17709e-12</wgt>
  <wgt id="164">4.18816e-12</wgt>
  <wgt id="165">4.18311e-12</wgt>
  <wgt id="166">4.18043e-12</wgt>
  <wgt id="167">4.17843e-12</wgt>
  <wgt id="168">4.18577e-12</wgt>
  <wgt id="169">4.16368e-12</wgt>
  <wgt id="170">4.19285e-12</wgt>
  <wgt id="171">4.17679e-12</wgt>
  <wgt id="172">4.18808e-12</wgt>
  <wgt id="173">4.18184e-12</wgt>
  <wgt id="174">4.18121e-12</wgt>
  <wgt id="175">4.06499e-12</wgt>
  <wgt id="176">4.3331e-12</wgt>
  <wgt id="177">4.20373e-12</wgt>
  <wgt id="178">4.16091e-12</wgt>
  <wgt id="179">4.35247e-12</wgt>
  <wgt id="180">3.9113e-12</wgt>
  <wgt id="181">4.06215e-12</wgt>
  <wgt id="182">4.26012e-12</wgt>
  <wgt id="183">4.10856e-12</wgt>
  <wgt id="184">4.21791e-12</wgt>
  <wgt id="185">4.14883e-12</wgt>
  <wgt id="186">4.22089e-12</wgt>
  <wgt id="187">4.14483e-12</wgt>
  <wgt id="188">4.24805e-12</wgt>
  <wgt id="189">4.1554e-12</wgt>
  <wgt id="190">4.1923e-12</wgt>
  <wgt id="191">4.19264e-12</wgt>
  <wgt id="192">4.17499e-12</wgt>
  <wgt id="193">4.23981e-12</wgt>
  <wgt id="194">4.15276e-12</wgt>
  <wgt id="195">4.08399e-12</wgt>
  <wgt id="196">4.35808e-12</wgt>
  <wgt id="197">4.20203e-12</wgt>
  <wgt id="198">4.17673e-12</wgt>
  <wgt id="199">4.18146e-12</wgt>
  <wgt id="200">4.21677e-12</wgt>
  <wgt id="201">4.20367e-12</wgt>
  <wgt id="202">4.19122e-12</wgt>
  <wgt id="203">4.17218e-12</wgt>
  <wgt id="204">4.16316e-12</wgt>
  <wgt id="205">4.15582e-12</wgt>
  <wgt id="206">4.05644e-12</wgt>
  <wgt id="207">4.0801e-12</wgt>
  <wgt id="208">4.03314e-12</wgt>
  <wgt id="209">4.06876e-12</wgt>
  <wgt id="210">4.04743e-12</wgt>
  <wgt id="211">4.05509e-12</wgt>
  <wgt id="212">4.05776e-12</wgt>
  <wgt id="213">4.05608e-12</wgt>
  <wgt id="214">4.05707e-12</wgt>
  <wgt id="215">4.0594e-12</wgt>
  <wgt id="216">4.05443e-12</wgt>
  <wgt id="217">4.06826e-12</wgt>
  <wgt id="218">4.04752e-12</wgt>
  <wgt id="219">4.05222e-12</wgt>
  <wgt id="220">4.05901e-12</wgt>
  <wgt id="221">4.05452e-12</wgt>
  <wgt id="222">4.06112e-12</wgt>
  <wgt id="223">3.84534e-12</wgt>
  <wgt id="224">4.24874e-12</wgt>
  <wgt id="225">4.00875e-12</wgt>
  <wgt id="226">4.11643e-12</wgt>
  <wgt id="227">4.01874e-12</wgt>
  <wgt id="228">4.073e-12</wgt>
  <wgt id="229">4.00077e-12</wgt>
  <wgt id="230">4.08423e-12</wgt>
  <wgt id="231">4.16961e-12</wgt>
  <wgt id="232">3.96347e-12</wgt>
  <wgt id="233">4.03583e-12</wgt>
  <wgt id="234">4.08829e-12</wgt>
  <wgt id="235">3.98244e-12</wgt>
  <wgt id="236">4.12756e-12</wgt>
  <wgt id="237">4.00468e-12</wgt>
  <wgt id="238">4.07438e-12</wgt>
  <wgt id="239">4.0338e-12</wgt>
  <wgt id="240">4.09768e-12</wgt>
  <wgt id="241">4.01659e-12</wgt>
  <wgt id="242">4.10481e-12</wgt>
  <wgt id="243">4.10334e-12</wgt>
  <wgt id="244">4.08019e-12</wgt>
  <wgt id="245">4.05358e-12</wgt>
  <wgt id="246">4.08721e-12</wgt>
  <wgt id="247">4.05644e-12</wgt>
  <wgt id="248">4.09047e-12</wgt>
  <wgt id="249">4.07729e-12</wgt>
  <wgt id="250">4.06536e-12</wgt>
  <wgt id="251">4.04692e-12</wgt>
  <wgt id="252">4.03839e-12</wgt>
  <wgt id="253">4.03214e-12</wgt>
  <wgt id="254">3.97803e-12</wgt>
  <wgt id="255">3.98191e-12</wgt>
  <wgt id="256">3.97379e-12</wgt>
  <wgt id="257">3.98091e-12</wgt>
  <wgt id="258">3.97578e-12</wgt>
  <wgt id="259">4.00468e-12</wgt>
  <wgt id="260">3.9524e-12</wgt>
  <wgt id="261">3.9834e-12</wgt>
  <wgt id="262">3.97162e-12</wgt>
  <wgt id="263">3.9764e-12</wgt>
  <wgt id="264">3.97997e-12</wgt>
  <wgt id="265">3.97342e-12</wgt>
  <wgt id="266">3.98689e-12</wgt>
  <wgt id="267">3.97933e-12</wgt>
  <wgt id="268">3.97637e-12</wgt>
  <wgt id="269">3.99052e-12</wgt>
  <wgt id="270">3.96949e-12</wgt>
  <wgt id="271">3.9717e-12</wgt>
  <wgt id="272">3.98531e-12</wgt>
  <wgt id="273">3.96561e-12</wgt>
  <wgt id="274">3.98749e-12</wgt>
  <wgt id="275">3.96245e-12</wgt>
  <wgt id="276">3.99397e-12</wgt>
  <wgt id="277">3.95571e-12</wgt>
  <wgt id="278">3.99844e-12</wgt>
  <wgt id="279">3.90234e-12</wgt>
  <wgt id="280">4.07268e-12</wgt>
  <wgt id="281">3.96095e-12</wgt>
  <wgt id="282">3.97847e-12</wgt>
  <wgt id="283">3.86766e-12</wgt>
  <wgt id="284">4.11371e-12</wgt>
  <wgt id="285">3.79447e-12</wgt>
  <wgt id="286">4.12914e-12</wgt>
  <wgt id="287">3.98991e-12</wgt>
  <wgt id="288">3.96254e-12</wgt>
  <wgt id="289">4.00472e-12</wgt>
  <wgt id="290">3.91497e-12</wgt>
  <wgt id="291">3.96806e-12</wgt>
  <wgt id="292">3.98035e-12</wgt>
  <wgt id="293">3.94842e-12</wgt>
  <wgt id="294">4.00736e-12</wgt>
  <wgt id="295">3.90513e-12</wgt>
  <wgt id="296">4.06688e-12</wgt>
  <wgt id="297">3.979e-12</wgt>
  <wgt id="298">3.9918e-12</wgt>
  <wgt id="299">3.96551e-12</wgt>
  <wgt id="300">4.01065e-12</wgt>
  <wgt id="301">3.92785e-12</wgt>
  <wgt id="302">4.10802e-12</wgt>
  <wgt id="303">3.9504e-12</wgt>
  <wgt id="304">3.99415e-12</wgt>
  <wgt id="305">3.99592e-12</wgt>
  <wgt id="306">4.00017e-12</wgt>
  <wgt id="307">3.99168e-12</wgt>
  <wgt id="308">3.99945e-12</wgt>
  <wgt id="309">3.99369e-12</wgt>
  <wgt id="310">4.02362e-12</wgt>
  <wgt id="311">3.97058e-12</wgt>
  <wgt id="312">4.00038e-12</wgt>
  <wgt id="313">3.99178e-12</wgt>
  <wgt id="314">3.99461e-12</wgt>
  <wgt id="315">3.99756e-12</wgt>
  <wgt id="316">3.99164e-12</wgt>
  <wgt id="317">4.00549e-12</wgt>
  <wgt id="318">3.99889e-12</wgt>
  <wgt id="319">3.99132e-12</wgt>
  <wgt id="320">4.00911e-12</wgt>
  <wgt id="321">3.98868e-12</wgt>
  <wgt id="322">3.98738e-12</wgt>
  <wgt id="323">4.00616e-12</wgt>
  <wgt id="324">3.9858e-12</wgt>
  <wgt id="325">4.00509e-12</wgt>
  <wgt id="326">3.98363e-12</wgt>
  <wgt id="327">4.01189e-12</wgt>
  <wgt id="328">3.97589e-12</wgt>
  <wgt id="329">4.00746e-12</wgt>
  <wgt id="330">4.11289e-12</wgt>
  <wgt id="331">3.88454e-12</wgt>
  <wgt id="332">3.98177e-12</wgt>
  <wgt id="333">3.99601e-12</wgt>
  <wgt id="334">3.90882e-12</wgt>
  <wgt id="335">4.10405e-12</wgt>
  <wgt id="336">3.86236e-12</wgt>
  <wgt id="337">4.15801e-12</wgt>
  <wgt id="338">4.03888e-12</wgt>
  <wgt id="339">3.95645e-12</wgt>
  <wgt id="340">4.02167e-12</wgt>
  <wgt id="341">3.92983e-12</wgt>
  <wgt id="342">3.98921e-12</wgt>
  <wgt id="343">3.99261e-12</wgt>
  <wgt id="344">3.96925e-12</wgt>
  <wgt id="345">4.0273e-12</wgt>
  <wgt id="346">3.92026e-12</wgt>
  <wgt id="347">4.08361e-12</wgt>
  <wgt id="348">3.99877e-12</wgt>
  <wgt id="349">4.00713e-12</wgt>
  <wgt id="350">3.98045e-12</wgt>
  <wgt id="351">4.03586e-12</wgt>
  <wgt id="352">3.93998e-12</wgt>
  <wgt id="353">4.1334e-12</wgt>
  <wgt id="354">3.95319e-12</wgt>
  <wgt id="355">4.02247e-12</wgt>
  <wgt id="356">3.97803e-12</wgt>
  <wgt id="357">4.01418e-12</wgt>
  <wgt id="358">3.99592e-12</wgt>
  <wgt id="359">3.99365e-12</wgt>
  <wgt id="360">3.99927e-12</wgt>
  <wgt id="361">3.98943e-12</wgt>
  <wgt id="362">4.05643e-12</wgt>
  <wgt id="363">4.0468e-12</wgt>
  <wgt id="364">4.03384e-12</wgt>
  <wgt id="365">4.02062e-12</wgt>
  <wgt id="366">4.00584e-12</wgt>
  <wgt id="367">3.97478e-12</wgt>
  <wgt id="368">3.95811e-12</wgt>
  <wgt id="369">3.93989e-12</wgt>
  <wgt id="370">3.98943e-12</wgt>
  <wgt id="371">4.00733e-12</wgt>
  <wgt id="372">3.99753e-12</wgt>
  <wgt id="373">3.98295e-12</wgt>
  <wgt id="374">3.98088e-12</wgt>
  <wgt id="375">4.22661e-12</wgt>
  <wgt id="376">4.22725e-12</wgt>
  <wgt id="377">4.2259e-12</wgt>
  <wgt id="378">4.2417e-12</wgt>
  <wgt id="379">4.21148e-12</wgt>
  <wgt id="380">4.23792e-12</wgt>
  <wgt id="381">4.22194e-12</wgt>
  <wgt id="382">4.24822e-12</wgt>
  <wgt id="383">4.20502e-12</wgt>
  <wgt id="384">4.22929e-12</wgt>
  <wgt id="385">4.2239e-12</wgt>
  <wgt id="386">4.24342e-12</wgt>
  <wgt id="387">4.21918e-12</wgt>
  <wgt id="388">4.22253e-12</wgt>
  <wgt id="389">4.23131e-12</wgt>
  <wgt id="390">4.23805e-12</wgt>
  <wgt id="391">4.21447e-12</wgt>
  <wgt id="392">4.19545e-12</wgt>
  <wgt id="393">4.24409e-12</wgt>
  <wgt id="394">4.23258e-12</wgt>
  <wgt id="395">4.21796e-12</wgt>
  <wgt id="396">4.22857e-12</wgt>
  <wgt id="397">4.22504e-12</wgt>
  <wgt id="398">4.20768e-12</wgt>
  <wgt id="399">4.24485e-12</wgt>
  <wgt id="400">4.21947e-12</wgt>
  <wgt id="401">4.24249e-12</wgt>
  <wgt id="402">4.19309e-12</wgt>
  <wgt id="403">4.24042e-12</wgt>
  <wgt id="404">4.31999e-12</wgt>
  <wgt id="405">4.00081e-12</wgt>
  <wgt id="406">4.15952e-12</wgt>
  <wgt id="407">4.37149e-12</wgt>
  <wgt id="408">4.26101e-12</wgt>
  <wgt id="409">4.16032e-12</wgt>
  <wgt id="410">4.11618e-12</wgt>
  <wgt id="411">4.27717e-12</wgt>
  <wgt id="412">4.21947e-12</wgt>
  <wgt id="413">4.2366e-12</wgt>
  <wgt id="414">4.18248e-12</wgt>
  <wgt id="415">4.26067e-12</wgt>
  <wgt id="416">4.3322e-12</wgt>
  <wgt id="417">4.08051e-12</wgt>
  <wgt id="418">4.23175e-12</wgt>
  <wgt id="419">4.19825e-12</wgt>
  <wgt id="420">4.28269e-12</wgt>
  <wgt id="421">4.19584e-12</wgt>
  <wgt id="422">4.22257e-12</wgt>
  <wgt id="423">4.22935e-12</wgt>
  <wgt id="424">4.30523e-12</wgt>
  <wgt id="425">4.17793e-12</wgt>
  <wgt id="426">4.22661e-12</wgt>
  <wgt id="427">4.19451e-12</wgt>
  <wgt id="428">4.32556e-12</wgt>
  <wgt id="429">4.26156e-12</wgt>
  <wgt id="430">4.37659e-12</wgt>
  <wgt id="431">4.35384e-12</wgt>
  <wgt id="432">4.33191e-12</wgt>
  <wgt id="433">4.3107e-12</wgt>
  <wgt id="434">4.28536e-12</wgt>
  <wgt id="435">4.23172e-12</wgt>
  <wgt id="436">4.20405e-12</wgt>
  <wgt id="437">4.17809e-12</wgt>
  <wgt id="438">4.26156e-12</wgt>
  <wgt id="439">4.27563e-12</wgt>
  <wgt id="440">4.26752e-12</wgt>
  <wgt id="441">4.25726e-12</wgt>
  <wgt id="442">4.25326e-12</wgt>
  <wgt id="443">4.15691e-12</wgt>
  <wgt id="444">4.17704e-12</wgt>
  <wgt id="445">4.13709e-12</wgt>
  <wgt id="446">4.13143e-12</wgt>
  <wgt id="447">4.14084e-12</wgt>
  <wgt id="448">4.04982e-12</wgt>
  <wgt id="449">4.21788e-12</wgt>
  <wgt id="450">4.13676e-12</wgt>
  <wgt id="451">4.15085e-12</wgt>
  <wgt id="452">4.24684e-12</wgt>
  <wgt id="453">4.19389e-12</wgt>
  <wgt id="454">3.99829e-12</wgt>
  <wgt id="455">4.16023e-12</wgt>
  <wgt id="456">4.10092e-12</wgt>
  <wgt id="457">4.17355e-12</wgt>
  <wgt id="458">4.20085e-12</wgt>
  <wgt id="459">4.18253e-12</wgt>
  <wgt id="460">4.17613e-12</wgt>
  <wgt id="461">4.08624e-12</wgt>
  <wgt id="462">4.12418e-12</wgt>
  <wgt id="463">4.11571e-12</wgt>
  <wgt id="464">4.1344e-12</wgt>
  <wgt id="465">4.1978e-12</wgt>
  <wgt id="466">4.11403e-12</wgt>
  <wgt id="467">4.11851e-12</wgt>
  <wgt id="468">4.1459e-12</wgt>
  <wgt id="469">4.14548e-12</wgt>
  <wgt id="470">4.12315e-12</wgt>
  <wgt id="471">4.12298e-12</wgt>
  <wgt id="472">4.17489e-12</wgt>
  <wgt id="473">4.02891e-12</wgt>
  <wgt id="474">3.0282e-12</wgt>
  <wgt id="475">3.23083e-12</wgt>
  <wgt id="476">2.9595e-12</wgt>
  <wgt id="477">2.945e-12</wgt>
  <wgt id="478">3.04182e-12</wgt>
  <wgt id="479">2.97921e-12</wgt>
  <wgt id="480">3.1281e-12</wgt>
  <wgt id="481">2.95163e-12</wgt>
  <wgt id="482">2.90306e-12</wgt>
  <wgt id="483">2.94789e-12</wgt>
  <wgt id="484">3.25923e-12</wgt>
  <wgt id="485">3.04187e-12</wgt>
  <wgt id="486">3.08684e-12</wgt>
  <wgt id="487">3.08919e-12</wgt>
  <wgt id="488">3.06538e-12</wgt>
  <wgt id="489">2.93583e-12</wgt>
  <wgt id="490">2.94152e-12</wgt>
  <wgt id="491">2.99106e-12</wgt>
  <wgt id="492">2.92909e-12</wgt>
  <wgt id="493">2.92162e-12</wgt>
  <wgt id="494">2.93867e-12</wgt>
  <wgt id="495">3.0982e-12</wgt>
  <wgt id="496">2.92592e-12</wgt>
  <wgt id="497">2.91547e-12</wgt>
  <wgt id="498">3.06194e-12</wgt>
  <wgt id="499">2.94613e-12</wgt>
  <wgt id="500">2.98118e-12</wgt>
  <wgt id="501">3.16433e-12</wgt>
  <wgt id="502">2.94063e-12</wgt>
  <wgt id="503">3.02043e-12</wgt>
  <wgt id="504">3.03744e-12</wgt>
  <wgt id="505">3.05606e-12</wgt>
  <wgt id="506">3.10039e-12</wgt>
  <wgt id="507">2.99193e-12</wgt>
  <wgt id="508">3.06445e-12</wgt>
  <wgt id="509">3.0068e-12</wgt>
  <wgt id="510">3.10482e-12</wgt>
  <wgt id="511">2.97096e-12</wgt>
  <wgt id="512">3.06194e-12</wgt>
  <wgt id="513">3.15524e-12</wgt>
  <wgt id="514">2.99605e-12</wgt>
  <wgt id="515">2.98416e-12</wgt>
  <wgt id="516">3.09913e-12</wgt>
  <wgt id="517">3.09074e-12</wgt>
  <wgt id="518">3.09893e-12</wgt>
  <wgt id="519">2.94817e-12</wgt>
  <wgt id="520">3.04518e-12</wgt>
  <wgt id="521">3.13865e-12</wgt>
  <wgt id="522">3.13966e-12</wgt>
  <wgt id="523">3.10996e-12</wgt>
  <wgt id="524">3.09113e-12</wgt>
  <wgt id="525">3.11543e-12</wgt>
  <wgt id="526">3.02744e-12</wgt>
  <wgt id="527">3.08092e-12</wgt>
  <wgt id="528">3.03497e-12</wgt>
  <wgt id="529">2.97876e-12</wgt>
  <wgt id="530">3.04441e-12</wgt>
  <wgt id="531">2.99682e-12</wgt>
  <wgt id="532">3.18807e-12</wgt>
  <wgt id="533">2.83972e-12</wgt>
  <wgt id="534">3.04153e-12</wgt>
  <wgt id="535">3.09574e-12</wgt>
  <wgt id="536">3.02626e-12</wgt>
  <wgt id="537">3.04168e-12</wgt>
  <wgt id="538">3.07064e-12</wgt>
  <wgt id="539">2.96593e-12</wgt>
  <wgt id="540">2.97642e-12</wgt>
  <wgt id="541">2.96539e-12</wgt>
  <wgt id="542">2.96606e-12</wgt>
  <wgt id="543">3.02442e-12</wgt>
  <wgt id="544">3.17821e-12</wgt>
  <wgt id="545">2.99248e-12</wgt>
  <wgt id="546">3.00189e-12</wgt>
  <wgt id="547">2.93307e-12</wgt>
  <wgt id="548">2.90435e-12</wgt>
  <wgt id="549">2.97721e-12</wgt>
  <wgt id="550">3.03767e-12</wgt>
  <wgt id="551">3.05734e-12</wgt>
  <wgt id="552">3.0121e-12</wgt>
  <wgt id="553">3.02387e-12</wgt>
  <wgt id="554">3.25369e-12</wgt>
  <wgt id="555">3.10582e-12</wgt>
  <wgt id="556">2.94152e-12</wgt>
  <wgt id="557">3.07065e-12</wgt>
  <wgt id="558">2.92506e-12</wgt>
  <wgt id="559">2.99417e-12</wgt>
  <wgt id="560">3.26668e-12</wgt>
  <wgt id="561">2.95897e-12</wgt>
  <wgt id="562">3.06566e-12</wgt>
  <wgt id="563">2.93225e-12</wgt>
  <wgt id="564">3.01506e-12</wgt>
  <wgt id="565">2.91463e-12</wgt>
  <wgt id="566">3.06992e-12</wgt>
  <wgt id="567">2.98026e-12</wgt>
  <wgt id="568">3.0226e-12</wgt>
  <wgt id="569">3.07428e-12</wgt>
  <wgt id="570">2.94976e-12</wgt>
  <wgt id="571">3.352e-12</wgt>
  <wgt id="572">2.95596e-12</wgt>
  <wgt id="573">2.88833e-12</wgt>
  <wgt id="574">2.91793e-12</wgt>
  <wgt id="575">3.32562e-12</wgt>
  <wgt id="576">3.27345e-12</wgt>
  <wgt id="577">3.42795e-12</wgt>
  <wgt id="578">3.39799e-12</wgt>
  <wgt id="579">3.36508e-12</wgt>
  <wgt id="580">3.37455e-12</wgt>
  <wgt id="581">3.52345e-12</wgt>
  <wgt id="582">3.26385e-12</wgt>
  <wgt id="583">3.36114e-12</wgt>
  <wgt id="584">3.33223e-12</wgt>
  <wgt id="585">3.36612e-12</wgt>
  <wgt id="586">3.25653e-12</wgt>
  <wgt id="587">3.36773e-12</wgt>
  <wgt id="588">3.30088e-12</wgt>
  <wgt id="589">3.36906e-12</wgt>
  <wgt id="590">3.38822e-12</wgt>
  <wgt id="591">3.45448e-12</wgt>
  <wgt id="592">3.27583e-12</wgt>
  <wgt id="593">3.31327e-12</wgt>
  <wgt id="594">3.44592e-12</wgt>
  <wgt id="595">3.30209e-12</wgt>
  <wgt id="596">3.3513e-12</wgt>
  <wgt id="597">3.20737e-12</wgt>
  <wgt id="598">3.27289e-12</wgt>
  <wgt id="599">3.51534e-12</wgt>
  <wgt id="600">3.2865e-12</wgt>
  <wgt id="601">3.23312e-12</wgt>
  <wgt id="602">3.26655e-12</wgt>
  <wgt id="603">3.27687e-12</wgt>
  <wgt id="604">3.3707e-12</wgt>
  <wgt id="605">3.46225e-12</wgt>
  <wgt id="606">3.23681e-12</wgt>
  <wgt id="607">3.27407e-12</wgt>
  <wgt id="608">3.32702e-12</wgt>
  <wgt id="609">3.1316e-12</wgt>
  <wgt id="610">3.19709e-12</wgt>
  <wgt id="611">3.3751e-12</wgt>
  <wgt id="612">3.55678e-12</wgt>
  <wgt id="613">3.32895e-12</wgt>
  <wgt id="614">3.37392e-12</wgt>
  <wgt id="615">3.25344e-12</wgt>
  <wgt id="616">3.53786e-12</wgt>
  <wgt id="617">3.44974e-12</wgt>
  <wgt id="618">3.32119e-12</wgt>
  <wgt id="619">3.29692e-12</wgt>
  <wgt id="620">3.45951e-12</wgt>
  <wgt id="621">3.38203e-12</wgt>
  <wgt id="622">3.36773e-12</wgt>
  <wgt id="623">3.41828e-12</wgt>
  <wgt id="624">3.30815e-12</wgt>
  <wgt id="625">3.29266e-12</wgt>
  <wgt id="626">3.25776e-12</wgt>
  <wgt id="627">3.20581e-12</wgt>
  <wgt id="628">3.52627e-12</wgt>
  <wgt id="629">3.24576e-12</wgt>
  <wgt id="630">3.21487e-12</wgt>
  <wgt id="631">3.3333e-12</wgt>
  <wgt id="632">3.22961e-12</wgt>
  <wgt id="633">3.28332e-12</wgt>
  <wgt id="634">3.33721e-12</wgt>
  <wgt id="635">3.28911e-12</wgt>
  <wgt id="636">3.34152e-12</wgt>
  <wgt id="637">3.31997e-12</wgt>
  <wgt id="638">3.20111e-12</wgt>
  <wgt id="639">3.28717e-12</wgt>
  <wgt id="640">3.33109e-12</wgt>
  <wgt id="641">3.33147e-12</wgt>
  <wgt id="642">3.21655e-12</wgt>
  <wgt id="643">3.31088e-12</wgt>
  <wgt id="644">3.22426e-12</wgt>
  <wgt id="645">3.3534e-12</wgt>
  <wgt id="646">3.39491e-12</wgt>
  <wgt id="647">3.27628e-12</wgt>
  <wgt id="648">3.33568e-12</wgt>
  <wgt id="649">3.37968e-12</wgt>
  <wgt id="650">3.2699e-12</wgt>
  <wgt id="651">3.33808e-12</wgt>
  <wgt id="652">3.31523e-12</wgt>
  <wgt id="653">3.23705e-12</wgt>
  <wgt id="654">3.31626e-12</wgt>
  <wgt id="655">3.26405e-12</wgt>
  <wgt id="656">3.33937e-12</wgt>
  <wgt id="657">3.41047e-12</wgt>
  <wgt id="658">3.36178e-12</wgt>
  <wgt id="659">3.2024e-12</wgt>
  <wgt id="660">3.3948e-12</wgt>
  <wgt id="661">3.27268e-12</wgt>
  <wgt id="662">3.32376e-12</wgt>
  <wgt id="663">3.31802e-12</wgt>
  <wgt id="664">3.27102e-12</wgt>
  <wgt id="665">3.31241e-12</wgt>
  <wgt id="666">3.30926e-12</wgt>
  <wgt id="667">3.4248e-12</wgt>
  <wgt id="668">3.31432e-12</wgt>
  <wgt id="669">3.4083e-12</wgt>
  <wgt id="670">3.37321e-12</wgt>
  <wgt id="671">3.28209e-12</wgt>
  <wgt id="672">3.18664e-12</wgt>
  <wgt id="673">3.31614e-12</wgt>
  <wgt id="674">3.26275e-12</wgt>
  <wgt id="675">3.26815e-12</wgt>
  <wgt id="676">4.16051e-12</wgt>
  <wgt id="677">4.21167e-12</wgt>
  <wgt id="678">4.34688e-12</wgt>
  <wgt id="679">3.91775e-12</wgt>
  <wgt id="680">4.03144e-12</wgt>
  <wgt id="681">4.27587e-12</wgt>
  <wgt id="682">4.25337e-12</wgt>
  <wgt id="683">4.12252e-12</wgt>
  <wgt id="684">4.3472e-12</wgt>
  <wgt id="685">3.92745e-12</wgt>
  <wgt id="686">4.14176e-12</wgt>
  <wgt id="687">4.36148e-12</wgt>
  <wgt id="688">4.16004e-12</wgt>
  <wgt id="689">4.49769e-12</wgt>
  <wgt id="690">4.39138e-12</wgt>
  <wgt id="691">4.41939e-12</wgt>
  <wgt id="692">4.12984e-12</wgt>
  <wgt id="693">4.81565e-12</wgt>
  <wgt id="694">4.39375e-12</wgt>
  <wgt id="695">4.03099e-12</wgt>
  <wgt id="696">3.93846e-12</wgt>
  <wgt id="697">4.06301e-12</wgt>
  <wgt id="698">3.87835e-12</wgt>
  <wgt id="699">3.83906e-12</wgt>
  <wgt id="700">3.66529e-12</wgt>
  <wgt id="701">4.1752e-12</wgt>
  <wgt id="702">3.98902e-12</wgt>
  <wgt id="703">4.73177e-12</wgt>
  <wgt id="704">4.49051e-12</wgt>
  <wgt id="705">4.30595e-12</wgt>
  <wgt id="706">3.87092e-12</wgt>
  <wgt id="707">4.00236e-12</wgt>
  <wgt id="708">4.1131e-12</wgt>
  <wgt id="709">4.09309e-12</wgt>
  <wgt id="710">3.72255e-12</wgt>
  <wgt id="711">4.14539e-12</wgt>
  <wgt id="712">4.10909e-12</wgt>
  <wgt id="713">4.48294e-12</wgt>
  <wgt id="714">4.13447e-12</wgt>
  <wgt id="715">4.12442e-12</wgt>
  <wgt id="716">4.00253e-12</wgt>
  <wgt id="717">4.00127e-12</wgt>
  <wgt id="718">4.10805e-12</wgt>
  <wgt id="719">3.79535e-12</wgt>
  <wgt id="720">3.91625e-12</wgt>
  <wgt id="721">3.90864e-12</wgt>
  <wgt id="722">3.7435e-12</wgt>
  <wgt id="723">4.40937e-12</wgt>
  <wgt id="724">4.33532e-12</wgt>
  <wgt id="725">4.39815e-12</wgt>
  <wgt id="726">4.20895e-12</wgt>
  <wgt id="727">4.06038e-12</wgt>
  <wgt id="728">4.10158e-12</wgt>
  <wgt id="729">3.73858e-12</wgt>
  <wgt id="730">4.45957e-12</wgt>
  <wgt id="731">4.11915e-12</wgt>
  <wgt id="732">4.5411e-12</wgt>
  <wgt id="733">4.17602e-12</wgt>
  <wgt id="734">4.25997e-12</wgt>
  <wgt id="735">4.12932e-12</wgt>
  <wgt id="736">4.10383e-12</wgt>
  <wgt id="737">4.23621e-12</wgt>
  <wgt id="738">3.97035e-12</wgt>
  <wgt id="739">4.16873e-12</wgt>
  <wgt id="740">4.60124e-12</wgt>
  <wgt id="741">3.69233e-12</wgt>
  <wgt id="742">4.09295e-12</wgt>
  <wgt id="743">4.01199e-12</wgt>
  <wgt id="744">4.07845e-12</wgt>
  <wgt id="745">4.33077e-12</wgt>
  <wgt id="746">4.38883e-12</wgt>
  <wgt id="747">3.81988e-12</wgt>
  <wgt id="748">4.10408e-12</wgt>
  <wgt id="749">4.39381e-12</wgt>
  <wgt id="750">4.14223e-12</wgt>
  <wgt id="751">4.31209e-12</wgt>
  <wgt id="752">3.83062e-12</wgt>
  <wgt id="753">3.97703e-12</wgt>
  <wgt id="754">4.33456e-12</wgt>
  <wgt id="755">4.18608e-12</wgt>
  <wgt id="756">4.19559e-12</wgt>
  <wgt id="757">3.85681e-12</wgt>
  <wgt id="758">4.21528e-12</wgt>
  <wgt id="759">4.16051e-12</wgt>
  <wgt id="760">4.23363e-12</wgt>
  <wgt id="761">4.37572e-12</wgt>
  <wgt id="762">4.39205e-12</wgt>
  <wgt id="763">4.15654e-12</wgt>
  <wgt id="764">4.3149e-12</wgt>
  <wgt id="765">4.23553e-12</wgt>
  <wgt id="766">4.1482e-12</wgt>
  <wgt id="767">4.26619e-12</wgt>
  <wgt id="768">3.94744e-12</wgt>
  <wgt id="769">4.40512e-12</wgt>
  <wgt id="770">4.02555e-12</wgt>
  <wgt id="771">4.88937e-12</wgt>
  <wgt id="772">3.91625e-12</wgt>
  <wgt id="773">4.13779e-12</wgt>
  <wgt id="774">3.75322e-12</wgt>
  <wgt id="775">4.38237e-12</wgt>
  <wgt id="776">4.54447e-12</wgt>
  <wgt id="777">4.00384e-12</wgt>
  <wgt id="778">3.10159e-12</wgt>
  <wgt id="779">2.63454e-12</wgt>
  <wgt id="780">2.19572e-12</wgt>
  <wgt id="781">3.0819e-12</wgt>
  <wgt id="782">3.27753e-12</wgt>
  <wgt id="783">2.6772e-12</wgt>
  <wgt id="784">2.74844e-12</wgt>
  <wgt id="785">3.72157e-12</wgt>
  <wgt id="786">2.41963e-12</wgt>
  <wgt id="787">3.49255e-12</wgt>
  <wgt id="788">2.04287e-12</wgt>
  <wgt id="789">2.47125e-12</wgt>
  <wgt id="790">2.40244e-12</wgt>
  <wgt id="791">2.86632e-12</wgt>
  <wgt id="792">3.9545e-12</wgt>
  <wgt id="793">3.0007e-12</wgt>
  <wgt id="794">2.43448e-12</wgt>
  <wgt id="795">3.57865e-12</wgt>
  <wgt id="796">4.05288e-12</wgt>
  <wgt id="797">3.54321e-12</wgt>
  <wgt id="798">2.89414e-12</wgt>
  <wgt id="799">3.50713e-12</wgt>
  <wgt id="800">2.50787e-12</wgt>
  <wgt id="801">2.91792e-12</wgt>
  <wgt id="802">2.4569e-12</wgt>
  <wgt id="803">3.97764e-12</wgt>
  <wgt id="804">3.55167e-12</wgt>
  <wgt id="805">3.62711e-12</wgt>
  <wgt id="806">3.50582e-12</wgt>
  <wgt id="807">2.96429e-12</wgt>
  <wgt id="808">3.03119e-12</wgt>
  <wgt id="809">2.8579e-12</wgt>
  <wgt id="810">3.5495e-12</wgt>
  <wgt id="811">3.3849e-12</wgt>
  <wgt id="812">2.40955e-12</wgt>
  <wgt id="813">2.45105e-12</wgt>
  <wgt id="814">2.66747e-12</wgt>
  <wgt id="815">2.64283e-12</wgt>
  <wgt id="816">2.3155e-12</wgt>
  <wgt id="817">3.27234e-12</wgt>
  <wgt id="818">3.02191e-12</wgt>
  <wgt id="819">2.63546e-12</wgt>
  <wgt id="820">3.1164e-12</wgt>
  <wgt id="821">3.54749e-12</wgt>
  <wgt id="822">2.63268e-12</wgt>
  <wgt id="823">3.5557e-12</wgt>
  <wgt id="824">4.14055e-12</wgt>
  <wgt id="825">2.34605e-12</wgt>
  <wgt id="826">3.23823e-12</wgt>
  <wgt id="827">1.94871e-12</wgt>
  <wgt id="828">3.97925e-12</wgt>
  <wgt id="829">3.22072e-12</wgt>
  <wgt id="830">2.22752e-12</wgt>
  <wgt id="831">3.32005e-12</wgt>
  <wgt id="832">5.03185e-12</wgt>
  <wgt id="833">2.92766e-12</wgt>
  <wgt id="834">4.68458e-12</wgt>
  <wgt id="835">2.52941e-12</wgt>
  <wgt id="836">3.12268e-12</wgt>
  <wgt id="837">3.50289e-12</wgt>
  <wgt id="838">2.98699e-12</wgt>
  <wgt id="839">3.30135e-12</wgt>
  <wgt id="840">2.92851e-12</wgt>
  <wgt id="841">3.76319e-12</wgt>
  <wgt id="842">2.82097e-12</wgt>
  <wgt id="843">3.0219e-12</wgt>
  <wgt id="844">3.22417e-12</wgt>
  <wgt id="845">4.23354e-12</wgt>
  <wgt id="846">2.83109e-12</wgt>
  <wgt id="847">3.1028e-12</wgt>
  <wgt id="848">2.73517e-12</wgt>
  <wgt id="849">3.17461e-12</wgt>
  <wgt id="850">3.98567e-12</wgt>
  <wgt id="851">3.38491e-12</wgt>
  <wgt id="852">2.72344e-12</wgt>
  <wgt id="853">3.37172e-12</wgt>
  <wgt id="854">3.73939e-12</wgt>
  <wgt id="855">3.56831e-12</wgt>
  <wgt id="856">2.28957e-12</wgt>
  <wgt id="857">3.13398e-12</wgt>
  <wgt id="858">3.10688e-12</wgt>
  <wgt id="859">2.88044e-12</wgt>
  <wgt id="860">3.28693e-12</wgt>
  <wgt id="861">2.7603e-12</wgt>
  <wgt id="862">3.16402e-12</wgt>
  <wgt id="863">3.25968e-12</wgt>
  <wgt id="864">3.29141e-12</wgt>
  <wgt id="865">4.39313e-12</wgt>
  <wgt id="866">4.79827e-12</wgt>
  <wgt id="867">3.15494e-12</wgt>
  <wgt id="868">3.07044e-12</wgt>
  <wgt id="869">2.45256e-12</wgt>
  <wgt id="870">2.57425e-12</wgt>
  <wgt id="871">2.50072e-12</wgt>
  <wgt id="872">3.64921e-12</wgt>
  <wgt id="873">2.55863e-12</wgt>
  <wgt id="874">3.24831e-12</wgt>
  <wgt id="875">2.71195e-12</wgt>
  <wgt id="876">3.66586e-12</wgt>
  <wgt id="877">3.54127e-12</wgt>
  <wgt id="878">2.70481e-12</wgt>
  <wgt id="879">4.16051e-12</wgt>
  <wgt id="880">4.21167e-12</wgt>
  <wgt id="881">4.34688e-12</wgt>
  <wgt id="882">3.91775e-12</wgt>
  <wgt id="883">4.03144e-12</wgt>
  <wgt id="884">4.27587e-12</wgt>
  <wgt id="885">4.25337e-12</wgt>
  <wgt id="886">4.12252e-12</wgt>
  <wgt id="887">4.3472e-12</wgt>
  <wgt id="888">3.92745e-12</wgt>
  <wgt id="889">4.14176e-12</wgt>
  <wgt id="890">4.36148e-12</wgt>
  <wgt id="891">4.16004e-12</wgt>
  <wgt id="892">4.49769e-12</wgt>
  <wgt id="893">4.39138e-12</wgt>
  <wgt id="894">4.41939e-12</wgt>
  <wgt id="895">4.12984e-12</wgt>
  <wgt id="896">4.81565e-12</wgt>
  <wgt id="897">4.39375e-12</wgt>
  <wgt id="898">4.03099e-12</wgt>
  <wgt id="899">3.93846e-12</wgt>
  <wgt id="900">4.06301e-12</wgt>
  <wgt id="901">3.87835e-12</wgt>
  <wgt id="902">3.83906e-12</wgt>
  <wgt id="903">3.66529e-12</wgt>
  <wgt id="904">4.1752e-12</wgt>
  <wgt id="905">3.98902e-12</wgt>
  <wgt id="906">4.73177e-12</wgt>
  <wgt id="907">4.49051e-12</wgt>
  <wgt id="908">4.30595e-12</wgt>
  <wgt id="909">3.87092e-12</wgt>
  <wgt id="910">4.00236e-12</wgt>
  <wgt id="911">4.1131e-12</wgt>
  <wgt id="912">4.09309e-12</wgt>
  <wgt id="913">3.72255e-12</wgt>
  <wgt id="914">4.14539e-12</wgt>
  <wgt id="915">4.10909e-12</wgt>
  <wgt id="916">4.48294e-12</wgt>
  <wgt id="917">4.13447e-12</wgt>
  <wgt id="918">4.12442e-12</wgt>
  <wgt id="919">4.00253e-12</wgt>
  <wgt id="920">4.00127e-12</wgt>
  <wgt id="921">4.10805e-12</wgt>
  <wgt id="922">3.79535e-12</wgt>
  <wgt id="923">3.91625e-12</wgt>
  <wgt id="924">3.90864e-12</wgt>
  <wgt id="925">3.7435e-12</wgt>
  <wgt id="926">4.40937e-12</wgt>
  <wgt id="927">4.33532e-12</wgt>
  <wgt id="928">4.39815e-12</wgt>
  <wgt id="929">4.20895e-12</wgt>
  <wgt id="930">4.06038e-12</wgt>
  <wgt id="931">4.10158e-12</wgt>
  <wgt id="932">3.73858e-12</wgt>
  <wgt id="933">4.45957e-12</wgt>
  <wgt id="934">4.11915e-12</wgt>
  <wgt id="935">4.5411e-12</wgt>
  <wgt id="936">4.17602e-12</wgt>
  <wgt id="937">4.25997e-12</wgt>
  <wgt id="938">4.12932e-12</wgt>
  <wgt id="939">4.10383e-12</wgt>
  <wgt id="940">4.23621e-12</wgt>
  <wgt id="941">3.97035e-12</wgt>
  <wgt id="942">4.16873e-12</wgt>
  <wgt id="943">4.60124e-12</wgt>
  <wgt id="944">3.69233e-12</wgt>
  <wgt id="945">4.09295e-12</wgt>
  <wgt id="946">4.01199e-12</wgt>
  <wgt id="947">4.07845e-12</wgt>
  <wgt id="948">4.33077e-12</wgt>
  <wgt id="949">4.38883e-12</wgt>
  <wgt id="950">3.81988e-12</wgt>
  <wgt id="951">4.10408e-12</wgt>
  <wgt id="952">4.39381e-12</wgt>
  <wgt id="953">4.14223e-12</wgt>
  <wgt id="954">4.31209e-12</wgt>
  <wgt id="955">3.83062e-12</wgt>
  <wgt id="956">3.97703e-12</wgt>
  <wgt id="957">4.33456e-12</wgt>
  <wgt id="958">4.18608e-12</wgt>
  <wgt id="959">4.19559e-12</wgt>
  <wgt id="960">3.85681e-12</wgt>
  <wgt id="961">4.21528e-12</wgt>
  <wgt id="962">4.16051e-12</wgt>
  <wgt id="963">4.23363e-12</wgt>
  <wgt id="964">4.37572e-12</wgt>
  <wgt id="965">4.39205e-12</wgt>
  <wgt id="966">4.15654e-12</wgt>
  <wgt id="967">4.3149e-12</wgt>
  <wgt id="968">4.23553e-12</wgt>
  <wgt id="969">4.1482e-12</wgt>
  <wgt id="970">4.26619e-12</wgt>
  <wgt id="971">3.94744e-12</wgt>
  <wgt id="972">4.40512e-12</wgt>
  <wgt id="973">4.02555e-12</wgt>
  <wgt id="974">4.88937e-12</wgt>
  <wgt id="975">3.91625e-12</wgt>
  <wgt id="976">4.13779e-12</wgt>
  <wgt id="977">3.75322e-12</wgt>
  <wgt id="978">4.38237e-12</wgt>
  <wgt id="979">4.54447e-12</wgt>
  <wgt id="980">4.16506e-12</wgt>
  <wgt id="981">4.17997e-12</wgt>
  <wgt id="982">4.04513e-12</wgt>
</rwgt>
</event>
<event>
 5   1  0.3028200E-11  0.2356342E+04  0.7818608E-02  0.7692420E-01
       21   -1    0    0  502  501  0.00000000000E+00  0.00000000000E+00  0.92590812240E+03  0.92590812240E+03  0.00000000000E+00 0.  1.
       21   -1    0    0  501  502 -0.00000000000E+00 -0.00000000000E+00 -0.14991623220E+04  0.14991623220E+04  0.00000000000E+00 0. -1.
       39    2    1    2    0    0  0.00000000000E+00  0.00000000000E+00 -0.57325419964E+03  0.24250704444E+04  0.23563417161E+04 0.  0.
       25    1    3    3    0    0 -0.30411330367E+02 -0.99131191215E+03  0.35512915493E+03  0.10608326319E+04  0.12500000000E+03 0.  0.
       25    1    3    3    0    0  0.30411330367E+02  0.99131191215E+03 -0.92838335457E+03  0.13642378126E+04  0.12500000000E+03 0.  0.
<mgrwt>
<rscale>  0 0.23563417E+04</rscale>
<asrwt>0</asrwt>
<pdfrwt beam="1">  1       21 0.14244741E+00 0.23563417E+04</pdfrwt>
<pdfrwt beam="2">  1       21 0.23064035E+00 0.23563417E+04</pdfrwt>
<totfact> 0.10800258E+01</totfact>
</mgrwt>
<rwgt>
  <wgt id="1">3.0282e-12</wgt>
  <wgt id="2">2.63244e-12</wgt>
  <wgt id="3">3.52021e-12</wgt>
  <wgt id="4">3.0282e-12</wgt>
  <wgt id="5">2.63244e-12</wgt>
  <wgt id="6">3.52021e-12</wgt>
  <wgt id="7">3.0282e-12</wgt>
  <wgt id="8">2.63244e-12</wgt>
  <wgt id="9">3.52021e-12</wgt>
  <wgt id="10">3.1441e-12</wgt>
  <wgt id="11">3.14148e-12</wgt>
  <wgt id="12">3.13821e-12</wgt>
  <wgt id="13">3.13366e-12</wgt>
  <wgt id="14">3.15561e-12</wgt>
  <wgt id="15">3.14915e-12</wgt>
  <wgt id="16">3.1385e-12</wgt>
  <wgt id="17">3.15122e-12</wgt>
  <wgt id="18">3.13825e-12</wgt>
  <wgt id="19">3.15144e-12</wgt>
  <wgt id="20">3.13558e-12</wgt>
  <wgt id="21">3.12395e-12</wgt>
  <wgt id="22">3.13081e-12</wgt>
  <wgt id="23">3.1135e-12</wgt>
  <wgt id="24">3.12862e-12</wgt>
  <wgt id="25">3.13611e-12</wgt>
  <wgt id="26">3.15611e-12</wgt>
  <wgt id="27">3.14329e-12</wgt>
  <wgt id="28">3.12919e-12</wgt>
  <wgt id="29">3.14662e-12</wgt>
  <wgt id="30">3.13384e-12</wgt>
  <wgt id="31">3.15411e-12</wgt>
  <wgt id="32">3.13758e-12</wgt>
  <wgt id="33">3.15163e-12</wgt>
  <wgt id="34">3.13261e-12</wgt>
  <wgt id="35">3.1403e-12</wgt>
  <wgt id="36">3.15491e-12</wgt>
  <wgt id="37">3.13579e-12</wgt>
  <wgt id="38">3.13459e-12</wgt>
  <wgt id="39">3.17928e-12</wgt>
  <wgt id="40">3.14942e-12</wgt>
  <wgt id="41">3.14299e-12</wgt>
  <wgt id="42">3.14999e-12</wgt>
  <wgt id="43">3.14402e-12</wgt>
  <wgt id="44">3.13738e-12</wgt>
  <wgt id="45">3.15112e-12</wgt>
  <wgt id="46">3.14716e-12</wgt>
  <wgt id="47">3.13705e-12</wgt>
  <wgt id="48">3.14471e-12</wgt>
  <wgt id="49">3.14466e-12</wgt>
  <wgt id="50">3.1551e-12</wgt>
  <wgt id="51">3.15315e-12</wgt>
  <wgt id="52">3.14427e-12</wgt>
  <wgt id="53">3.1254e-12</wgt>
  <wgt id="54">3.13932e-12</wgt>
  <wgt id="55">3.14391e-12</wgt>
  <wgt id="56">3.15547e-12</wgt>
  <wgt id="57">3.15235e-12</wgt>
  <wgt id="58">3.12584e-12</wgt>
  <wgt id="59">3.13441e-12</wgt>
  <wgt id="60">3.14509e-12</wgt>
  <wgt id="61">3.13145e-12</wgt>
  <wgt id="62">3.13875e-12</wgt>
  <wgt id="63">3.14371e-12</wgt>
  <wgt id="64">3.1464e-12</wgt>
  <wgt id="65">3.14801e-12</wgt>
  <wgt id="66">3.13994e-12</wgt>
  <wgt id="67">3.1334e-12</wgt>
  <wgt id="68">3.14162e-12</wgt>
  <wgt id="69">3.14426e-12</wgt>
  <wgt id="70">3.14329e-12</wgt>
  <wgt id="71">3.14297e-12</wgt>
  <wgt id="72">3.13784e-12</wgt>
  <wgt id="73">3.14731e-12</wgt>
  <wgt id="74">3.14591e-12</wgt>
  <wgt id="75">3.14101e-12</wgt>
  <wgt id="76">3.1526e-12</wgt>
  <wgt id="77">3.14303e-12</wgt>
  <wgt id="78">3.14382e-12</wgt>
  <wgt id="79">3.15147e-12</wgt>
  <wgt id="80">3.13081e-12</wgt>
  <wgt id="81">3.14161e-12</wgt>
  <wgt id="82">3.14425e-12</wgt>
  <wgt id="83">3.13168e-12</wgt>
  <wgt id="84">3.13907e-12</wgt>
  <wgt id="85">3.13703e-12</wgt>
  <wgt id="86">3.15346e-12</wgt>
  <wgt id="87">3.12687e-12</wgt>
  <wgt id="88">3.14764e-12</wgt>
  <wgt id="89">3.14688e-12</wgt>
  <wgt id="90">3.15078e-12</wgt>
  <wgt id="91">3.1472e-12</wgt>
  <wgt id="92">3.15046e-12</wgt>
  <wgt id="93">3.14553e-12</wgt>
  <wgt id="94">3.14106e-12</wgt>
  <wgt id="95">3.14882e-12</wgt>
  <wgt id="96">3.14662e-12</wgt>
  <wgt id="97">3.13817e-12</wgt>
  <wgt id="98">3.14562e-12</wgt>
  <wgt id="99">3.13942e-12</wgt>
  <wgt id="100">3.14792e-12</wgt>
  <wgt id="101">3.1445e-12</wgt>
  <wgt id="102">3.14156e-12</wgt>
  <wgt id="103">3.14863e-12</wgt>
  <wgt id="104">3.14262e-12</wgt>
  <wgt id="105">3.14849e-12</wgt>
  <wgt id="106">3.1392e-12</wgt>
  <wgt id="107">3.15365e-12</wgt>
  <wgt id="108">3.14042e-12</wgt>
  <wgt id="109">3.14477e-12</wgt>
  <wgt id="110">3.14424e-12</wgt>
  <wgt id="111">3.17219e-12</wgt>
  <wgt id="112">3.14882e-12</wgt>
  <wgt id="113">4.27771e-12</wgt>
  <wgt id="114">4.36375e-12</wgt>
  <wgt id="115">4.30021e-12</wgt>
  <wgt id="116">6.03807e-12</wgt>
  <wgt id="117">3.50748e-12</wgt>
  <wgt id="118">3.51999e-12</wgt>
  <wgt id="119">3.50018e-12</wgt>
  <wgt id="120">3.50771e-12</wgt>
  <wgt id="121">3.50735e-12</wgt>
  <wgt id="122">3.50119e-12</wgt>
  <wgt id="123">3.51573e-12</wgt>
  <wgt id="124">3.50241e-12</wgt>
  <wgt id="125">3.51052e-12</wgt>
  <wgt id="126">3.51375e-12</wgt>
  <wgt id="127">3.50325e-12</wgt>
  <wgt id="128">3.51838e-12</wgt>
  <wgt id="129">3.49658e-12</wgt>
  <wgt id="130">3.52765e-12</wgt>
  <wgt id="131">3.48683e-12</wgt>
  <wgt id="132">3.41506e-12</wgt>
  <wgt id="133">3.61688e-12</wgt>
  <wgt id="134">3.46939e-12</wgt>
  <wgt id="135">3.53723e-12</wgt>
  <wgt id="136">3.55365e-12</wgt>
  <wgt id="137">3.45144e-12</wgt>
  <wgt id="138">3.64681e-12</wgt>
  <wgt id="139">3.37302e-12</wgt>
  <wgt id="140">3.48499e-12</wgt>
  <wgt id="141">3.52487e-12</wgt>
  <wgt id="142">3.50775e-12</wgt>
  <wgt id="143">3.51309e-12</wgt>
  <wgt id="144">3.40222e-12</wgt>
  <wgt id="145">3.60575e-12</wgt>
  <wgt id="146">3.54095e-12</wgt>
  <wgt id="147">3.48069e-12</wgt>
  <wgt id="148">3.51851e-12</wgt>
  <wgt id="149">3.50659e-12</wgt>
  <wgt id="150">3.53786e-12</wgt>
  <wgt id="151">3.4933e-12</wgt>
  <wgt id="152">3.50909e-12</wgt>
  <wgt id="153">3.50673e-12</wgt>
  <wgt id="154">3.53298e-12</wgt>
  <wgt id="155">3.47597e-12</wgt>
  <wgt id="156">3.58361e-12</wgt>
  <wgt id="157">3.42945e-12</wgt>
  <wgt id="158">4.21787e-12</wgt>
  <wgt id="159">4.23568e-12</wgt>
  <wgt id="160">4.20385e-12</wgt>
  <wgt id="161">4.20732e-12</wgt>
  <wgt id="162">4.23004e-12</wgt>
  <wgt id="163">4.21315e-12</wgt>
  <wgt id="164">4.22494e-12</wgt>
  <wgt id="165">4.21959e-12</wgt>
  <wgt id="166">4.21659e-12</wgt>
  <wgt id="167">4.21486e-12</wgt>
  <wgt id="168">4.22244e-12</wgt>
  <wgt id="169">4.19992e-12</wgt>
  <wgt id="170">4.2291e-12</wgt>
  <wgt id="171">4.21336e-12</wgt>
  <wgt id="172">4.22438e-12</wgt>
  <wgt id="173">4.21674e-12</wgt>
  <wgt id="174">4.21831e-12</wgt>
  <wgt id="175">4.09831e-12</wgt>
  <wgt id="176">4.37412e-12</wgt>
  <wgt id="177">4.24052e-12</wgt>
  <wgt id="178">4.19732e-12</wgt>
  <wgt id="179">4.40022e-12</wgt>
  <wgt id="180">3.93127e-12</wgt>
  <wgt id="181">4.09234e-12</wgt>
  <wgt id="182">4.30093e-12</wgt>
  <wgt id="183">4.14139e-12</wgt>
  <wgt id="184">4.25593e-12</wgt>
  <wgt id="185">4.1822e-12</wgt>
  <wgt id="186">4.26135e-12</wgt>
  <wgt id="187">4.17876e-12</wgt>
  <wgt id="188">4.28819e-12</wgt>
  <wgt id="189">4.18978e-12</wgt>
  <wgt id="190">4.22936e-12</wgt>
  <wgt id="191">4.22981e-12</wgt>
  <wgt id="192">4.21081e-12</wgt>
  <wgt id="193">4.2796e-12</wgt>
  <wgt id="194">4.18744e-12</wgt>
  <wgt id="195">4.10649e-12</wgt>
  <wgt id="196">4.41299e-12</wgt>
  <wgt id="197">4.23934e-12</wgt>
  <wgt id="198">4.21289e-12</wgt>
  <wgt id="199">4.21787e-12</wgt>
  <wgt id="200">4.25465e-12</wgt>
  <wgt id="201">4.24148e-12</wgt>
  <wgt id="202">4.22848e-12</wgt>
  <wgt id="203">4.2091e-12</wgt>
  <wgt id="204">4.19981e-12</wgt>
  <wgt id="205">4.19229e-12</wgt>
  <wgt id="206">4.09271e-12</wgt>
  <wgt id="207">4.11677e-12</wgt>
  <wgt id="208">4.06917e-12</wgt>
  <wgt id="209">4.10578e-12</wgt>
  <wgt id="210">4.08364e-12</wgt>
  <wgt id="211">4.09138e-12</wgt>
  <wgt id="212">4.09394e-12</wgt>
  <wgt id="213">4.09257e-12</wgt>
  <wgt id="214">4.09335e-12</wgt>
  <wgt id="215">4.09598e-12</wgt>
  <wgt id="216">4.09069e-12</wgt>
  <wgt id="217">4.1043e-12</wgt>
  <wgt id="218">4.08394e-12</wgt>
  <wgt id="219">4.08877e-12</wgt>
  <wgt id="220">4.0955e-12</wgt>
  <wgt id="221">4.0916e-12</wgt>
  <wgt id="222">4.09611e-12</wgt>
  <wgt id="223">3.87412e-12</wgt>
  <wgt id="224">4.29224e-12</wgt>
  <wgt id="225">4.04331e-12</wgt>
  <wgt id="226">4.15532e-12</wgt>
  <wgt id="227">4.05409e-12</wgt>
  <wgt id="228">4.10987e-12</wgt>
  <wgt id="229">4.03578e-12</wgt>
  <wgt id="230">4.12133e-12</wgt>
  <wgt id="231">4.21237e-12</wgt>
  <wgt id="232">3.99476e-12</wgt>
  <wgt id="233">4.07119e-12</wgt>
  <wgt id="234">4.12766e-12</wgt>
  <wgt id="235">3.999e-12</wgt>
  <wgt id="236">4.17767e-12</wgt>
  <wgt id="237">4.0312e-12</wgt>
  <wgt id="238">4.1138e-12</wgt>
  <wgt id="239">4.06661e-12</wgt>
  <wgt id="240">4.14054e-12</wgt>
  <wgt id="241">4.05021e-12</wgt>
  <wgt id="242">4.14418e-12</wgt>
  <wgt id="243">4.14647e-12</wgt>
  <wgt id="244">4.1114e-12</wgt>
  <wgt id="245">4.09022e-12</wgt>
  <wgt id="246">4.12202e-12</wgt>
  <wgt id="247">4.09271e-12</wgt>
  <wgt id="248">4.12931e-12</wgt>
  <wgt id="249">4.1155e-12</wgt>
  <wgt id="250">4.10251e-12</wgt>
  <wgt id="251">4.08345e-12</wgt>
  <wgt id="252">4.07424e-12</wgt>
  <wgt id="253">4.06787e-12</wgt>
  <wgt id="254">4.00229e-12</wgt>
  <wgt id="255">4.00608e-12</wgt>
  <wgt id="256">3.99821e-12</wgt>
  <wgt id="257">4.00528e-12</wgt>
  <wgt id="258">4.00018e-12</wgt>
  <wgt id="259">4.02901e-12</wgt>
  <wgt id="260">3.97651e-12</wgt>
  <wgt id="261">4.00817e-12</wgt>
  <wgt id="262">3.99515e-12</wgt>
  <wgt id="263">4.0002e-12</wgt>
  <wgt id="264">4.00452e-12</wgt>
  <wgt id="265">3.99757e-12</wgt>
  <wgt id="266">4.01186e-12</wgt>
  <wgt id="267">4.00348e-12</wgt>
  <wgt id="268">4.00041e-12</wgt>
  <wgt id="269">4.01522e-12</wgt>
  <wgt id="270">3.99348e-12</wgt>
  <wgt id="271">3.99515e-12</wgt>
  <wgt id="272">4.0104e-12</wgt>
  <wgt id="273">3.99002e-12</wgt>
  <wgt id="274">4.01164e-12</wgt>
  <wgt id="275">3.98497e-12</wgt>
  <wgt id="276">4.0202e-12</wgt>
  <wgt id="277">3.97931e-12</wgt>
  <wgt id="278">4.02343e-12</wgt>
  <wgt id="279">3.92553e-12</wgt>
  <wgt id="280">4.09869e-12</wgt>
  <wgt id="281">3.98464e-12</wgt>
  <wgt id="282">4.00359e-12</wgt>
  <wgt id="283">3.8862e-12</wgt>
  <wgt id="284">4.14527e-12</wgt>
  <wgt id="285">3.81004e-12</wgt>
  <wgt id="286">4.16148e-12</wgt>
  <wgt id="287">4.01507e-12</wgt>
  <wgt id="288">3.98611e-12</wgt>
  <wgt id="289">4.03076e-12</wgt>
  <wgt id="290">3.9366e-12</wgt>
  <wgt id="291">3.99078e-12</wgt>
  <wgt id="292">4.00477e-12</wgt>
  <wgt id="293">3.97121e-12</wgt>
  <wgt id="294">4.03322e-12</wgt>
  <wgt id="295">3.92608e-12</wgt>
  <wgt id="296">4.09527e-12</wgt>
  <wgt id="297">4.00096e-12</wgt>
  <wgt id="298">4.01778e-12</wgt>
  <wgt id="299">3.9894e-12</wgt>
  <wgt id="300">4.03656e-12</wgt>
  <wgt id="301">3.94405e-12</wgt>
  <wgt id="302">4.14706e-12</wgt>
  <wgt id="303">3.97048e-12</wgt>
  <wgt id="304">4.02043e-12</wgt>
  <wgt id="305">4.01012e-12</wgt>
  <wgt id="306">4.01418e-12</wgt>
  <wgt id="307">4.0056e-12</wgt>
  <wgt id="308">4.01353e-12</wgt>
  <wgt id="309">4.0079e-12</wgt>
  <wgt id="310">4.03793e-12</wgt>
  <wgt id="311">3.98424e-12</wgt>
  <wgt id="312">4.01487e-12</wgt>
  <wgt id="313">4.00516e-12</wgt>
  <wgt id="314">4.00799e-12</wgt>
  <wgt id="315">4.01191e-12</wgt>
  <wgt id="316">4.00549e-12</wgt>
  <wgt id="317">4.01999e-12</wgt>
  <wgt id="318">4.01304e-12</wgt>
  <wgt id="319">4.00485e-12</wgt>
  <wgt id="320">4.02378e-12</wgt>
  <wgt id="321">4.00243e-12</wgt>
  <wgt id="322">4.00088e-12</wgt>
  <wgt id="323">4.02063e-12</wgt>
  <wgt id="324">3.99984e-12</wgt>
  <wgt id="325">4.0189e-12</wgt>
  <wgt id="326">3.99605e-12</wgt>
  <wgt id="327">4.02806e-12</wgt>
  <wgt id="328">3.98925e-12</wgt>
  <wgt id="329">4.02171e-12</wgt>
  <wgt id="330">4.12809e-12</wgt>
  <wgt id="331">3.89764e-12</wgt>
  <wgt id="332">3.99522e-12</wgt>
  <wgt id="333">4.01056e-12</wgt>
  <wgt id="334">3.91918e-12</wgt>
  <wgt id="335">4.12295e-12</wgt>
  <wgt id="336">3.87066e-12</wgt>
  <wgt id="337">4.17999e-12</wgt>
  <wgt id="338">4.05493e-12</wgt>
  <wgt id="339">3.96849e-12</wgt>
  <wgt id="340">4.03662e-12</wgt>
  <wgt id="341">3.94157e-12</wgt>
  <wgt id="342">4.00202e-12</wgt>
  <wgt id="343">4.00582e-12</wgt>
  <wgt id="344">3.98191e-12</wgt>
  <wgt id="345">4.0426e-12</wgt>
  <wgt id="346">3.93091e-12</wgt>
  <wgt id="347">4.10106e-12</wgt>
  <wgt id="348">4.01037e-12</wgt>
  <wgt id="349">4.02319e-12</wgt>
  <wgt id="350">3.99378e-12</wgt>
  <wgt id="351">4.05122e-12</wgt>
  <wgt id="352">3.94628e-12</wgt>
  <wgt id="353">4.16026e-12</wgt>
  <wgt id="354">3.96199e-12</wgt>
  <wgt id="355">4.03941e-12</wgt>
  <wgt id="356">4.00229e-12</wgt>
  <wgt id="357">4.02523e-12</wgt>
  <wgt id="358">4.01012e-12</wgt>
  <wgt id="359">4.015e-12</wgt>
  <wgt id="360">4.03319e-12</wgt>
  <wgt id="361">4.0157e-12</wgt>
  <wgt id="362">4.08635e-12</wgt>
  <wgt id="363">4.07661e-12</wgt>
  <wgt id="364">4.06194e-12</wgt>
  <wgt id="365">4.04815e-12</wgt>
  <wgt id="366">4.03273e-12</wgt>
  <wgt id="367">4.00168e-12</wgt>
  <wgt id="368">3.98415e-12</wgt>
  <wgt id="369">3.9652e-12</wgt>
  <wgt id="370">4.0157e-12</wgt>
  <wgt id="371">4.03371e-12</wgt>
  <wgt id="372">4.02389e-12</wgt>
  <wgt id="373">4.00911e-12</wgt>
  <wgt id="374">4.00857e-12</wgt>
  <wgt id="375">4.31331e-12</wgt>
  <wgt id="376">4.31385e-12</wgt>
  <wgt id="377">4.31248e-12</wgt>
  <wgt id="378">4.3292e-12</wgt>
  <wgt id="379">4.29764e-12</wgt>
  <wgt id="380">4.32491e-12</wgt>
  <wgt id="381">4.30881e-12</wgt>
  <wgt id="382">4.33568e-12</wgt>
  <wgt id="383">4.29116e-12</wgt>
  <wgt id="384">4.31619e-12</wgt>
  <wgt id="385">4.31053e-12</wgt>
  <wgt id="386">4.33048e-12</wgt>
  <wgt id="387">4.30595e-12</wgt>
  <wgt id="388">4.30917e-12</wgt>
  <wgt id="389">4.31829e-12</wgt>
  <wgt id="390">4.32489e-12</wgt>
  <wgt id="391">4.30124e-12</wgt>
  <wgt id="392">4.2796e-12</wgt>
  <wgt id="393">4.33266e-12</wgt>
  <wgt id="394">4.31921e-12</wgt>
  <wgt id="395">4.30546e-12</wgt>
  <wgt id="396">4.31682e-12</wgt>
  <wgt id="397">4.31094e-12</wgt>
  <wgt id="398">4.29568e-12</wgt>
  <wgt id="399">4.3305e-12</wgt>
  <wgt id="400">4.3062e-12</wgt>
  <wgt id="401">4.32958e-12</wgt>
  <wgt id="402">4.27768e-12</wgt>
  <wgt id="403">4.32972e-12</wgt>
  <wgt id="404">4.41503e-12</wgt>
  <wgt id="405">4.06818e-12</wgt>
  <wgt id="406">4.24014e-12</wgt>
  <wgt id="407">4.4724e-12</wgt>
  <wgt id="408">4.35092e-12</wgt>
  <wgt id="409">4.24162e-12</wgt>
  <wgt id="410">4.19368e-12</wgt>
  <wgt id="411">4.36903e-12</wgt>
  <wgt id="412">4.30541e-12</wgt>
  <wgt id="413">4.32504e-12</wgt>
  <wgt id="414">4.26555e-12</wgt>
  <wgt id="415">4.35061e-12</wgt>
  <wgt id="416">4.43029e-12</wgt>
  <wgt id="417">4.15184e-12</wgt>
  <wgt id="418">4.31928e-12</wgt>
  <wgt id="419">4.28084e-12</wgt>
  <wgt id="420">4.38172e-12</wgt>
  <wgt id="421">4.2734e-12</wgt>
  <wgt id="422">4.30474e-12</wgt>
  <wgt id="423">4.31823e-12</wgt>
  <wgt id="424">4.40445e-12</wgt>
  <wgt id="425">4.25547e-12</wgt>
  <wgt id="426">4.31331e-12</wgt>
  <wgt id="427">4.27076e-12</wgt>
  <wgt id="428">4.43344e-12</wgt>
  <wgt id="429">4.35397e-12</wgt>
  <wgt id="430">4.47729e-12</wgt>
  <wgt id="431">4.45261e-12</wgt>
  <wgt id="432">4.42942e-12</wgt>
  <wgt id="433">4.40696e-12</wgt>
  <wgt id="434">4.37955e-12</wgt>
  <wgt id="435">4.3224e-12</wgt>
  <wgt id="436">4.29321e-12</wgt>
  <wgt id="437">4.26516e-12</wgt>
  <wgt id="438">4.35397e-12</wgt>
  <wgt id="439">4.36829e-12</wgt>
  <wgt id="440">4.35985e-12</wgt>
  <wgt id="441">4.34965e-12</wgt>
  <wgt id="442">4.34613e-12</wgt>
  <wgt id="443">4.18731e-12</wgt>
  <wgt id="444">4.21274e-12</wgt>
  <wgt id="445">4.17705e-12</wgt>
  <wgt id="446">4.15987e-12</wgt>
  <wgt id="447">4.17503e-12</wgt>
  <wgt id="448">4.07764e-12</wgt>
  <wgt id="449">4.25374e-12</wgt>
  <wgt id="450">4.18044e-12</wgt>
  <wgt id="451">4.17982e-12</wgt>
  <wgt id="452">4.28132e-12</wgt>
  <wgt id="453">4.22719e-12</wgt>
  <wgt id="454">4.01556e-12</wgt>
  <wgt id="455">4.19581e-12</wgt>
  <wgt id="456">4.16238e-12</wgt>
  <wgt id="457">4.20402e-12</wgt>
  <wgt id="458">4.23822e-12</wgt>
  <wgt id="459">4.21689e-12</wgt>
  <wgt id="460">4.21738e-12</wgt>
  <wgt id="461">4.1075e-12</wgt>
  <wgt id="462">4.15386e-12</wgt>
  <wgt id="463">4.13912e-12</wgt>
  <wgt id="464">4.16426e-12</wgt>
  <wgt id="465">4.2316e-12</wgt>
  <wgt id="466">4.13461e-12</wgt>
  <wgt id="467">4.14736e-12</wgt>
  <wgt id="468">4.17642e-12</wgt>
  <wgt id="469">4.17613e-12</wgt>
  <wgt id="470">4.14703e-12</wgt>
  <wgt id="471">4.14903e-12</wgt>
  <wgt id="472">4.20719e-12</wgt>
  <wgt id="473">4.05292e-12</wgt>
  <wgt id="474">3.0282e-12</wgt>
  <wgt id="475">3.1787e-12</wgt>
  <wgt id="476">2.96979e-12</wgt>
  <wgt id="477">2.93645e-12</wgt>
  <wgt id="478">3.0475e-12</wgt>
  <wgt id="479">2.96563e-12</wgt>
  <wgt id="480">3.1444e-12</wgt>
  <wgt id="481">2.98552e-12</wgt>
  <wgt id="482">2.93955e-12</wgt>
  <wgt id="483">2.95282e-12</wgt>
  <wgt id="484">3.18647e-12</wgt>
  <wgt id="485">2.99728e-12</wgt>
  <wgt id="486">3.12762e-12</wgt>
  <wgt id="487">3.06916e-12</wgt>
  <wgt id="488">3.07791e-12</wgt>
  <wgt id="489">2.90135e-12</wgt>
  <wgt id="490">2.9191e-12</wgt>
  <wgt id="491">3.00129e-12</wgt>
  <wgt id="492">2.94892e-12</wgt>
  <wgt id="493">2.90827e-12</wgt>
  <wgt id="494">2.93155e-12</wgt>
  <wgt id="495">3.07586e-12</wgt>
  <wgt id="496">2.92926e-12</wgt>
  <wgt id="497">2.90449e-12</wgt>
  <wgt id="498">3.08713e-12</wgt>
  <wgt id="499">2.96986e-12</wgt>
  <wgt id="500">2.97384e-12</wgt>
  <wgt id="501">3.16432e-12</wgt>
  <wgt id="502">2.97683e-12</wgt>
  <wgt id="503">3.02652e-12</wgt>
  <wgt id="504">3.0685e-12</wgt>
  <wgt id="505">3.01065e-12</wgt>
  <wgt id="506">3.04876e-12</wgt>
  <wgt id="507">3.01292e-12</wgt>
  <wgt id="508">3.09565e-12</wgt>
  <wgt id="509">2.9047e-12</wgt>
  <wgt id="510">3.10969e-12</wgt>
  <wgt id="511">2.95536e-12</wgt>
  <wgt id="512">3.09568e-12</wgt>
  <wgt id="513">3.1581e-12</wgt>
  <wgt id="514">3.0321e-12</wgt>
  <wgt id="515">3.00156e-12</wgt>
  <wgt id="516">3.14744e-12</wgt>
  <wgt id="517">3.09551e-12</wgt>
  <wgt id="518">3.1046e-12</wgt>
  <wgt id="519">2.94018e-12</wgt>
  <wgt id="520">3.07141e-12</wgt>
  <wgt id="521">3.11746e-12</wgt>
  <wgt id="522">3.15285e-12</wgt>
  <wgt id="523">3.0594e-12</wgt>
  <wgt id="524">3.05139e-12</wgt>
  <wgt id="525">3.11752e-12</wgt>
  <wgt id="526">3.05682e-12</wgt>
  <wgt id="527">3.06444e-12</wgt>
  <wgt id="528">3.04627e-12</wgt>
  <wgt id="529">2.97827e-12</wgt>
  <wgt id="530">3.07949e-12</wgt>
  <wgt id="531">2.98637e-12</wgt>
  <wgt id="532">3.21181e-12</wgt>
  <wgt id="533">2.87109e-12</wgt>
  <wgt id="534">3.02936e-12</wgt>
  <wgt id="535">3.06496e-12</wgt>
  <wgt id="536">3.01172e-12</wgt>
  <wgt id="537">3.02629e-12</wgt>
  <wgt id="538">3.06033e-12</wgt>
  <wgt id="539">2.97196e-12</wgt>
  <wgt id="540">2.99237e-12</wgt>
  <wgt id="541">2.93809e-12</wgt>
  <wgt id="542">2.98481e-12</wgt>
  <wgt id="543">3.01692e-12</wgt>
  <wgt id="544">3.16687e-12</wgt>
  <wgt id="545">2.9778e-12</wgt>
  <wgt id="546">2.96556e-12</wgt>
  <wgt id="547">2.94371e-12</wgt>
  <wgt id="548">2.90584e-12</wgt>
  <wgt id="549">2.97653e-12</wgt>
  <wgt id="550">2.98173e-12</wgt>
  <wgt id="551">3.06385e-12</wgt>
  <wgt id="552">2.96701e-12</wgt>
  <wgt id="553">3.00543e-12</wgt>
  <wgt id="554">3.24637e-12</wgt>
  <wgt id="555">3.1086e-12</wgt>
  <wgt id="556">2.9191e-12</wgt>
  <wgt id="557">3.09118e-12</wgt>
  <wgt id="558">2.94304e-12</wgt>
  <wgt id="559">2.97565e-12</wgt>
  <wgt id="560">3.30253e-12</wgt>
  <wgt id="561">2.98355e-12</wgt>
  <wgt id="562">3.09346e-12</wgt>
  <wgt id="563">2.98672e-12</wgt>
  <wgt id="564">3.06313e-12</wgt>
  <wgt id="565">2.93599e-12</wgt>
  <wgt id="566">3.07035e-12</wgt>
  <wgt id="567">2.99423e-12</wgt>
  <wgt id="568">3.01277e-12</wgt>
  <wgt id="569">3.07665e-12</wgt>
  <wgt id="570">2.91839e-12</wgt>
  <wgt id="571">3.35631e-12</wgt>
  <wgt id="572">2.96394e-12</wgt>
  <wgt id="573">2.907e-12</wgt>
  <wgt id="574">2.92798e-12</wgt>
  <wgt id="575">3.33904e-12</wgt>
  <wgt id="576">3.34976e-12</wgt>
  <wgt id="577">3.43105e-12</wgt>
  <wgt id="578">3.43155e-12</wgt>
  <wgt id="579">3.41019e-12</wgt>
  <wgt id="580">3.4279e-12</wgt>
  <wgt id="581">3.57521e-12</wgt>
  <wgt id="582">3.34091e-12</wgt>
  <wgt id="583">3.37355e-12</wgt>
  <wgt id="584">3.33643e-12</wgt>
  <wgt id="585">3.31864e-12</wgt>
  <wgt id="586">3.24736e-12</wgt>
  <wgt id="587">3.38784e-12</wgt>
  <wgt id="588">3.34423e-12</wgt>
  <wgt id="589">3.43042e-12</wgt>
  <wgt id="590">3.37631e-12</wgt>
  <wgt id="591">3.46168e-12</wgt>
  <wgt id="592">3.22167e-12</wgt>
  <wgt id="593">3.3154e-12</wgt>
  <wgt id="594">3.42289e-12</wgt>
  <wgt id="595">3.34388e-12</wgt>
  <wgt id="596">3.41072e-12</wgt>
  <wgt id="597">3.25974e-12</wgt>
  <wgt id="598">3.2295e-12</wgt>
  <wgt id="599">3.48988e-12</wgt>
  <wgt id="600">3.32759e-12</wgt>
  <wgt id="601">3.24121e-12</wgt>
  <wgt id="602">3.25322e-12</wgt>
  <wgt id="603">3.2607e-12</wgt>
  <wgt id="604">3.39041e-12</wgt>
  <wgt id="605">3.4649e-12</wgt>
  <wgt id="606">3.29275e-12</wgt>
  <wgt id="607">3.31942e-12</wgt>
  <wgt id="608">3.38063e-12</wgt>
  <wgt id="609">3.17815e-12</wgt>
  <wgt id="610">3.21783e-12</wgt>
  <wgt id="611">3.35051e-12</wgt>
  <wgt id="612">3.57712e-12</wgt>
  <wgt id="613">3.31353e-12</wgt>
  <wgt id="614">3.37012e-12</wgt>
  <wgt id="615">3.28541e-12</wgt>
  <wgt id="616">3.49308e-12</wgt>
  <wgt id="617">3.45712e-12</wgt>
  <wgt id="618">3.47212e-12</wgt>
  <wgt id="619">3.2974e-12</wgt>
  <wgt id="620">3.47323e-12</wgt>
  <wgt id="621">3.36538e-12</wgt>
  <wgt id="622">3.38784e-12</wgt>
  <wgt id="623">3.42611e-12</wgt>
  <wgt id="624">3.33543e-12</wgt>
  <wgt id="625">3.28446e-12</wgt>
  <wgt id="626">3.22991e-12</wgt>
  <wgt id="627">3.19006e-12</wgt>
  <wgt id="628">3.49461e-12</wgt>
  <wgt id="629">3.2775e-12</wgt>
  <wgt id="630">3.23112e-12</wgt>
  <wgt id="631">3.36064e-12</wgt>
  <wgt id="632">3.19594e-12</wgt>
  <wgt id="633">3.30869e-12</wgt>
  <wgt id="634">3.31195e-12</wgt>
  <wgt id="635">3.23281e-12</wgt>
  <wgt id="636">3.36713e-12</wgt>
  <wgt id="637">3.33869e-12</wgt>
  <wgt id="638">3.21514e-12</wgt>
  <wgt id="639">3.28659e-12</wgt>
  <wgt id="640">3.33524e-12</wgt>
  <wgt id="641">3.38114e-12</wgt>
  <wgt id="642">3.24688e-12</wgt>
  <wgt id="643">3.31449e-12</wgt>
  <wgt id="644">3.15903e-12</wgt>
  <wgt id="645">3.36386e-12</wgt>
  <wgt id="646">3.34836e-12</wgt>
  <wgt id="647">3.30139e-12</wgt>
  <wgt id="648">3.37512e-12</wgt>
  <wgt id="649">3.38136e-12</wgt>
  <wgt id="650">3.26034e-12</wgt>
  <wgt id="651">3.38982e-12</wgt>
  <wgt id="652">3.30289e-12</wgt>
  <wgt id="653">3.24224e-12</wgt>
  <wgt id="654">3.3079e-12</wgt>
  <wgt id="655">3.28221e-12</wgt>
  <wgt id="656">3.35016e-12</wgt>
  <wgt id="657">3.49302e-12</wgt>
  <wgt id="658">3.35302e-12</wgt>
  <wgt id="659">3.20736e-12</wgt>
  <wgt id="660">3.38561e-12</wgt>
  <wgt id="661">3.28451e-12</wgt>
  <wgt id="662">3.32588e-12</wgt>
  <wgt id="663">3.3466e-12</wgt>
  <wgt id="664">3.30024e-12</wgt>
  <wgt id="665">3.33064e-12</wgt>
  <wgt id="666">3.30693e-12</wgt>
  <wgt id="667">3.45394e-12</wgt>
  <wgt id="668">3.33399e-12</wgt>
  <wgt id="669">3.41254e-12</wgt>
  <wgt id="670">3.41898e-12</wgt>
  <wgt id="671">3.31531e-12</wgt>
  <wgt id="672">3.20007e-12</wgt>
  <wgt id="673">3.36978e-12</wgt>
  <wgt id="674">3.2694e-12</wgt>
  <wgt id="675">3.28843e-12</wgt>
  <wgt id="676">4.22549e-12</wgt>
  <wgt id="677">4.27396e-12</wgt>
  <wgt id="678">4.44805e-12</wgt>
  <wgt id="679">3.98834e-12</wgt>
  <wgt id="680">4.1439e-12</wgt>
  <wgt id="681">4.29484e-12</wgt>
  <wgt id="682">4.35316e-12</wgt>
  <wgt id="683">4.147e-12</wgt>
  <wgt id="684">4.41398e-12</wgt>
  <wgt id="685">4.03822e-12</wgt>
  <wgt id="686">4.13141e-12</wgt>
  <wgt id="687">4.42414e-12</wgt>
  <wgt id="688">4.1789e-12</wgt>
  <wgt id="689">4.53366e-12</wgt>
  <wgt id="690">4.42344e-12</wgt>
  <wgt id="691">4.44773e-12</wgt>
  <wgt id="692">4.17755e-12</wgt>
  <wgt id="693">5.01445e-12</wgt>
  <wgt id="694">4.49566e-12</wgt>
  <wgt id="695">4.0856e-12</wgt>
  <wgt id="696">4.0245e-12</wgt>
  <wgt id="697">4.06649e-12</wgt>
  <wgt id="698">3.83926e-12</wgt>
  <wgt id="699">3.81448e-12</wgt>
  <wgt id="700">3.6991e-12</wgt>
  <wgt id="701">4.23626e-12</wgt>
  <wgt id="702">4.1089e-12</wgt>
  <wgt id="703">4.87751e-12</wgt>
  <wgt id="704">4.63957e-12</wgt>
  <wgt id="705">4.46671e-12</wgt>
  <wgt id="706">3.95695e-12</wgt>
  <wgt id="707">4.04814e-12</wgt>
  <wgt id="708">4.16035e-12</wgt>
  <wgt id="709">4.14542e-12</wgt>
  <wgt id="710">3.8157e-12</wgt>
  <wgt id="711">4.21158e-12</wgt>
  <wgt id="712">4.12712e-12</wgt>
  <wgt id="713">4.55616e-12</wgt>
  <wgt id="714">4.11844e-12</wgt>
  <wgt id="715">4.16605e-12</wgt>
  <wgt id="716">4.07143e-12</wgt>
  <wgt id="717">3.98656e-12</wgt>
  <wgt id="718">4.23223e-12</wgt>
  <wgt id="719">3.83678e-12</wgt>
  <wgt id="720">4.01826e-12</wgt>
  <wgt id="721">3.85143e-12</wgt>
  <wgt id="722">3.71149e-12</wgt>
  <wgt id="723">4.52581e-12</wgt>
  <wgt id="724">4.43985e-12</wgt>
  <wgt id="725">4.45011e-12</wgt>
  <wgt id="726">4.2565e-12</wgt>
  <wgt id="727">4.14049e-12</wgt>
  <wgt id="728">4.12452e-12</wgt>
  <wgt id="729">3.94804e-12</wgt>
  <wgt id="730">4.56393e-12</wgt>
  <wgt id="731">4.16676e-12</wgt>
  <wgt id="732">4.67042e-12</wgt>
  <wgt id="733">4.17708e-12</wgt>
  <wgt id="734">4.32988e-12</wgt>
  <wgt id="735">4.22667e-12</wgt>
  <wgt id="736">4.11918e-12</wgt>
  <wgt id="737">4.27501e-12</wgt>
  <wgt id="738">4.02291e-12</wgt>
  <wgt id="739">4.33213e-12</wgt>
  <wgt id="740">4.71894e-12</wgt>
  <wgt id="741">3.8178e-12</wgt>
  <wgt id="742">4.16824e-12</wgt>
  <wgt id="743">4.01188e-12</wgt>
  <wgt id="744">4.13946e-12</wgt>
  <wgt id="745">4.43236e-12</wgt>
  <wgt id="746">4.51347e-12</wgt>
  <wgt id="747">3.79115e-12</wgt>
  <wgt id="748">4.16466e-12</wgt>
  <wgt id="749">4.43447e-12</wgt>
  <wgt id="750">4.3558e-12</wgt>
  <wgt id="751">4.33986e-12</wgt>
  <wgt id="752">3.86926e-12</wgt>
  <wgt id="753">3.98679e-12</wgt>
  <wgt id="754">4.40056e-12</wgt>
  <wgt id="755">4.22873e-12</wgt>
  <wgt id="756">4.23032e-12</wgt>
  <wgt id="757">3.86836e-12</wgt>
  <wgt id="758">4.24027e-12</wgt>
  <wgt id="759">4.38285e-12</wgt>
  <wgt id="760">4.25103e-12</wgt>
  <wgt id="761">4.47017e-12</wgt>
  <wgt id="762">4.49502e-12</wgt>
  <wgt id="763">4.21321e-12</wgt>
  <wgt id="764">4.40237e-12</wgt>
  <wgt id="765">4.27985e-12</wgt>
  <wgt id="766">4.22423e-12</wgt>
  <wgt id="767">4.32669e-12</wgt>
  <wgt id="768">3.9718e-12</wgt>
  <wgt id="769">4.48168e-12</wgt>
  <wgt id="770">4.11587e-12</wgt>
  <wgt id="771">5.00971e-12</wgt>
  <wgt id="772">4.00714e-12</wgt>
  <wgt id="773">4.19296e-12</wgt>
  <wgt id="774">3.69636e-12</wgt>
  <wgt id="775">4.43948e-12</wgt>
  <wgt id="776">4.62158e-12</wgt>
  <wgt id="777">3.98907e-12</wgt>
  <wgt id="778">3.07954e-12</wgt>
  <wgt id="779">2.47865e-12</wgt>
  <wgt id="780">1.95914e-12</wgt>
  <wgt id="781">3.29449e-12</wgt>
  <wgt id="782">3.30821e-12</wgt>
  <wgt id="783">2.49345e-12</wgt>
  <wgt id="784">2.63509e-12</wgt>
  <wgt id="785">3.84928e-12</wgt>
  <wgt id="786">2.32005e-12</wgt>
  <wgt id="787">3.55801e-12</wgt>
  <wgt id="788">1.79593e-12</wgt>
  <wgt id="789">2.47223e-12</wgt>
  <wgt id="790">2.28318e-12</wgt>
  <wgt id="791">2.96933e-12</wgt>
  <wgt id="792">4.05808e-12</wgt>
  <wgt id="793">3.02231e-12</wgt>
  <wgt id="794">2.26523e-12</wgt>
  <wgt id="795">3.6842e-12</wgt>
  <wgt id="796">4.0766e-12</wgt>
  <wgt id="797">3.64833e-12</wgt>
  <wgt id="798">2.77392e-12</wgt>
  <wgt id="799">3.5408e-12</wgt>
  <wgt id="800">2.50548e-12</wgt>
  <wgt id="801">2.85412e-12</wgt>
  <wgt id="802">2.26578e-12</wgt>
  <wgt id="803">4.20866e-12</wgt>
  <wgt id="804">3.65721e-12</wgt>
  <wgt id="805">3.70258e-12</wgt>
  <wgt id="806">3.40688e-12</wgt>
  <wgt id="807">2.93022e-12</wgt>
  <wgt id="808">2.97812e-12</wgt>
  <wgt id="809">2.83514e-12</wgt>
  <wgt id="810">3.47027e-12</wgt>
  <wgt id="811">3.3495e-12</wgt>
  <wgt id="812">2.2697e-12</wgt>
  <wgt id="813">2.34917e-12</wgt>
  <wgt id="814">2.56347e-12</wgt>
  <wgt id="815">2.47712e-12</wgt>
  <wgt id="816">2.22052e-12</wgt>
  <wgt id="817">3.20634e-12</wgt>
  <wgt id="818">3.16373e-12</wgt>
  <wgt id="819">2.47803e-12</wgt>
  <wgt id="820">3.06202e-12</wgt>
  <wgt id="821">3.56924e-12</wgt>
  <wgt id="822">2.5089e-12</wgt>
  <wgt id="823">3.61195e-12</wgt>
  <wgt id="824">4.20912e-12</wgt>
  <wgt id="825">2.18773e-12</wgt>
  <wgt id="826">3.32354e-12</wgt>
  <wgt id="827">1.80349e-12</wgt>
  <wgt id="828">3.9421e-12</wgt>
  <wgt id="829">3.20194e-12</wgt>
  <wgt id="830">2.07018e-12</wgt>
  <wgt id="831">3.35313e-12</wgt>
  <wgt id="832">5.11449e-12</wgt>
  <wgt id="833">2.80903e-12</wgt>
  <wgt id="834">4.82144e-12</wgt>
  <wgt id="835">2.47045e-12</wgt>
  <wgt id="836">2.99059e-12</wgt>
  <wgt id="837">3.51885e-12</wgt>
  <wgt id="838">2.87846e-12</wgt>
  <wgt id="839">3.32857e-12</wgt>
  <wgt id="840">2.8356e-12</wgt>
  <wgt id="841">3.87643e-12</wgt>
  <wgt id="842">2.80345e-12</wgt>
  <wgt id="843">3.07716e-12</wgt>
  <wgt id="844">3.23963e-12</wgt>
  <wgt id="845">4.48424e-12</wgt>
  <wgt id="846">3.00854e-12</wgt>
  <wgt id="847">3.13737e-12</wgt>
  <wgt id="848">2.56385e-12</wgt>
  <wgt id="849">3.1767e-12</wgt>
  <wgt id="850">4.11016e-12</wgt>
  <wgt id="851">3.4093e-12</wgt>
  <wgt id="852">2.5071e-12</wgt>
  <wgt id="853">3.43505e-12</wgt>
  <wgt id="854">3.8186e-12</wgt>
  <wgt id="855">3.61051e-12</wgt>
  <wgt id="856">2.11493e-12</wgt>
  <wgt id="857">3.03489e-12</wgt>
  <wgt id="858">2.98793e-12</wgt>
  <wgt id="859">2.87681e-12</wgt>
  <wgt id="860">3.4068e-12</wgt>
  <wgt id="861">2.6768e-12</wgt>
  <wgt id="862">3.13478e-12</wgt>
  <wgt id="863">3.30222e-12</wgt>
  <wgt id="864">3.26812e-12</wgt>
  <wgt id="865">4.50164e-12</wgt>
  <wgt id="866">4.9383e-12</wgt>
  <wgt id="867">3.15006e-12</wgt>
  <wgt id="868">3.06486e-12</wgt>
  <wgt id="869">2.31318e-12</wgt>
  <wgt id="870">2.45176e-12</wgt>
  <wgt id="871">2.37631e-12</wgt>
  <wgt id="872">3.77269e-12</wgt>
  <wgt id="873">2.53798e-12</wgt>
  <wgt id="874">3.27048e-12</wgt>
  <wgt id="875">2.64388e-12</wgt>
  <wgt id="876">3.75756e-12</wgt>
  <wgt id="877">3.54472e-12</wgt>
  <wgt id="878">2.58555e-12</wgt>
  <wgt id="879">4.22549e-12</wgt>
  <wgt id="880">4.27396e-12</wgt>
  <wgt id="881">4.44805e-12</wgt>
  <wgt id="882">3.98834e-12</wgt>
  <wgt id="883">4.1439e-12</wgt>
  <wgt id="884">4.29484e-12</wgt>
  <wgt id="885">4.35316e-12</wgt>
  <wgt id="886">4.147e-12</wgt>
  <wgt id="887">4.41398e-12</wgt>
  <wgt id="888">4.03822e-12</wgt>
  <wgt id="889">4.13141e-12</wgt>
  <wgt id="890">4.42414e-12</wgt>
  <wgt id="891">4.1789e-12</wgt>
  <wgt id="892">4.53366e-12</wgt>
  <wgt id="893">4.42344e-12</wgt>
  <wgt id="894">4.44773e-12</wgt>
  <wgt id="895">4.17755e-12</wgt>
  <wgt id="896">5.01445e-12</wgt>
  <wgt id="897">4.49566e-12</wgt>
  <wgt id="898">4.0856e-12</wgt>
  <wgt id="899">4.0245e-12</wgt>
  <wgt id="900">4.06649e-12</wgt>
  <wgt id="901">3.83926e-12</wgt>
  <wgt id="902">3.81448e-12</wgt>
  <wgt id="903">3.6991e-12</wgt>
  <wgt id="904">4.23626e-12</wgt>
  <wgt id="905">4.1089e-12</wgt>
  <wgt id="906">4.87751e-12</wgt>
  <wgt id="907">4.63957e-12</wgt>
  <wgt id="908">4.46671e-12</wgt>
  <wgt id="909">3.95695e-12</wgt>
  <wgt id="910">4.04814e-12</wgt>
  <wgt id="911">4.16035e-12</wgt>
  <wgt id="912">4.14542e-12</wgt>
  <wgt id="913">3.8157e-12</wgt>
  <wgt id="914">4.21158e-12</wgt>
  <wgt id="915">4.12712e-12</wgt>
  <wgt id="916">4.55616e-12</wgt>
  <wgt id="917">4.11844e-12</wgt>
  <wgt id="918">4.16605e-12</wgt>
  <wgt id="919">4.07143e-12</wgt>
  <wgt id="920">3.98656e-12</wgt>
  <wgt id="921">4.23223e-12</wgt>
  <wgt id="922">3.83678e-12</wgt>
  <wgt id="923">4.01826e-12</wgt>
  <wgt id="924">3.85143e-12</wgt>
  <wgt id="925">3.71149e-12</wgt>
  <wgt id="926">4.52581e-12</wgt>
  <wgt id="927">4.43985e-12</wgt>
  <wgt id="928">4.45011e-12</wgt>
  <wgt id="929">4.2565e-12</wgt>
  <wgt id="930">4.14049e-12</wgt>
  <wgt id="931">4.12452e-12</wgt>
  <wgt id="932">3.94804e-12</wgt>
  <wgt id="933">4.56393e-12</wgt>
  <wgt id="934">4.16676e-12</wgt>
  <wgt id="935">4.67042e-12</wgt>
  <wgt id="936">4.17708e-12</wgt>
  <wgt id="937">4.32988e-12</wgt>
  <wgt id="938">4.22667e-12</wgt>
  <wgt id="939">4.11918e-12</wgt>
  <wgt id="940">4.27501e-12</wgt>
  <wgt id="941">4.02291e-12</wgt>
  <wgt id="942">4.33213e-12</wgt>
  <wgt id="943">4.71894e-12</wgt>
  <wgt id="944">3.8178e-12</wgt>
  <wgt id="945">4.16824e-12</wgt>
  <wgt id="946">4.01188e-12</wgt>
  <wgt id="947">4.13946e-12</wgt>
  <wgt id="948">4.43236e-12</wgt>
  <wgt id="949">4.51347e-12</wgt>
  <wgt id="950">3.79115e-12</wgt>
  <wgt id="951">4.16466e-12</wgt>
  <wgt id="952">4.43447e-12</wgt>
  <wgt id="953">4.3558e-12</wgt>
  <wgt id="954">4.33986e-12</wgt>
  <wgt id="955">3.86926e-12</wgt>
  <wgt id="956">3.98679e-12</wgt>
  <wgt id="957">4.40056e-12</wgt>
  <wgt id="958">4.22873e-12</wgt>
  <wgt id="959">4.23032e-12</wgt>
  <wgt id="960">3.86836e-12</wgt>
  <wgt id="961">4.24027e-12</wgt>
  <wgt id="962">4.38285e-12</wgt>
  <wgt id="963">4.25103e-12</wgt>
  <wgt id="964">4.47017e-12</wgt>
  <wgt id="965">4.49502e-12</wgt>
  <wgt id="966">4.21321e-12</wgt>
  <wgt id="967">4.40237e-12</wgt>
  <wgt id="968">4.27985e-12</wgt>
  <wgt id="969">4.22423e-12</wgt>
  <wgt id="970">4.32669e-12</wgt>
  <wgt id="971">3.9718e-12</wgt>
  <wgt id="972">4.48168e-12</wgt>
  <wgt id="973">4.11587e-12</wgt>
  <wgt id="974">5.00971e-12</wgt>
  <wgt id="975">4.00714e-12</wgt>
  <wgt id="976">4.19296e-12</wgt>
  <wgt id="977">3.69636e-12</wgt>
  <wgt id="978">4.43948e-12</wgt>
  <wgt id="979">4.62158e-12</wgt>
  <wgt id="980">4.22017e-12</wgt>
  <wgt id="981">4.25393e-12</wgt>
  <wgt id="982">4.10044e-12</wgt>
</rwgt>
</event>
<event>
 5   1  0.3028200E-11  0.2127904E+04  0.7818608E-02  0.7776583E-01
       21   -1    0    0  502  501  0.00000000000E+00  0.00000000000E+00  0.20248161302E+04  0.20248161302E+04  0.00000000000E+00 0.  1.
       21   -1    0    0  501  502 -0.00000000000E+00 -0.00000000000E+00 -0.55905985905E+03  0.55905985905E+03  0.00000000000E+00 0. -1.
       39    2    1    2    0    0  0.00000000000E+00  0.00000000000E+00  0.14657562712E+04  0.25838759893E+04  0.21279035884E+04 0.  0.
       25    1    3    3    0    0  0.82567809111E+03  0.52917072676E+03  0.25542812385E+03  0.10210947530E+04  0.12500000000E+03 0.  0.
       25    1    3    3    0    0 -0.82567809111E+03 -0.52917072676E+03  0.12103281473E+04  0.15627812363E+04  0.12500000000E+03 0.  0.
<mgrwt>
<rscale>  0 0.21279036E+04</rscale>
<asrwt>0</asrwt>
<pdfrwt beam="1">  1       21 0.31151017E+00 0.21279036E+04</pdfrwt>
<pdfrwt beam="2">  1       21 0.86009210E-01 0.21279036E+04</pdfrwt>
<totfact> 0.12726272E+01</totfact>
</mgrwt>
<rwgt>
  <wgt id="1">3.0282e-12</wgt>
  <wgt id="2">2.62611e-12</wgt>
  <wgt id="3">3.52936e-12</wgt>
  <wgt id="4">3.0282e-12</wgt>
  <wgt id="5">2.62611e-12</wgt>
  <wgt id="6">3.52936e-12</wgt>
  <wgt id="7">3.0282e-12</wgt>
  <wgt id="8">2.62611e-12</wgt>
  <wgt id="9">3.52936e-12</wgt>
  <wgt id="10">3.16464e-12</wgt>
  <wgt id="11">3.1634e-12</wgt>
  <wgt id="12">3.15784e-12</wgt>
  <wgt id="13">3.15815e-12</wgt>
  <wgt id="14">3.17555e-12</wgt>
  <wgt id="15">3.16971e-12</wgt>
  <wgt id="16">3.15819e-12</wgt>
  <wgt id="17">3.17994e-12</wgt>
  <wgt id="18">3.16071e-12</wgt>
  <wgt id="19">3.17626e-12</wgt>
  <wgt id="20">3.16301e-12</wgt>
  <wgt id="21">3.13915e-12</wgt>
  <wgt id="22">3.1418e-12</wgt>
  <wgt id="23">3.11706e-12</wgt>
  <wgt id="24">3.14116e-12</wgt>
  <wgt id="25">3.15255e-12</wgt>
  <wgt id="26">3.17373e-12</wgt>
  <wgt id="27">3.15869e-12</wgt>
  <wgt id="28">3.14426e-12</wgt>
  <wgt id="29">3.16579e-12</wgt>
  <wgt id="30">3.13949e-12</wgt>
  <wgt id="31">3.17888e-12</wgt>
  <wgt id="32">3.14285e-12</wgt>
  <wgt id="33">3.16908e-12</wgt>
  <wgt id="34">3.14384e-12</wgt>
  <wgt id="35">3.14586e-12</wgt>
  <wgt id="36">3.1808e-12</wgt>
  <wgt id="37">3.15416e-12</wgt>
  <wgt id="38">3.15073e-12</wgt>
  <wgt id="39">3.21892e-12</wgt>
  <wgt id="40">3.16659e-12</wgt>
  <wgt id="41">3.16315e-12</wgt>
  <wgt id="42">3.16883e-12</wgt>
  <wgt id="43">3.16566e-12</wgt>
  <wgt id="44">3.18255e-12</wgt>
  <wgt id="45">3.16893e-12</wgt>
  <wgt id="46">3.15401e-12</wgt>
  <wgt id="47">3.19298e-12</wgt>
  <wgt id="48">3.17902e-12</wgt>
  <wgt id="49">3.1436e-12</wgt>
  <wgt id="50">3.13911e-12</wgt>
  <wgt id="51">3.14674e-12</wgt>
  <wgt id="52">3.17585e-12</wgt>
  <wgt id="53">3.18545e-12</wgt>
  <wgt id="54">3.17893e-12</wgt>
  <wgt id="55">3.16337e-12</wgt>
  <wgt id="56">3.15583e-12</wgt>
  <wgt id="57">3.15012e-12</wgt>
  <wgt id="58">3.162e-12</wgt>
  <wgt id="59">3.16796e-12</wgt>
  <wgt id="60">3.14455e-12</wgt>
  <wgt id="61">3.14572e-12</wgt>
  <wgt id="62">3.15596e-12</wgt>
  <wgt id="63">3.16147e-12</wgt>
  <wgt id="64">3.16264e-12</wgt>
  <wgt id="65">3.15483e-12</wgt>
  <wgt id="66">3.16603e-12</wgt>
  <wgt id="67">3.15739e-12</wgt>
  <wgt id="68">3.164e-12</wgt>
  <wgt id="69">3.15965e-12</wgt>
  <wgt id="70">3.15756e-12</wgt>
  <wgt id="71">3.16236e-12</wgt>
  <wgt id="72">3.14753e-12</wgt>
  <wgt id="73">3.17688e-12</wgt>
  <wgt id="74">3.17478e-12</wgt>
  <wgt id="75">3.16515e-12</wgt>
  <wgt id="76">3.18389e-12</wgt>
  <wgt id="77">3.15955e-12</wgt>
  <wgt id="78">3.16171e-12</wgt>
  <wgt id="79">3.17269e-12</wgt>
  <wgt id="80">3.14003e-12</wgt>
  <wgt id="81">3.16411e-12</wgt>
  <wgt id="82">3.16733e-12</wgt>
  <wgt id="83">3.14652e-12</wgt>
  <wgt id="84">3.15541e-12</wgt>
  <wgt id="85">3.15358e-12</wgt>
  <wgt id="86">3.17542e-12</wgt>
  <wgt id="87">3.13789e-12</wgt>
  <wgt id="88">3.17258e-12</wgt>
  <wgt id="89">3.16937e-12</wgt>
  <wgt id="90">3.17503e-12</wgt>
  <wgt id="91">3.16833e-12</wgt>
  <wgt id="92">3.17257e-12</wgt>
  <wgt id="93">3.16867e-12</wgt>
  <wgt id="94">3.15712e-12</wgt>
  <wgt id="95">3.17502e-12</wgt>
  <wgt id="96">3.17189e-12</wgt>
  <wgt id="97">3.15348e-12</wgt>
  <wgt id="98">3.16449e-12</wgt>
  <wgt id="99">3.15942e-12</wgt>
  <wgt id="100">3.17248e-12</wgt>
  <wgt id="101">3.16176e-12</wgt>
  <wgt id="102">3.16018e-12</wgt>
  <wgt id="103">3.17522e-12</wgt>
  <wgt id="104">3.1586e-12</wgt>
  <wgt id="105">3.1704e-12</wgt>
  <wgt id="106">3.15712e-12</wgt>
  <wgt id="107">3.18202e-12</wgt>
  <wgt id="108">3.15863e-12</wgt>
  <wgt id="109">3.16857e-12</wgt>
  <wgt id="110">3.16294e-12</wgt>
  <wgt id="111">3.1686e-12</wgt>
  <wgt id="112">3.20086e-12</wgt>
  <wgt id="113">4.44545e-12</wgt>
  <wgt id="114">4.20363e-12</wgt>
  <wgt id="115">4.12372e-12</wgt>
  <wgt id="116">5.55488e-12</wgt>
  <wgt id="117">3.44636e-12</wgt>
  <wgt id="118">3.45813e-12</wgt>
  <wgt id="119">3.43966e-12</wgt>
  <wgt id="120">3.44656e-12</wgt>
  <wgt id="121">3.44625e-12</wgt>
  <wgt id="122">3.44074e-12</wgt>
  <wgt id="123">3.45414e-12</wgt>
  <wgt id="124">3.44165e-12</wgt>
  <wgt id="125">3.44942e-12</wgt>
  <wgt id="126">3.45086e-12</wgt>
  <wgt id="127">3.44339e-12</wgt>
  <wgt id="128">3.45689e-12</wgt>
  <wgt id="129">3.43591e-12</wgt>
  <wgt id="130">3.46313e-12</wgt>
  <wgt id="131">3.42901e-12</wgt>
  <wgt id="132">3.35403e-12</wgt>
  <wgt id="133">3.55593e-12</wgt>
  <wgt id="134">3.41061e-12</wgt>
  <wgt id="135">3.47438e-12</wgt>
  <wgt id="136">3.49629e-12</wgt>
  <wgt id="137">3.38629e-12</wgt>
  <wgt id="138">3.59499e-12</wgt>
  <wgt id="139">3.3047e-12</wgt>
  <wgt id="140">3.42883e-12</wgt>
  <wgt id="141">3.45962e-12</wgt>
  <wgt id="142">3.44562e-12</wgt>
  <wgt id="143">3.4561e-12</wgt>
  <wgt id="144">3.3166e-12</wgt>
  <wgt id="145">3.57108e-12</wgt>
  <wgt id="146">3.48745e-12</wgt>
  <wgt id="147">3.41285e-12</wgt>
  <wgt id="148">3.45834e-12</wgt>
  <wgt id="149">3.44548e-12</wgt>
  <wgt id="150">3.4748e-12</wgt>
  <wgt id="151">3.43304e-12</wgt>
  <wgt id="152">3.44724e-12</wgt>
  <wgt id="153">3.44604e-12</wgt>
  <wgt id="154">3.45767e-12</wgt>
  <wgt id="155">3.42707e-12</wgt>
  <wgt id="156">3.54983e-12</wgt>
  <wgt id="157">3.34919e-12</wgt>
  <wgt id="158">4.13525e-12</wgt>
  <wgt id="159">4.15297e-12</wgt>
  <wgt id="160">4.12117e-12</wgt>
  <wgt id="161">4.12556e-12</wgt>
  <wgt id="162">4.14625e-12</wgt>
  <wgt id="163">4.13103e-12</wgt>
  <wgt id="164">4.14171e-12</wgt>
  <wgt id="165">4.13693e-12</wgt>
  <wgt id="166">4.13424e-12</wgt>
  <wgt id="167">4.13243e-12</wgt>
  <wgt id="168">4.13943e-12</wgt>
  <wgt id="169">4.11793e-12</wgt>
  <wgt id="170">4.14609e-12</wgt>
  <wgt id="171">4.1326e-12</wgt>
  <wgt id="172">4.13918e-12</wgt>
  <wgt id="173">4.12889e-12</wgt>
  <wgt id="174">4.13767e-12</wgt>
  <wgt id="175">4.02021e-12</wgt>
  <wgt id="176">4.2858e-12</wgt>
  <wgt id="177">4.15378e-12</wgt>
  <wgt id="178">4.11855e-12</wgt>
  <wgt id="179">4.33352e-12</wgt>
  <wgt id="180">3.82804e-12</wgt>
  <wgt id="181">4.00434e-12</wgt>
  <wgt id="182">4.22257e-12</wgt>
  <wgt id="183">4.05578e-12</wgt>
  <wgt id="184">4.17486e-12</wgt>
  <wgt id="185">4.09187e-12</wgt>
  <wgt id="186">4.18737e-12</wgt>
  <wgt id="187">4.09044e-12</wgt>
  <wgt id="188">4.21472e-12</wgt>
  <wgt id="189">4.10482e-12</wgt>
  <wgt id="190">4.14786e-12</wgt>
  <wgt id="191">4.1495e-12</wgt>
  <wgt id="192">4.12697e-12</wgt>
  <wgt id="193">4.20063e-12</wgt>
  <wgt id="194">4.10238e-12</wgt>
  <wgt id="195">4.00253e-12</wgt>
  <wgt id="196">4.3555e-12</wgt>
  <wgt id="197">4.15644e-12</wgt>
  <wgt id="198">4.13016e-12</wgt>
  <wgt id="199">4.13525e-12</wgt>
  <wgt id="200">4.17395e-12</wgt>
  <wgt id="201">4.16074e-12</wgt>
  <wgt id="202">4.14788e-12</wgt>
  <wgt id="203">4.12962e-12</wgt>
  <wgt id="204">4.12041e-12</wgt>
  <wgt id="205">4.11256e-12</wgt>
  <wgt id="206">4.05204e-12</wgt>
  <wgt id="207">4.07578e-12</wgt>
  <wgt id="208">4.02824e-12</wgt>
  <wgt id="209">4.06273e-12</wgt>
  <wgt id="210">4.04413e-12</wgt>
  <wgt id="211">4.05093e-12</wgt>
  <wgt id="212">4.05288e-12</wgt>
  <wgt id="213">4.05159e-12</wgt>
  <wgt id="214">4.05251e-12</wgt>
  <wgt id="215">4.05472e-12</wgt>
  <wgt id="216">4.05017e-12</wgt>
  <wgt id="217">4.06087e-12</wgt>
  <wgt id="218">4.04496e-12</wgt>
  <wgt id="219">4.04581e-12</wgt>
  <wgt id="220">4.05578e-12</wgt>
  <wgt id="221">4.05322e-12</wgt>
  <wgt id="222">4.04798e-12</wgt>
  <wgt id="223">3.83097e-12</wgt>
  <wgt id="224">4.2541e-12</wgt>
  <wgt id="225">4.00384e-12</wgt>
  <wgt id="226">4.11307e-12</wgt>
  <wgt id="227">4.01448e-12</wgt>
  <wgt id="228">4.06849e-12</wgt>
  <wgt id="229">3.99602e-12</wgt>
  <wgt id="230">4.07967e-12</wgt>
  <wgt id="231">4.183e-12</wgt>
  <wgt id="232">3.94454e-12</wgt>
  <wgt id="233">4.02764e-12</wgt>
  <wgt id="234">4.09242e-12</wgt>
  <wgt id="235">3.90297e-12</wgt>
  <wgt id="236">4.17505e-12</wgt>
  <wgt id="237">3.96406e-12</wgt>
  <wgt id="238">4.08117e-12</wgt>
  <wgt id="239">4.01621e-12</wgt>
  <wgt id="240">4.11634e-12</wgt>
  <wgt id="241">4.00522e-12</wgt>
  <wgt id="242">4.1071e-12</wgt>
  <wgt id="243">4.11395e-12</wgt>
  <wgt id="244">4.05535e-12</wgt>
  <wgt id="245">4.05024e-12</wgt>
  <wgt id="246">4.07455e-12</wgt>
  <wgt id="247">4.05204e-12</wgt>
  <wgt id="248">4.09348e-12</wgt>
  <wgt id="249">4.07917e-12</wgt>
  <wgt id="250">4.06429e-12</wgt>
  <wgt id="251">4.04396e-12</wgt>
  <wgt id="252">4.03376e-12</wgt>
  <wgt id="253">4.02668e-12</wgt>
  <wgt id="254">3.91263e-12</wgt>
  <wgt id="255">3.91595e-12</wgt>
  <wgt id="256">3.90889e-12</wgt>
  <wgt id="257">3.91585e-12</wgt>
  <wgt id="258">3.91028e-12</wgt>
  <wgt id="259">3.93874e-12</wgt>
  <wgt id="260">3.88748e-12</wgt>
  <wgt id="261">3.91776e-12</wgt>
  <wgt id="262">3.90679e-12</wgt>
  <wgt id="263">3.91006e-12</wgt>
  <wgt id="264">3.91545e-12</wgt>
  <wgt id="265">3.90831e-12</wgt>
  <wgt id="266">3.92126e-12</wgt>
  <wgt id="267">3.914e-12</wgt>
  <wgt id="268">3.91087e-12</wgt>
  <wgt id="269">3.92395e-12</wgt>
  <wgt id="270">3.90499e-12</wgt>
  <wgt id="271">3.90242e-12</wgt>
  <wgt id="272">3.92412e-12</wgt>
  <wgt id="273">3.90268e-12</wgt>
  <wgt id="274">3.92013e-12</wgt>
  <wgt id="275">3.8906e-12</wgt>
  <wgt id="276">3.93561e-12</wgt>
  <wgt id="277">3.89028e-12</wgt>
  <wgt id="278">3.93325e-12</wgt>
  <wgt id="279">3.84361e-12</wgt>
  <wgt id="280">3.99945e-12</wgt>
  <wgt id="281">3.89554e-12</wgt>
  <wgt id="282">3.91695e-12</wgt>
  <wgt id="283">3.79134e-12</wgt>
  <wgt id="284">4.06357e-12</wgt>
  <wgt id="285">3.71095e-12</wgt>
  <wgt id="286">4.08256e-12</wgt>
  <wgt id="287">3.92611e-12</wgt>
  <wgt id="288">3.89537e-12</wgt>
  <wgt id="289">3.94294e-12</wgt>
  <wgt id="290">3.8455e-12</wgt>
  <wgt id="291">3.89853e-12</wgt>
  <wgt id="292">3.91336e-12</wgt>
  <wgt id="293">3.87981e-12</wgt>
  <wgt id="294">3.94538e-12</wgt>
  <wgt id="295">3.83245e-12</wgt>
  <wgt id="296">4.01072e-12</wgt>
  <wgt id="297">3.90545e-12</wgt>
  <wgt id="298">3.9304e-12</wgt>
  <wgt id="299">3.89982e-12</wgt>
  <wgt id="300">3.9464e-12</wgt>
  <wgt id="301">3.84233e-12</wgt>
  <wgt id="302">4.07765e-12</wgt>
  <wgt id="303">3.87369e-12</wgt>
  <wgt id="304">3.9346e-12</wgt>
  <wgt id="305">3.88585e-12</wgt>
  <wgt id="306">3.88948e-12</wgt>
  <wgt id="307">3.88214e-12</wgt>
  <wgt id="308">3.88934e-12</wgt>
  <wgt id="309">3.88378e-12</wgt>
  <wgt id="310">3.91263e-12</wgt>
  <wgt id="311">3.86153e-12</wgt>
  <wgt id="312">3.89019e-12</wgt>
  <wgt id="313">3.88138e-12</wgt>
  <wgt id="314">3.88339e-12</wgt>
  <wgt id="315">3.88848e-12</wgt>
  <wgt id="316">3.88165e-12</wgt>
  <wgt id="317">3.89525e-12</wgt>
  <wgt id="318">3.88879e-12</wgt>
  <wgt id="319">3.88108e-12</wgt>
  <wgt id="320">3.89805e-12</wgt>
  <wgt id="321">3.8793e-12</wgt>
  <wgt id="322">3.87464e-12</wgt>
  <wgt id="323">3.89933e-12</wgt>
  <wgt id="324">3.87867e-12</wgt>
  <wgt id="325">3.89218e-12</wgt>
  <wgt id="326">3.8677e-12</wgt>
  <wgt id="327">3.90938e-12</wgt>
  <wgt id="328">3.86545e-12</wgt>
  <wgt id="329">3.89742e-12</wgt>
  <wgt id="330">3.99252e-12</wgt>
  <wgt id="331">3.78462e-12</wgt>
  <wgt id="332">3.87182e-12</wgt>
  <wgt id="333">3.88874e-12</wgt>
  <wgt id="334">3.7932e-12</wgt>
  <wgt id="335">4.00211e-12</wgt>
  <wgt id="336">3.7425e-12</wgt>
  <wgt id="337">4.06301e-12</wgt>
  <wgt id="338">3.93251e-12</wgt>
  <wgt id="339">3.84311e-12</wgt>
  <wgt id="340">3.91342e-12</wgt>
  <wgt id="341">3.81813e-12</wgt>
  <wgt id="342">3.87605e-12</wgt>
  <wgt id="343">3.87924e-12</wgt>
  <wgt id="344">3.85705e-12</wgt>
  <wgt id="345">3.91974e-12</wgt>
  <wgt id="346">3.80417e-12</wgt>
  <wgt id="347">3.97985e-12</wgt>
  <wgt id="348">3.88002e-12</wgt>
  <wgt id="349">3.90159e-12</wgt>
  <wgt id="350">3.87009e-12</wgt>
  <wgt id="351">3.92605e-12</wgt>
  <wgt id="352">3.81455e-12</wgt>
  <wgt id="353">4.04782e-12</wgt>
  <wgt id="354">3.83049e-12</wgt>
  <wgt id="355">3.91892e-12</wgt>
  <wgt id="356">3.91263e-12</wgt>
  <wgt id="357">3.89115e-12</wgt>
  <wgt id="358">3.88585e-12</wgt>
  <wgt id="359">3.9146e-12</wgt>
  <wgt id="360">3.97225e-12</wgt>
  <wgt id="361">3.93143e-12</wgt>
  <wgt id="362">4.00545e-12</wgt>
  <wgt id="363">3.99581e-12</wgt>
  <wgt id="364">3.97768e-12</wgt>
  <wgt id="365">3.96331e-12</wgt>
  <wgt id="366">3.94867e-12</wgt>
  <wgt id="367">3.92005e-12</wgt>
  <wgt id="368">3.9021e-12</wgt>
  <wgt id="369">3.88279e-12</wgt>
  <wgt id="370">3.93143e-12</wgt>
  <wgt id="371">3.94734e-12</wgt>
  <wgt id="372">3.93822e-12</wgt>
  <wgt id="373">3.92548e-12</wgt>
  <wgt id="374">3.9296e-12</wgt>
  <wgt id="375">4.43618e-12</wgt>
  <wgt id="376">4.43628e-12</wgt>
  <wgt id="377">4.43594e-12</wgt>
  <wgt id="378">4.45283e-12</wgt>
  <wgt id="379">4.41962e-12</wgt>
  <wgt id="380">4.44897e-12</wgt>
  <wgt id="381">4.43101e-12</wgt>
  <wgt id="382">4.45565e-12</wgt>
  <wgt id="383">4.41689e-12</wgt>
  <wgt id="384">4.43897e-12</wgt>
  <wgt id="385">4.43351e-12</wgt>
  <wgt id="386">4.44959e-12</wgt>
  <wgt id="387">4.43037e-12</wgt>
  <wgt id="388">4.43251e-12</wgt>
  <wgt id="389">4.44053e-12</wgt>
  <wgt id="390">4.44592e-12</wgt>
  <wgt id="391">4.42593e-12</wgt>
  <wgt id="392">4.39947e-12</wgt>
  <wgt id="393">4.45685e-12</wgt>
  <wgt id="394">4.43943e-12</wgt>
  <wgt id="395">4.43157e-12</wgt>
  <wgt id="396">4.44289e-12</wgt>
  <wgt id="397">4.43141e-12</wgt>
  <wgt id="398">4.42951e-12</wgt>
  <wgt id="399">4.4425e-12</wgt>
  <wgt id="400">4.43016e-12</wgt>
  <wgt id="401">4.44893e-12</wgt>
  <wgt id="402">4.39776e-12</wgt>
  <wgt id="403">4.45938e-12</wgt>
  <wgt id="404">4.55686e-12</wgt>
  <wgt id="405">4.1482e-12</wgt>
  <wgt id="406">4.3484e-12</wgt>
  <wgt id="407">4.63035e-12</wgt>
  <wgt id="408">4.48146e-12</wgt>
  <wgt id="409">4.35177e-12</wgt>
  <wgt id="410">4.29411e-12</wgt>
  <wgt id="411">4.50413e-12</wgt>
  <wgt id="412">4.42617e-12</wgt>
  <wgt id="413">4.45031e-12</wgt>
  <wgt id="414">4.37934e-12</wgt>
  <wgt id="415">4.48016e-12</wgt>
  <wgt id="416">4.57793e-12</wgt>
  <wgt id="417">4.24072e-12</wgt>
  <wgt id="418">4.44489e-12</wgt>
  <wgt id="419">4.38951e-12</wgt>
  <wgt id="420">4.5317e-12</wgt>
  <wgt id="421">4.37281e-12</wgt>
  <wgt id="422">4.41371e-12</wgt>
  <wgt id="423">4.44665e-12</wgt>
  <wgt id="424">4.5565e-12</wgt>
  <wgt id="425">4.35434e-12</wgt>
  <wgt id="426">4.43618e-12</wgt>
  <wgt id="427">4.35719e-12</wgt>
  <wgt id="428">4.61904e-12</wgt>
  <wgt id="429">4.4916e-12</wgt>
  <wgt id="430">4.63168e-12</wgt>
  <wgt id="431">4.60353e-12</wgt>
  <wgt id="432">4.57764e-12</wgt>
  <wgt id="433">4.55214e-12</wgt>
  <wgt id="434">4.5198e-12</wgt>
  <wgt id="435">4.45611e-12</wgt>
  <wgt id="436">4.42395e-12</wgt>
  <wgt id="437">4.39255e-12</wgt>
  <wgt id="438">4.4916e-12</wgt>
  <wgt id="439">4.50521e-12</wgt>
  <wgt id="440">4.49662e-12</wgt>
  <wgt id="441">4.48787e-12</wgt>
  <wgt id="442">4.48507e-12</wgt>
  <wgt id="443">4.1024e-12</wgt>
  <wgt id="444">4.14352e-12</wgt>
  <wgt id="445">4.14288e-12</wgt>
  <wgt id="446">4.07118e-12</wgt>
  <wgt id="447">4.10492e-12</wgt>
  <wgt id="448">4.00496e-12</wgt>
  <wgt id="449">4.18345e-12</wgt>
  <wgt id="450">4.15323e-12</wgt>
  <wgt id="451">4.09104e-12</wgt>
  <wgt id="452">4.1898e-12</wgt>
  <wgt id="453">4.15028e-12</wgt>
  <wgt id="454">3.8992e-12</wgt>
  <wgt id="455">4.13444e-12</wgt>
  <wgt id="456">4.17186e-12</wgt>
  <wgt id="457">4.11461e-12</wgt>
  <wgt id="458">4.17595e-12</wgt>
  <wgt id="459">4.13993e-12</wgt>
  <wgt id="460">4.18179e-12</wgt>
  <wgt id="461">4.00732e-12</wgt>
  <wgt id="462">4.0762e-12</wgt>
  <wgt id="463">4.03823e-12</wgt>
  <wgt id="464">4.08333e-12</wgt>
  <wgt id="465">4.1454e-12</wgt>
  <wgt id="466">4.01133e-12</wgt>
  <wgt id="467">4.07048e-12</wgt>
  <wgt id="468">4.0984e-12</wgt>
  <wgt id="469">4.0941e-12</wgt>
  <wgt id="470">4.04127e-12</wgt>
  <wgt id="471">4.05383e-12</wgt>
  <wgt id="472">4.1287e-12</wgt>
  <wgt id="473">3.97561e-12</wgt>
  <wgt id="474">3.0282e-12</wgt>
  <wgt id="475">3.02585e-12</wgt>
  <wgt id="476">2.99881e-12</wgt>
  <wgt id="477">3.03555e-12</wgt>
  <wgt id="478">3.06494e-12</wgt>
  <wgt id="479">2.89032e-12</wgt>
  <wgt id="480">3.19251e-12</wgt>
  <wgt id="481">3.05452e-12</wgt>
  <wgt id="482">3.03496e-12</wgt>
  <wgt id="483">3.02127e-12</wgt>
  <wgt id="484">3.14134e-12</wgt>
  <wgt id="485">2.79747e-12</wgt>
  <wgt id="486">3.19468e-12</wgt>
  <wgt id="487">2.96194e-12</wgt>
  <wgt id="488">3.06789e-12</wgt>
  <wgt id="489">2.75408e-12</wgt>
  <wgt id="490">2.96705e-12</wgt>
  <wgt id="491">2.99895e-12</wgt>
  <wgt id="492">2.98792e-12</wgt>
  <wgt id="493">2.81333e-12</wgt>
  <wgt id="494">2.83318e-12</wgt>
  <wgt id="495">3.03549e-12</wgt>
  <wgt id="496">2.88331e-12</wgt>
  <wgt id="497">2.83828e-12</wgt>
  <wgt id="498">3.11842e-12</wgt>
  <wgt id="499">3.04696e-12</wgt>
  <wgt id="500">2.9777e-12</wgt>
  <wgt id="501">3.12666e-12</wgt>
  <wgt id="502">3.13436e-12</wgt>
  <wgt id="503">2.98959e-12</wgt>
  <wgt id="504">3.13244e-12</wgt>
  <wgt id="505">3.12014e-12</wgt>
  <wgt id="506">2.86823e-12</wgt>
  <wgt id="507">2.99566e-12</wgt>
  <wgt id="508">3.18737e-12</wgt>
  <wgt id="509">2.88391e-12</wgt>
  <wgt id="510">3.06191e-12</wgt>
  <wgt id="511">2.87775e-12</wgt>
  <wgt id="512">3.21575e-12</wgt>
  <wgt id="513">3.15322e-12</wgt>
  <wgt id="514">3.17817e-12</wgt>
  <wgt id="515">3.09375e-12</wgt>
  <wgt id="516">3.32708e-12</wgt>
  <wgt id="517">3.09632e-12</wgt>
  <wgt id="518">3.13089e-12</wgt>
  <wgt id="519">2.90975e-12</wgt>
  <wgt id="520">3.08796e-12</wgt>
  <wgt id="521">2.975e-12</wgt>
  <wgt id="522">3.14845e-12</wgt>
  <wgt id="523">2.88522e-12</wgt>
  <wgt id="524">3.06049e-12</wgt>
  <wgt id="525">2.99442e-12</wgt>
  <wgt id="526">3.1644e-12</wgt>
  <wgt id="527">2.98658e-12</wgt>
  <wgt id="528">3.02916e-12</wgt>
  <wgt id="529">2.91153e-12</wgt>
  <wgt id="530">3.17427e-12</wgt>
  <wgt id="531">2.91524e-12</wgt>
  <wgt id="532">3.264e-12</wgt>
  <wgt id="533">3.00572e-12</wgt>
  <wgt id="534">2.93072e-12</wgt>
  <wgt id="535">3.05421e-12</wgt>
  <wgt id="536">3.11063e-12</wgt>
  <wgt id="537">2.8959e-12</wgt>
  <wgt id="538">3.00727e-12</wgt>
  <wgt id="539">2.96562e-12</wgt>
  <wgt id="540">3.18904e-12</wgt>
  <wgt id="541">3.00786e-12</wgt>
  <wgt id="542">2.98005e-12</wgt>
  <wgt id="543">2.94511e-12</wgt>
  <wgt id="544">3.06147e-12</wgt>
  <wgt id="545">2.87821e-12</wgt>
  <wgt id="546">2.79232e-12</wgt>
  <wgt id="547">2.93683e-12</wgt>
  <wgt id="548">2.91983e-12</wgt>
  <wgt id="549">2.97618e-12</wgt>
  <wgt id="550">2.9503e-12</wgt>
  <wgt id="551">3.04386e-12</wgt>
  <wgt id="552">2.79466e-12</wgt>
  <wgt id="553">2.86407e-12</wgt>
  <wgt id="554">3.1817e-12</wgt>
  <wgt id="555">3.09673e-12</wgt>
  <wgt id="556">2.96705e-12</wgt>
  <wgt id="557">3.10123e-12</wgt>
  <wgt id="558">2.99715e-12</wgt>
  <wgt id="559">3.02611e-12</wgt>
  <wgt id="560">3.3401e-12</wgt>
  <wgt id="561">3.0918e-12</wgt>
  <wgt id="562">3.15086e-12</wgt>
  <wgt id="563">3.32391e-12</wgt>
  <wgt id="564">3.2059e-12</wgt>
  <wgt id="565">3.10618e-12</wgt>
  <wgt id="566">2.96315e-12</wgt>
  <wgt id="567">3.0259e-12</wgt>
  <wgt id="568">2.93398e-12</wgt>
  <wgt id="569">3.07669e-12</wgt>
  <wgt id="570">2.98323e-12</wgt>
  <wgt id="571">3.33065e-12</wgt>
  <wgt id="572">2.94454e-12</wgt>
  <wgt id="573">2.94645e-12</wgt>
  <wgt id="574">2.95893e-12</wgt>
  <wgt id="575">3.33158e-12</wgt>
  <wgt id="576">3.6082e-12</wgt>
  <wgt id="577">3.47857e-12</wgt>
  <wgt id="578">3.40309e-12</wgt>
  <wgt id="579">3.47009e-12</wgt>
  <wgt id="580">3.55026e-12</wgt>
  <wgt id="581">3.67267e-12</wgt>
  <wgt id="582">3.56037e-12</wgt>
  <wgt id="583">3.39642e-12</wgt>
  <wgt id="584">3.29406e-12</wgt>
  <wgt id="585">3.10485e-12</wgt>
  <wgt id="586">3.14577e-12</wgt>
  <wgt id="587">3.40278e-12</wgt>
  <wgt id="588">3.60186e-12</wgt>
  <wgt id="589">3.6165e-12</wgt>
  <wgt id="590">3.3017e-12</wgt>
  <wgt id="591">3.4255e-12</wgt>
  <wgt id="592">3.07611e-12</wgt>
  <wgt id="593">3.23367e-12</wgt>
  <wgt id="594">3.27261e-12</wgt>
  <wgt id="595">3.48327e-12</wgt>
  <wgt id="596">3.89073e-12</wgt>
  <wgt id="597">3.3802e-12</wgt>
  <wgt id="598">3.34657e-12</wgt>
  <wgt id="599">3.55179e-12</wgt>
  <wgt id="600">3.52936e-12</wgt>
  <wgt id="601">3.20118e-12</wgt>
  <wgt id="602">3.22705e-12</wgt>
  <wgt id="603">3.12549e-12</wgt>
  <wgt id="604">3.41226e-12</wgt>
  <wgt id="605">3.36925e-12</wgt>
  <wgt id="606">3.40721e-12</wgt>
  <wgt id="607">3.4673e-12</wgt>
  <wgt id="608">3.46311e-12</wgt>
  <wgt id="609">3.30132e-12</wgt>
  <wgt id="610">3.18513e-12</wgt>
  <wgt id="611">3.1706e-12</wgt>
  <wgt id="612">3.41612e-12</wgt>
  <wgt id="613">3.19388e-12</wgt>
  <wgt id="614">3.30733e-12</wgt>
  <wgt id="615">3.38293e-12</wgt>
  <wgt id="616">3.216e-12</wgt>
  <wgt id="617">3.46424e-12</wgt>
  <wgt id="618">3.67862e-12</wgt>
  <wgt id="619">3.26399e-12</wgt>
  <wgt id="620">3.45204e-12</wgt>
  <wgt id="621">3.29183e-12</wgt>
  <wgt id="622">3.40278e-12</wgt>
  <wgt id="623">3.35711e-12</wgt>
  <wgt id="624">3.36058e-12</wgt>
  <wgt id="625">3.18643e-12</wgt>
  <wgt id="626">2.98903e-12</wgt>
  <wgt id="627">3.03145e-12</wgt>
  <wgt id="628">3.32006e-12</wgt>
  <wgt id="629">3.38126e-12</wgt>
  <wgt id="630">3.19235e-12</wgt>
  <wgt id="631">3.41242e-12</wgt>
  <wgt id="632">3.04913e-12</wgt>
  <wgt id="633">3.31857e-12</wgt>
  <wgt id="634">3.17897e-12</wgt>
  <wgt id="635">3.06532e-12</wgt>
  <wgt id="636">3.37797e-12</wgt>
  <wgt id="637">3.28478e-12</wgt>
  <wgt id="638">3.18433e-12</wgt>
  <wgt id="639">3.19807e-12</wgt>
  <wgt id="640">3.26027e-12</wgt>
  <wgt id="641">3.49191e-12</wgt>
  <wgt id="642">3.02224e-12</wgt>
  <wgt id="643">3.24613e-12</wgt>
  <wgt id="644">2.97902e-12</wgt>
  <wgt id="645">3.32576e-12</wgt>
  <wgt id="646">3.05957e-12</wgt>
  <wgt id="647">3.37077e-12</wgt>
  <wgt id="648">3.48274e-12</wgt>
  <wgt id="649">3.33915e-12</wgt>
  <wgt id="650">3.18252e-12</wgt>
  <wgt id="651">3.56697e-12</wgt>
  <wgt id="652">3.18679e-12</wgt>
  <wgt id="653">3.18908e-12</wgt>
  <wgt id="654">3.34224e-12</wgt>
  <wgt id="655">3.22562e-12</wgt>
  <wgt id="656">3.35303e-12</wgt>
  <wgt id="657">3.66895e-12</wgt>
  <wgt id="658">3.30243e-12</wgt>
  <wgt id="659">3.19349e-12</wgt>
  <wgt id="660">3.24274e-12</wgt>
  <wgt id="661">3.25247e-12</wgt>
  <wgt id="662">3.28813e-12</wgt>
  <wgt id="663">3.39716e-12</wgt>
  <wgt id="664">3.37531e-12</wgt>
  <wgt id="665">3.30194e-12</wgt>
  <wgt id="666">3.25205e-12</wgt>
  <wgt id="667">3.5071e-12</wgt>
  <wgt id="668">3.29096e-12</wgt>
  <wgt id="669">3.33034e-12</wgt>
  <wgt id="670">3.49563e-12</wgt>
  <wgt id="671">3.37684e-12</wgt>
  <wgt id="672">3.24129e-12</wgt>
  <wgt id="673">3.53287e-12</wgt>
  <wgt id="674">3.22987e-12</wgt>
  <wgt id="675">3.23601e-12</wgt>
  <wgt id="676">4.27484e-12</wgt>
  <wgt id="677">4.32987e-12</wgt>
  <wgt id="678">4.65879e-12</wgt>
  <wgt id="679">4.34763e-12</wgt>
  <wgt id="680">4.31525e-12</wgt>
  <wgt id="681">4.1868e-12</wgt>
  <wgt id="682">4.5065e-12</wgt>
  <wgt id="683">3.95937e-12</wgt>
  <wgt id="684">4.48521e-12</wgt>
  <wgt id="685">4.27358e-12</wgt>
  <wgt id="686">4.29745e-12</wgt>
  <wgt id="687">4.37952e-12</wgt>
  <wgt id="688">4.15972e-12</wgt>
  <wgt id="689">4.45887e-12</wgt>
  <wgt id="690">4.36075e-12</wgt>
  <wgt id="691">4.40122e-12</wgt>
  <wgt id="692">4.17704e-12</wgt>
  <wgt id="693">5.56916e-12</wgt>
  <wgt id="694">4.6869e-12</wgt>
  <wgt id="695">4.03681e-12</wgt>
  <wgt id="696">4.13108e-12</wgt>
  <wgt id="697">3.90994e-12</wgt>
  <wgt id="698">3.55219e-12</wgt>
  <wgt id="699">3.65056e-12</wgt>
  <wgt id="700">3.78933e-12</wgt>
  <wgt id="701">4.26473e-12</wgt>
  <wgt id="702">4.15343e-12</wgt>
  <wgt id="703">5.23004e-12</wgt>
  <wgt id="704">4.79241e-12</wgt>
  <wgt id="705">4.79678e-12</wgt>
  <wgt id="706">4.03371e-12</wgt>
  <wgt id="707">4.01451e-12</wgt>
  <wgt id="708">4.08534e-12</wgt>
  <wgt id="709">4.13238e-12</wgt>
  <wgt id="710">3.66212e-12</wgt>
  <wgt id="711">4.5017e-12</wgt>
  <wgt id="712">4.01129e-12</wgt>
  <wgt id="713">4.6129e-12</wgt>
  <wgt id="714">3.86152e-12</wgt>
  <wgt id="715">4.10359e-12</wgt>
  <wgt id="716">4.1106e-12</wgt>
  <wgt id="717">3.76011e-12</wgt>
  <wgt id="718">4.38859e-12</wgt>
  <wgt id="719">3.90038e-12</wgt>
  <wgt id="720">4.35387e-12</wgt>
  <wgt id="721">3.64861e-12</wgt>
  <wgt id="722">3.42494e-12</wgt>
  <wgt id="723">4.77456e-12</wgt>
  <wgt id="724">4.62307e-12</wgt>
  <wgt id="725">4.44896e-12</wgt>
  <wgt id="726">4.24226e-12</wgt>
  <wgt id="727">4.28188e-12</wgt>
  <wgt id="728">4.159e-12</wgt>
  <wgt id="729">3.98243e-12</wgt>
  <wgt id="730">4.71781e-12</wgt>
  <wgt id="731">4.18925e-12</wgt>
  <wgt id="732">4.93826e-12</wgt>
  <wgt id="733">3.99511e-12</wgt>
  <wgt id="734">4.4013e-12</wgt>
  <wgt id="735">4.31044e-12</wgt>
  <wgt id="736">3.97562e-12</wgt>
  <wgt id="737">4.02439e-12</wgt>
  <wgt id="738">4.07514e-12</wgt>
  <wgt id="739">4.5586e-12</wgt>
  <wgt id="740">4.99946e-12</wgt>
  <wgt id="741">4.40548e-12</wgt>
  <wgt id="742">4.12345e-12</wgt>
  <wgt id="743">3.93032e-12</wgt>
  <wgt id="744">4.18936e-12</wgt>
  <wgt id="745">4.62914e-12</wgt>
  <wgt id="746">4.75928e-12</wgt>
  <wgt id="747">3.56741e-12</wgt>
  <wgt id="748">4.15089e-12</wgt>
  <wgt id="749">4.41541e-12</wgt>
  <wgt id="750">4.6347e-12</wgt>
  <wgt id="751">4.29266e-12</wgt>
  <wgt id="752">3.85591e-12</wgt>
  <wgt id="753">3.85192e-12</wgt>
  <wgt id="754">4.4865e-12</wgt>
  <wgt id="755">4.18058e-12</wgt>
  <wgt id="756">4.15398e-12</wgt>
  <wgt id="757">3.71713e-12</wgt>
  <wgt id="758">4.14532e-12</wgt>
  <wgt id="759">4.73541e-12</wgt>
  <wgt id="760">4.09948e-12</wgt>
  <wgt id="761">4.70043e-12</wgt>
  <wgt id="762">4.7213e-12</wgt>
  <wgt id="763">4.34816e-12</wgt>
  <wgt id="764">4.54725e-12</wgt>
  <wgt id="765">4.36556e-12</wgt>
  <wgt id="766">4.32102e-12</wgt>
  <wgt id="767">4.35648e-12</wgt>
  <wgt id="768">3.89587e-12</wgt>
  <wgt id="769">4.50107e-12</wgt>
  <wgt id="770">4.04952e-12</wgt>
  <wgt id="771">5.18692e-12</wgt>
  <wgt id="772">4.16949e-12</wgt>
  <wgt id="773">4.28043e-12</wgt>
  <wgt id="774">3.4133e-12</wgt>
  <wgt id="775">4.48164e-12</wgt>
  <wgt id="776">4.86975e-12</wgt>
  <wgt id="777">3.81131e-12</wgt>
  <wgt id="778">2.84302e-12</wgt>
  <wgt id="779">1.7986e-12</wgt>
  <wgt id="780">1.10433e-12</wgt>
  <wgt id="781">3.27601e-12</wgt>
  <wgt id="782">3.43394e-12</wgt>
  <wgt id="783">1.63164e-12</wgt>
  <wgt id="784">2.03643e-12</wgt>
  <wgt id="785">4.18264e-12</wgt>
  <wgt id="786">1.644e-12</wgt>
  <wgt id="787">3.64309e-12</wgt>
  <wgt id="788">6.47804e-13</wgt>
  <wgt id="789">2.06006e-12</wgt>
  <wgt id="790">1.64809e-12</wgt>
  <wgt id="791">3.27935e-12</wgt>
  <wgt id="792">3.86412e-12</wgt>
  <wgt id="793">2.69864e-12</wgt>
  <wgt id="794">1.49403e-12</wgt>
  <wgt id="795">3.87618e-12</wgt>
  <wgt id="796">4.039e-12</wgt>
  <wgt id="797">3.69281e-12</wgt>
  <wgt id="798">2.17546e-12</wgt>
  <wgt id="799">3.55834e-12</wgt>
  <wgt id="800">2.2171e-12</wgt>
  <wgt id="801">2.72585e-12</wgt>
  <wgt id="802">1.44622e-12</wgt>
  <wgt id="803">4.52786e-12</wgt>
  <wgt id="804">3.93549e-12</wgt>
  <wgt id="805">3.76984e-12</wgt>
  <wgt id="806">3.12951e-12</wgt>
  <wgt id="807">2.78487e-12</wgt>
  <wgt id="808">2.7061e-12</wgt>
  <wgt id="809">2.58553e-12</wgt>
  <wgt id="810">3.32922e-12</wgt>
  <wgt id="811">2.97592e-12</wgt>
  <wgt id="812">1.67697e-12</wgt>
  <wgt id="813">1.80162e-12</wgt>
  <wgt id="814">2.0048e-12</wgt>
  <wgt id="815">1.67344e-12</wgt>
  <wgt id="816">1.8522e-12</wgt>
  <wgt id="817">2.86471e-12</wgt>
  <wgt id="818">3.75798e-12</wgt>
  <wgt id="819">1.77068e-12</wgt>
  <wgt id="820">2.68143e-12</wgt>
  <wgt id="821">3.43097e-12</wgt>
  <wgt id="822">2.28434e-12</wgt>
  <wgt id="823">3.63375e-12</wgt>
  <wgt id="824">4.28682e-12</wgt>
  <wgt id="825">1.37446e-12</wgt>
  <wgt id="826">3.56394e-12</wgt>
  <wgt id="827">1.25342e-12</wgt>
  <wgt id="828">3.67371e-12</wgt>
  <wgt id="829">2.92906e-12</wgt>
  <wgt id="830">1.31197e-12</wgt>
  <wgt id="831">3.3585e-12</wgt>
  <wgt id="832">5.11809e-12</wgt>
  <wgt id="833">2.27155e-12</wgt>
  <wgt id="834">5.01127e-12</wgt>
  <wgt id="835">2.00865e-12</wgt>
  <wgt id="836">2.35186e-12</wgt>
  <wgt id="837">3.35457e-12</wgt>
  <wgt id="838">2.283e-12</wgt>
  <wgt id="839">3.34904e-12</wgt>
  <wgt id="840">2.42184e-12</wgt>
  <wgt id="841">4.01745e-12</wgt>
  <wgt id="842">2.83806e-12</wgt>
  <wgt id="843">3.09233e-12</wgt>
  <wgt id="844">3.17039e-12</wgt>
  <wgt id="845">5.14645e-12</wgt>
  <wgt id="846">2.89986e-12</wgt>
  <wgt id="847">3.07678e-12</wgt>
  <wgt id="848">1.74346e-12</wgt>
  <wgt id="849">3.10994e-12</wgt>
  <wgt id="850">4.3652e-12</wgt>
  <wgt id="851">3.37873e-12</wgt>
  <wgt id="852">1.48099e-12</wgt>
  <wgt id="853">3.53235e-12</wgt>
  <wgt id="854">3.99375e-12</wgt>
  <wgt id="855">3.49234e-12</wgt>
  <wgt id="856">1.29386e-12</wgt>
  <wgt id="857">2.47766e-12</wgt>
  <wgt id="858">2.66634e-12</wgt>
  <wgt id="859">2.74713e-12</wgt>
  <wgt id="860">3.67285e-12</wgt>
  <wgt id="861">2.35297e-12</wgt>
  <wgt id="862">2.90705e-12</wgt>
  <wgt id="863">3.30601e-12</wgt>
  <wgt id="864">2.95327e-12</wgt>
  <wgt id="865">4.57866e-12</wgt>
  <wgt id="866">5.12729e-12</wgt>
  <wgt id="867">2.89024e-12</wgt>
  <wgt id="868">2.93593e-12</wgt>
  <wgt id="869">1.62239e-12</wgt>
  <wgt id="870">1.93812e-12</wgt>
  <wgt id="871">1.95524e-12</wgt>
  <wgt id="872">4.09981e-12</wgt>
  <wgt id="873">2.25787e-12</wgt>
  <wgt id="874">3.16869e-12</wgt>
  <wgt id="875">2.1998e-12</wgt>
  <wgt id="876">3.91381e-12</wgt>
  <wgt id="877">3.24724e-12</wgt>
  <wgt id="878">2.27852e-12</wgt>
  <wgt id="879">4.27484e-12</wgt>
  <wgt id="880">4.32987e-12</wgt>
  <wgt id="881">4.65879e-12</wgt>
  <wgt id="882">4.34763e-12</wgt>
  <wgt id="883">4.31525e-12</wgt>
  <wgt id="884">4.1868e-12</wgt>
  <wgt id="885">4.5065e-12</wgt>
  <wgt id="886">3.95937e-12</wgt>
  <wgt id="887">4.48521e-12</wgt>
  <wgt id="888">4.27358e-12</wgt>
  <wgt id="889">4.29745e-12</wgt>
  <wgt id="890">4.37952e-12</wgt>
  <wgt id="891">4.15972e-12</wgt>
  <wgt id="892">4.45887e-12</wgt>
  <wgt id="893">4.36075e-12</wgt>
  <wgt id="894">4.40122e-12</wgt>
  <wgt id="895">4.17704e-12</wgt>
  <wgt id="896">5.56916e-12</wgt>
  <wgt id="897">4.6869e-12</wgt>
  <wgt id="898">4.03681e-12</wgt>
  <wgt id="899">4.13108e-12</wgt>
  <wgt id="900">3.90994e-12</wgt>
  <wgt id="901">3.55219e-12</wgt>
  <wgt id="902">3.65056e-12</wgt>
  <wgt id="903">3.78933e-12</wgt>
  <wgt id="904">4.26473e-12</wgt>
  <wgt id="905">4.15343e-12</wgt>
  <wgt id="906">5.23004e-12</wgt>
  <wgt id="907">4.79241e-12</wgt>
  <wgt id="908">4.79678e-12</wgt>
  <wgt id="909">4.03371e-12</wgt>
  <wgt id="910">4.01451e-12</wgt>
  <wgt id="911">4.08534e-12</wgt>
  <wgt id="912">4.13238e-12</wgt>
  <wgt id="913">3.66212e-12</wgt>
  <wgt id="914">4.5017e-12</wgt>
  <wgt id="915">4.01129e-12</wgt>
  <wgt id="916">4.6129e-12</wgt>
  <wgt id="917">3.86152e-12</wgt>
  <wgt id="918">4.10359e-12</wgt>
  <wgt id="919">4.1106e-12</wgt>
  <wgt id="920">3.76011e-12</wgt>
  <wgt id="921">4.38859e-12</wgt>
  <wgt id="922">3.90038e-12</wgt>
  <wgt id="923">4.35387e-12</wgt>
  <wgt id="924">3.64861e-12</wgt>
  <wgt id="925">3.42494e-12</wgt>
  <wgt id="926">4.77456e-12</wgt>
  <wgt id="927">4.62307e-12</wgt>
  <wgt id="928">4.44896e-12</wgt>
  <wgt id="929">4.24226e-12</wgt>
  <wgt id="930">4.28188e-12</wgt>
  <wgt id="931">4.159e-12</wgt>
  <wgt id="932">3.98243e-12</wgt>
  <wgt id="933">4.71781e-12</wgt>
  <wgt id="934">4.18925e-12</wgt>
  <wgt id="935">4.93826e-12</wgt>
  <wgt id="936">3.99511e-12</wgt>
  <wgt id="937">4.4013e-12</wgt>
  <wgt id="938">4.31044e-12</wgt>
  <wgt id="939">3.97562e-12</wgt>
  <wgt id="940">4.02439e-12</wgt>
  <wgt id="941">4.07514e-12</wgt>
  <wgt id="942">4.5586e-12</wgt>
  <wgt id="943">4.99946e-12</wgt>
  <wgt id="944">4.40548e-12</wgt>
  <wgt id="945">4.12345e-12</wgt>
  <wgt id="946">3.93032e-12</wgt>
  <wgt id="947">4.18936e-12</wgt>
  <wgt id="948">4.62914e-12</wgt>
  <wgt id="949">4.75928e-12</wgt>
  <wgt id="950">3.56741e-12</wgt>
  <wgt id="951">4.15089e-12</wgt>
  <wgt id="952">4.41541e-12</wgt>
  <wgt id="953">4.6347e-12</wgt>
  <wgt id="954">4.29266e-12</wgt>
  <wgt id="955">3.85591e-12</wgt>
  <wgt id="956">3.85192e-12</wgt>
  <wgt id="957">4.4865e-12</wgt>
  <wgt id="958">4.18058e-12</wgt>
  <wgt id="959">4.15398e-12</wgt>
  <wgt id="960">3.71713e-12</wgt>
  <wgt id="961">4.14532e-12</wgt>
  <wgt id="962">4.73541e-12</wgt>
  <wgt id="963">4.09948e-12</wgt>
  <wgt id="964">4.70043e-12</wgt>
  <wgt id="965">4.7213e-12</wgt>
  <wgt id="966">4.34816e-12</wgt>
  <wgt id="967">4.54725e-12</wgt>
  <wgt id="968">4.36556e-12</wgt>
  <wgt id="969">4.32102e-12</wgt>
  <wgt id="970">4.35648e-12</wgt>
  <wgt id="971">3.89587e-12</wgt>
  <wgt id="972">4.50107e-12</wgt>
  <wgt id="973">4.04952e-12</wgt>
  <wgt id="974">5.18692e-12</wgt>
  <wgt id="975">4.16949e-12</wgt>
  <wgt id="976">4.28043e-12</wgt>
  <wgt id="977">3.4133e-12</wgt>
  <wgt id="978">4.48164e-12</wgt>
  <wgt id="979">4.86975e-12</wgt>
  <wgt id="980">4.24478e-12</wgt>
  <wgt id="981">4.36062e-12</wgt>
  <wgt id="982">4.13998e-12</wgt>
</rwgt>
</event>
<event>
 5   1  0.3028200E-11  0.1259497E+04  0.7818608E-02  0.8240731E-01
       21   -1    0    0  502  501  0.00000000000E+00  0.00000000000E+00  0.78575885064E+03  0.78575885064E+03  0.00000000000E+00 0.  1.
       21   -1    0    0  501  502 -0.00000000000E+00 -0.00000000000E+00 -0.50471327000E+03  0.50471327000E+03  0.00000000000E+00 0. -1.
       39    2    1    2    0    0  0.00000000000E+00  0.00000000000E+00  0.28104558064E+03  0.12904721206E+04  0.12594965962E+04 0.  0.
       25    1    3    3    0    0 -0.21926872074E+03 -0.56240104873E+03  0.85759517986E+01  0.61650000686E+03  0.12500000000E+03 0.  0.
       25    1    3    3    0    0  0.21926872074E+03  0.56240104873E+03  0.27246962884E+03  0.67397211378E+03  0.12500000000E+03 0.  0.
<mgrwt>
<rscale>  0 0.12594966E+04</rscale>
<asrwt>0</asrwt>
<pdfrwt beam="1">  1       21 0.12088598E+00 0.12594966E+04</pdfrwt>
<pdfrwt beam="2">  1       21 0.77648195E-01 0.12594966E+04</pdfrwt>
<totfact> 0.53628799E+02</totfact>
</mgrwt>
<rwgt>
  <wgt id="1">3.0282e-12</wgt>
  <wgt id="2">2.71632e-12</wgt>
  <wgt id="3">3.40153e-12</wgt>
  <wgt id="4">3.0282e-12</wgt>
  <wgt id="5">2.71632e-12</wgt>
  <wgt id="6">3.40153e-12</wgt>
  <wgt id="7">3.0282e-12</wgt>
  <wgt id="8">2.71632e-12</wgt>
  <wgt id="9">3.40153e-12</wgt>
  <wgt id="10">3.00009e-12</wgt>
  <wgt id="11">2.99883e-12</wgt>
  <wgt id="12">2.99758e-12</wgt>
  <wgt id="13">2.99336e-12</wgt>
  <wgt id="14">3.0092e-12</wgt>
  <wgt id="15">3.00368e-12</wgt>
  <wgt id="16">2.99489e-12</wgt>
  <wgt id="17">3.00807e-12</wgt>
  <wgt id="18">3.00114e-12</wgt>
  <wgt id="19">3.00257e-12</wgt>
  <wgt id="20">2.99566e-12</wgt>
  <wgt id="21">2.98518e-12</wgt>
  <wgt id="22">2.989e-12</wgt>
  <wgt id="23">2.97575e-12</wgt>
  <wgt id="24">2.98583e-12</wgt>
  <wgt id="25">2.99177e-12</wgt>
  <wgt id="26">3.00725e-12</wgt>
  <wgt id="27">2.9972e-12</wgt>
  <wgt id="28">2.98386e-12</wgt>
  <wgt id="29">3.00297e-12</wgt>
  <wgt id="30">2.98367e-12</wgt>
  <wgt id="31">3.01018e-12</wgt>
  <wgt id="32">2.9837e-12</wgt>
  <wgt id="33">3.00047e-12</wgt>
  <wgt id="34">2.98943e-12</wgt>
  <wgt id="35">2.98633e-12</wgt>
  <wgt id="36">3.00094e-12</wgt>
  <wgt id="37">2.99312e-12</wgt>
  <wgt id="38">2.99685e-12</wgt>
  <wgt id="39">3.03337e-12</wgt>
  <wgt id="40">3.00456e-12</wgt>
  <wgt id="41">3.00004e-12</wgt>
  <wgt id="42">3.01024e-12</wgt>
  <wgt id="43">3.00543e-12</wgt>
  <wgt id="44">2.99749e-12</wgt>
  <wgt id="45">2.99622e-12</wgt>
  <wgt id="46">2.99471e-12</wgt>
  <wgt id="47">3.00087e-12</wgt>
  <wgt id="48">2.99974e-12</wgt>
  <wgt id="49">3.00506e-12</wgt>
  <wgt id="50">3.00342e-12</wgt>
  <wgt id="51">2.99677e-12</wgt>
  <wgt id="52">2.98415e-12</wgt>
  <wgt id="53">3.00262e-12</wgt>
  <wgt id="54">3.00373e-12</wgt>
  <wgt id="55">2.99702e-12</wgt>
  <wgt id="56">3.00802e-12</wgt>
  <wgt id="57">3.00823e-12</wgt>
  <wgt id="58">2.99223e-12</wgt>
  <wgt id="59">2.99746e-12</wgt>
  <wgt id="60">3.00415e-12</wgt>
  <wgt id="61">3.00425e-12</wgt>
  <wgt id="62">2.99786e-12</wgt>
  <wgt id="63">3.00147e-12</wgt>
  <wgt id="64">3.00283e-12</wgt>
  <wgt id="65">3.00217e-12</wgt>
  <wgt id="66">2.99957e-12</wgt>
  <wgt id="67">2.99821e-12</wgt>
  <wgt id="68">2.99991e-12</wgt>
  <wgt id="69">2.99914e-12</wgt>
  <wgt id="70">3.00117e-12</wgt>
  <wgt id="71">2.99815e-12</wgt>
  <wgt id="72">2.99881e-12</wgt>
  <wgt id="73">3.00029e-12</wgt>
  <wgt id="74">2.99867e-12</wgt>
  <wgt id="75">3.00143e-12</wgt>
  <wgt id="76">3.00047e-12</wgt>
  <wgt id="77">3.0003e-12</wgt>
  <wgt id="78">3.0015e-12</wgt>
  <wgt id="79">3.00191e-12</wgt>
  <wgt id="80">2.99685e-12</wgt>
  <wgt id="81">2.9975e-12</wgt>
  <wgt id="82">3.00016e-12</wgt>
  <wgt id="83">2.99805e-12</wgt>
  <wgt id="84">2.99852e-12</wgt>
  <wgt id="85">2.99892e-12</wgt>
  <wgt id="86">3.00151e-12</wgt>
  <wgt id="87">2.99661e-12</wgt>
  <wgt id="88">3.00056e-12</wgt>
  <wgt id="89">3.00133e-12</wgt>
  <wgt id="90">3.00114e-12</wgt>
  <wgt id="91">3.00147e-12</wgt>
  <wgt id="92">3.00197e-12</wgt>
  <wgt id="93">3.00034e-12</wgt>
  <wgt id="94">2.99976e-12</wgt>
  <wgt id="95">3.00033e-12</wgt>
  <wgt id="96">3.00021e-12</wgt>
  <wgt id="97">2.9989e-12</wgt>
  <wgt id="98">3.00082e-12</wgt>
  <wgt id="99">2.99912e-12</wgt>
  <wgt id="100">3.00058e-12</wgt>
  <wgt id="101">3.00035e-12</wgt>
  <wgt id="102">2.99984e-12</wgt>
  <wgt id="103">3.00061e-12</wgt>
  <wgt id="104">3.0001e-12</wgt>
  <wgt id="105">3.00118e-12</wgt>
  <wgt id="106">2.9988e-12</wgt>
  <wgt id="107">3.00278e-12</wgt>
  <wgt id="108">2.99907e-12</wgt>
  <wgt id="109">3.00023e-12</wgt>
  <wgt id="110">2.99995e-12</wgt>
  <wgt id="111">3.03898e-12</wgt>
  <wgt id="112">2.98624e-12</wgt>
  <wgt id="113">3.51728e-12</wgt>
  <wgt id="114">3.6972e-12</wgt>
  <wgt id="115">3.63782e-12</wgt>
  <wgt id="116">4.06768e-12</wgt>
  <wgt id="117">3.01264e-12</wgt>
  <wgt id="118">3.0165e-12</wgt>
  <wgt id="119">3.01043e-12</wgt>
  <wgt id="120">3.01331e-12</wgt>
  <wgt id="121">3.01225e-12</wgt>
  <wgt id="122">3.00659e-12</wgt>
  <wgt id="123">3.02081e-12</wgt>
  <wgt id="124">3.00773e-12</wgt>
  <wgt id="125">3.01576e-12</wgt>
  <wgt id="126">3.01387e-12</wgt>
  <wgt id="127">3.01182e-12</wgt>
  <wgt id="128">3.02182e-12</wgt>
  <wgt id="129">3.00353e-12</wgt>
  <wgt id="130">3.0258e-12</wgt>
  <wgt id="131">2.99881e-12</wgt>
  <wgt id="132">2.95479e-12</wgt>
  <wgt id="133">3.07802e-12</wgt>
  <wgt id="134">2.99194e-12</wgt>
  <wgt id="135">3.02842e-12</wgt>
  <wgt id="136">3.03487e-12</wgt>
  <wgt id="137">2.98549e-12</wgt>
  <wgt id="138">3.08173e-12</wgt>
  <wgt id="139">2.94335e-12</wgt>
  <wgt id="140">2.99065e-12</wgt>
  <wgt id="141">3.02975e-12</wgt>
  <wgt id="142">3.0128e-12</wgt>
  <wgt id="143">3.01442e-12</wgt>
  <wgt id="144">3.00134e-12</wgt>
  <wgt id="145">3.01854e-12</wgt>
  <wgt id="146">3.0143e-12</wgt>
  <wgt id="147">3.01255e-12</wgt>
  <wgt id="148">3.0173e-12</wgt>
  <wgt id="149">3.01228e-12</wgt>
  <wgt id="150">3.0319e-12</wgt>
  <wgt id="151">3.00355e-12</wgt>
  <wgt id="152">3.01256e-12</wgt>
  <wgt id="153">3.0127e-12</wgt>
  <wgt id="154">3.04699e-12</wgt>
  <wgt id="155">2.97309e-12</wgt>
  <wgt id="156">3.00807e-12</wgt>
  <wgt id="157">2.99852e-12</wgt>
  <wgt id="158">3.64348e-12</wgt>
  <wgt id="159">3.6582e-12</wgt>
  <wgt id="160">3.63153e-12</wgt>
  <wgt id="161">3.63952e-12</wgt>
  <wgt id="162">3.64774e-12</wgt>
  <wgt id="163">3.64169e-12</wgt>
  <wgt id="164">3.64569e-12</wgt>
  <wgt id="165">3.64508e-12</wgt>
  <wgt id="166">3.64218e-12</wgt>
  <wgt id="167">3.64059e-12</wgt>
  <wgt id="168">3.64734e-12</wgt>
  <wgt id="169">3.62678e-12</wgt>
  <wgt id="170">3.65373e-12</wgt>
  <wgt id="171">3.64231e-12</wgt>
  <wgt id="172">3.6451e-12</wgt>
  <wgt id="173">3.64571e-12</wgt>
  <wgt id="174">3.64265e-12</wgt>
  <wgt id="175">3.57871e-12</wgt>
  <wgt id="176">3.72555e-12</wgt>
  <wgt id="177">3.65213e-12</wgt>
  <wgt id="178">3.63475e-12</wgt>
  <wgt id="179">3.72711e-12</wgt>
  <wgt id="180">3.50643e-12</wgt>
  <wgt id="181">3.58232e-12</wgt>
  <wgt id="182">3.68303e-12</wgt>
  <wgt id="183">3.60538e-12</wgt>
  <wgt id="184">3.66217e-12</wgt>
  <wgt id="185">3.62302e-12</wgt>
  <wgt id="186">3.6626e-12</wgt>
  <wgt id="187">3.61777e-12</wgt>
  <wgt id="188">3.68819e-12</wgt>
  <wgt id="189">3.63123e-12</wgt>
  <wgt id="190">3.64819e-12</wgt>
  <wgt id="191">3.64936e-12</wgt>
  <wgt id="192">3.63972e-12</wgt>
  <wgt id="193">3.66869e-12</wgt>
  <wgt id="194">3.63065e-12</wgt>
  <wgt id="195">3.65913e-12</wgt>
  <wgt id="196">3.66564e-12</wgt>
  <wgt id="197">3.65381e-12</wgt>
  <wgt id="198">3.64083e-12</wgt>
  <wgt id="199">3.64348e-12</wgt>
  <wgt id="200">3.66471e-12</wgt>
  <wgt id="201">3.65638e-12</wgt>
  <wgt id="202">3.64868e-12</wgt>
  <wgt id="203">3.636e-12</wgt>
  <wgt id="204">3.63058e-12</wgt>
  <wgt id="205">3.62581e-12</wgt>
  <wgt id="206">3.65564e-12</wgt>
  <wgt id="207">3.67499e-12</wgt>
  <wgt id="208">3.63643e-12</wgt>
  <wgt id="209">3.65643e-12</wgt>
  <wgt id="210">3.65522e-12</wgt>
  <wgt id="211">3.65609e-12</wgt>
  <wgt id="212">3.65518e-12</wgt>
  <wgt id="213">3.65544e-12</wgt>
  <wgt id="214">3.65613e-12</wgt>
  <wgt id="215">3.65559e-12</wgt>
  <wgt id="216">3.65545e-12</wgt>
  <wgt id="217">3.66119e-12</wgt>
  <wgt id="218">3.65122e-12</wgt>
  <wgt id="219">3.64388e-12</wgt>
  <wgt id="220">3.66255e-12</wgt>
  <wgt id="221">3.65456e-12</wgt>
  <wgt id="222">3.65761e-12</wgt>
  <wgt id="223">3.53051e-12</wgt>
  <wgt id="224">3.76754e-12</wgt>
  <wgt id="225">3.63169e-12</wgt>
  <wgt id="226">3.68508e-12</wgt>
  <wgt id="227">3.63368e-12</wgt>
  <wgt id="228">3.66515e-12</wgt>
  <wgt id="229">3.62163e-12</wgt>
  <wgt id="230">3.67212e-12</wgt>
  <wgt id="231">3.72379e-12</wgt>
  <wgt id="232">3.59822e-12</wgt>
  <wgt id="233">3.64395e-12</wgt>
  <wgt id="234">3.67013e-12</wgt>
  <wgt id="235">3.66277e-12</wgt>
  <wgt id="236">3.66945e-12</wgt>
  <wgt id="237">3.64805e-12</wgt>
  <wgt id="238">3.65907e-12</wgt>
  <wgt id="239">3.64969e-12</wgt>
  <wgt id="240">3.6676e-12</wgt>
  <wgt id="241">3.63543e-12</wgt>
  <wgt id="242">3.67884e-12</wgt>
  <wgt id="243">3.63599e-12</wgt>
  <wgt id="244">3.69586e-12</wgt>
  <wgt id="245">3.6507e-12</wgt>
  <wgt id="246">3.6858e-12</wgt>
  <wgt id="247">3.65564e-12</wgt>
  <wgt id="248">3.67859e-12</wgt>
  <wgt id="249">3.66955e-12</wgt>
  <wgt id="250">3.66147e-12</wgt>
  <wgt id="251">3.64848e-12</wgt>
  <wgt id="252">3.64269e-12</wgt>
  <wgt id="253">3.63812e-12</wgt>
  <wgt id="254">3.55991e-12</wgt>
  <wgt id="255">3.56284e-12</wgt>
  <wgt id="256">3.55681e-12</wgt>
  <wgt id="257">3.56334e-12</wgt>
  <wgt id="258">3.55733e-12</wgt>
  <wgt id="259">3.58208e-12</wgt>
  <wgt id="260">3.53827e-12</wgt>
  <wgt id="261">3.55625e-12</wgt>
  <wgt id="262">3.56453e-12</wgt>
  <wgt id="263">3.56007e-12</wgt>
  <wgt id="264">3.55942e-12</wgt>
  <wgt id="265">3.55913e-12</wgt>
  <wgt id="266">3.56174e-12</wgt>
  <wgt id="267">3.56024e-12</wgt>
  <wgt id="268">3.55915e-12</wgt>
  <wgt id="269">3.56367e-12</wgt>
  <wgt id="270">3.55732e-12</wgt>
  <wgt id="271">3.55377e-12</wgt>
  <wgt id="272">3.56674e-12</wgt>
  <wgt id="273">3.55353e-12</wgt>
  <wgt id="274">3.56473e-12</wgt>
  <wgt id="275">3.55251e-12</wgt>
  <wgt id="276">3.5675e-12</wgt>
  <wgt id="277">3.54539e-12</wgt>
  <wgt id="278">3.57367e-12</wgt>
  <wgt id="279">3.52369e-12</wgt>
  <wgt id="280">3.60457e-12</wgt>
  <wgt id="281">3.55302e-12</wgt>
  <wgt id="282">3.55772e-12</wgt>
  <wgt id="283">3.50248e-12</wgt>
  <wgt id="284">3.62907e-12</wgt>
  <wgt id="285">3.45628e-12</wgt>
  <wgt id="286">3.64223e-12</wgt>
  <wgt id="287">3.56712e-12</wgt>
  <wgt id="288">3.55047e-12</wgt>
  <wgt id="289">3.57428e-12</wgt>
  <wgt id="290">3.5231e-12</wgt>
  <wgt id="291">3.55693e-12</wgt>
  <wgt id="292">3.56078e-12</wgt>
  <wgt id="293">3.54403e-12</wgt>
  <wgt id="294">3.5757e-12</wgt>
  <wgt id="295">3.51621e-12</wgt>
  <wgt id="296">3.6122e-12</wgt>
  <wgt id="297">3.57098e-12</wgt>
  <wgt id="298">3.55873e-12</wgt>
  <wgt id="299">3.55392e-12</wgt>
  <wgt id="300">3.57552e-12</wgt>
  <wgt id="301">3.57715e-12</wgt>
  <wgt id="302">3.56332e-12</wgt>
  <wgt id="303">3.56132e-12</wgt>
  <wgt id="304">3.56012e-12</wgt>
  <wgt id="305">3.60448e-12</wgt>
  <wgt id="306">3.60757e-12</wgt>
  <wgt id="307">3.6009e-12</wgt>
  <wgt id="308">3.6084e-12</wgt>
  <wgt id="309">3.6018e-12</wgt>
  <wgt id="310">3.62795e-12</wgt>
  <wgt id="311">3.58261e-12</wgt>
  <wgt id="312">3.59903e-12</wgt>
  <wgt id="313">3.61034e-12</wgt>
  <wgt id="314">3.60453e-12</wgt>
  <wgt id="315">3.604e-12</wgt>
  <wgt id="316">3.60381e-12</wgt>
  <wgt id="317">3.60579e-12</wgt>
  <wgt id="318">3.6051e-12</wgt>
  <wgt id="319">3.60281e-12</wgt>
  <wgt id="320">3.60785e-12</wgt>
  <wgt id="321">3.60262e-12</wgt>
  <wgt id="322">3.59607e-12</wgt>
  <wgt id="323">3.61432e-12</wgt>
  <wgt id="324">3.59967e-12</wgt>
  <wgt id="325">3.60819e-12</wgt>
  <wgt id="326">3.59778e-12</wgt>
  <wgt id="327">3.61257e-12</wgt>
  <wgt id="328">3.58844e-12</wgt>
  <wgt id="329">3.61439e-12</wgt>
  <wgt id="330">3.669e-12</wgt>
  <wgt id="331">3.54183e-12</wgt>
  <wgt id="332">3.59896e-12</wgt>
  <wgt id="333">3.60264e-12</wgt>
  <wgt id="334">3.55847e-12</wgt>
  <wgt id="335">3.66046e-12</wgt>
  <wgt id="336">3.52795e-12</wgt>
  <wgt id="337">3.69406e-12</wgt>
  <wgt id="338">3.62971e-12</wgt>
  <wgt id="339">3.58055e-12</wgt>
  <wgt id="340">3.61874e-12</wgt>
  <wgt id="341">3.56496e-12</wgt>
  <wgt id="342">3.60376e-12</wgt>
  <wgt id="343">3.60243e-12</wgt>
  <wgt id="344">3.58911e-12</wgt>
  <wgt id="345">3.62197e-12</wgt>
  <wgt id="346">3.55899e-12</wgt>
  <wgt id="347">3.65588e-12</wgt>
  <wgt id="348">3.61942e-12</wgt>
  <wgt id="349">3.59992e-12</wgt>
  <wgt id="350">3.59618e-12</wgt>
  <wgt id="351">3.62492e-12</wgt>
  <wgt id="352">3.62406e-12</wgt>
  <wgt id="353">3.61202e-12</wgt>
  <wgt id="354">3.60723e-12</wgt>
  <wgt id="355">3.60546e-12</wgt>
  <wgt id="356">3.55991e-12</wgt>
  <wgt id="357">3.62869e-12</wgt>
  <wgt id="358">3.60448e-12</wgt>
  <wgt id="359">3.58187e-12</wgt>
  <wgt id="360">3.5474e-12</wgt>
  <wgt id="361">3.56202e-12</wgt>
  <wgt id="362">3.59545e-12</wgt>
  <wgt id="363">3.59111e-12</wgt>
  <wgt id="364">3.58647e-12</wgt>
  <wgt id="365">3.58015e-12</wgt>
  <wgt id="366">3.5716e-12</wgt>
  <wgt id="367">3.55301e-12</wgt>
  <wgt id="368">3.54289e-12</wgt>
  <wgt id="369">3.53196e-12</wgt>
  <wgt id="370">3.56202e-12</wgt>
  <wgt id="371">3.57574e-12</wgt>
  <wgt id="372">3.56848e-12</wgt>
  <wgt id="373">3.55691e-12</wgt>
  <wgt id="374">3.5528e-12</wgt>
  <wgt id="375">3.63866e-12</wgt>
  <wgt id="376">3.63839e-12</wgt>
  <wgt id="377">3.63894e-12</wgt>
  <wgt id="378">3.65079e-12</wgt>
  <wgt id="379">3.62661e-12</wgt>
  <wgt id="380">3.6496e-12</wgt>
  <wgt id="381">3.63411e-12</wgt>
  <wgt id="382">3.64742e-12</wgt>
  <wgt id="383">3.62998e-12</wgt>
  <wgt id="384">3.6404e-12</wgt>
  <wgt id="385">3.63688e-12</wgt>
  <wgt id="386">3.64419e-12</wgt>
  <wgt id="387">3.6363e-12</wgt>
  <wgt id="388">3.63685e-12</wgt>
  <wgt id="389">3.64074e-12</wgt>
  <wgt id="390">3.64397e-12</wgt>
  <wgt id="391">3.63288e-12</wgt>
  <wgt id="392">3.63113e-12</wgt>
  <wgt id="393">3.64284e-12</wgt>
  <wgt id="394">3.64273e-12</wgt>
  <wgt id="395">3.63301e-12</wgt>
  <wgt id="396">3.6341e-12</wgt>
  <wgt id="397">3.6417e-12</wgt>
  <wgt id="398">3.63955e-12</wgt>
  <wgt id="399">3.63773e-12</wgt>
  <wgt id="400">3.63836e-12</wgt>
  <wgt id="401">3.6386e-12</wgt>
  <wgt id="402">3.62518e-12</wgt>
  <wgt id="403">3.64031e-12</wgt>
  <wgt id="404">3.68119e-12</wgt>
  <wgt id="405">3.534e-12</wgt>
  <wgt id="406">3.6052e-12</wgt>
  <wgt id="407">3.70838e-12</wgt>
  <wgt id="408">3.65499e-12</wgt>
  <wgt id="409">3.60573e-12</wgt>
  <wgt id="410">3.58275e-12</wgt>
  <wgt id="411">3.66225e-12</wgt>
  <wgt id="412">3.63491e-12</wgt>
  <wgt id="413">3.64076e-12</wgt>
  <wgt id="414">3.61579e-12</wgt>
  <wgt id="415">3.65627e-12</wgt>
  <wgt id="416">3.67519e-12</wgt>
  <wgt id="417">3.58756e-12</wgt>
  <wgt id="418">3.6417e-12</wgt>
  <wgt id="419">3.62119e-12</wgt>
  <wgt id="420">3.61912e-12</wgt>
  <wgt id="421">3.6605e-12</wgt>
  <wgt id="422">3.65745e-12</wgt>
  <wgt id="423">3.6313e-12</wgt>
  <wgt id="424">3.64162e-12</wgt>
  <wgt id="425">3.64177e-12</wgt>
  <wgt id="426">3.63866e-12</wgt>
  <wgt id="427">3.64222e-12</wgt>
  <wgt id="428">3.64566e-12</wgt>
  <wgt id="429">3.64346e-12</wgt>
  <wgt id="430">3.70156e-12</wgt>
  <wgt id="431">3.6909e-12</wgt>
  <wgt id="432">3.67941e-12</wgt>
  <wgt id="433">3.66843e-12</wgt>
  <wgt id="434">3.65643e-12</wgt>
  <wgt id="435">3.62727e-12</wgt>
  <wgt id="436">3.61085e-12</wgt>
  <wgt id="437">3.59649e-12</wgt>
  <wgt id="438">3.64346e-12</wgt>
  <wgt id="439">3.65472e-12</wgt>
  <wgt id="440">3.64848e-12</wgt>
  <wgt id="441">3.63934e-12</wgt>
  <wgt id="442">3.63555e-12</wgt>
  <wgt id="443">3.67071e-12</wgt>
  <wgt id="444">3.67718e-12</wgt>
  <wgt id="445">3.69063e-12</wgt>
  <wgt id="446">3.65017e-12</wgt>
  <wgt id="447">3.67509e-12</wgt>
  <wgt id="448">3.62239e-12</wgt>
  <wgt id="449">3.70043e-12</wgt>
  <wgt id="450">3.68019e-12</wgt>
  <wgt id="451">3.66821e-12</wgt>
  <wgt id="452">3.70085e-12</wgt>
  <wgt id="453">3.67061e-12</wgt>
  <wgt id="454">3.57027e-12</wgt>
  <wgt id="455">3.68302e-12</wgt>
  <wgt id="456">3.6099e-12</wgt>
  <wgt id="457">3.6686e-12</wgt>
  <wgt id="458">3.70821e-12</wgt>
  <wgt id="459">3.68921e-12</wgt>
  <wgt id="460">3.70621e-12</wgt>
  <wgt id="461">3.65064e-12</wgt>
  <wgt id="462">3.67647e-12</wgt>
  <wgt id="463">3.64938e-12</wgt>
  <wgt id="464">3.67305e-12</wgt>
  <wgt id="465">3.67679e-12</wgt>
  <wgt id="466">3.65435e-12</wgt>
  <wgt id="467">3.66518e-12</wgt>
  <wgt id="468">3.66991e-12</wgt>
  <wgt id="469">3.67859e-12</wgt>
  <wgt id="470">3.64864e-12</wgt>
  <wgt id="471">3.6646e-12</wgt>
  <wgt id="472">3.67223e-12</wgt>
  <wgt id="473">3.66629e-12</wgt>
  <wgt id="474">3.0282e-12</wgt>
  <wgt id="475">3.12019e-12</wgt>
  <wgt id="476">2.99449e-12</wgt>
  <wgt id="477">3.01786e-12</wgt>
  <wgt id="478">3.06458e-12</wgt>
  <wgt id="479">3.05481e-12</wgt>
  <wgt id="480">3.09438e-12</wgt>
  <wgt id="481">2.97179e-12</wgt>
  <wgt id="482">2.96351e-12</wgt>
  <wgt id="483">2.9711e-12</wgt>
  <wgt id="484">3.15052e-12</wgt>
  <wgt id="485">3.01254e-12</wgt>
  <wgt id="486">3.06088e-12</wgt>
  <wgt id="487">2.97892e-12</wgt>
  <wgt id="488">3.06381e-12</wgt>
  <wgt id="489">2.87937e-12</wgt>
  <wgt id="490">2.98288e-12</wgt>
  <wgt id="491">3.04388e-12</wgt>
  <wgt id="492">2.99648e-12</wgt>
  <wgt id="493">2.9532e-12</wgt>
  <wgt id="494">2.95073e-12</wgt>
  <wgt id="495">2.97723e-12</wgt>
  <wgt id="496">2.92692e-12</wgt>
  <wgt id="497">2.9655e-12</wgt>
  <wgt id="498">3.06699e-12</wgt>
  <wgt id="499">2.99055e-12</wgt>
  <wgt id="500">2.95545e-12</wgt>
  <wgt id="501">3.04372e-12</wgt>
  <wgt id="502">2.99391e-12</wgt>
  <wgt id="503">3.02735e-12</wgt>
  <wgt id="504">3.00399e-12</wgt>
  <wgt id="505">3.04815e-12</wgt>
  <wgt id="506">2.99336e-12</wgt>
  <wgt id="507">3.01058e-12</wgt>
  <wgt id="508">3.13845e-12</wgt>
  <wgt id="509">2.97732e-12</wgt>
  <wgt id="510">3.02624e-12</wgt>
  <wgt id="511">2.92544e-12</wgt>
  <wgt id="512">3.04671e-12</wgt>
  <wgt id="513">2.99567e-12</wgt>
  <wgt id="514">3.04422e-12</wgt>
  <wgt id="515">3.02972e-12</wgt>
  <wgt id="516">3.13758e-12</wgt>
  <wgt id="517">3.10066e-12</wgt>
  <wgt id="518">3.13268e-12</wgt>
  <wgt id="519">3.02998e-12</wgt>
  <wgt id="520">3.03321e-12</wgt>
  <wgt id="521">3.11042e-12</wgt>
  <wgt id="522">3.12173e-12</wgt>
  <wgt id="523">2.96076e-12</wgt>
  <wgt id="524">3.02599e-12</wgt>
  <wgt id="525">3.02947e-12</wgt>
  <wgt id="526">2.99633e-12</wgt>
  <wgt id="527">3.06728e-12</wgt>
  <wgt id="528">2.98108e-12</wgt>
  <wgt id="529">3.06488e-12</wgt>
  <wgt id="530">3.0437e-12</wgt>
  <wgt id="531">2.96833e-12</wgt>
  <wgt id="532">3.11707e-12</wgt>
  <wgt id="533">2.92632e-12</wgt>
  <wgt id="534">2.99451e-12</wgt>
  <wgt id="535">3.00213e-12</wgt>
  <wgt id="536">3.04779e-12</wgt>
  <wgt id="537">3.02526e-12</wgt>
  <wgt id="538">3.11369e-12</wgt>
  <wgt id="539">2.96047e-12</wgt>
  <wgt id="540">3.09723e-12</wgt>
  <wgt id="541">3.0464e-12</wgt>
  <wgt id="542">2.95663e-12</wgt>
  <wgt id="543">3.04364e-12</wgt>
  <wgt id="544">3.12807e-12</wgt>
  <wgt id="545">2.96784e-12</wgt>
  <wgt id="546">2.93478e-12</wgt>
  <wgt id="547">2.99651e-12</wgt>
  <wgt id="548">2.92182e-12</wgt>
  <wgt id="549">3.02861e-12</wgt>
  <wgt id="550">3.06847e-12</wgt>
  <wgt id="551">3.08601e-12</wgt>
  <wgt id="552">2.93922e-12</wgt>
  <wgt id="553">3.0089e-12</wgt>
  <wgt id="554">3.21023e-12</wgt>
  <wgt id="555">3.12125e-12</wgt>
  <wgt id="556">2.98288e-12</wgt>
  <wgt id="557">3.07962e-12</wgt>
  <wgt id="558">2.97552e-12</wgt>
  <wgt id="559">2.95163e-12</wgt>
  <wgt id="560">3.20894e-12</wgt>
  <wgt id="561">2.96461e-12</wgt>
  <wgt id="562">3.09336e-12</wgt>
  <wgt id="563">3.07633e-12</wgt>
  <wgt id="564">3.10981e-12</wgt>
  <wgt id="565">3.04061e-12</wgt>
  <wgt id="566">3.01745e-12</wgt>
  <wgt id="567">2.99875e-12</wgt>
  <wgt id="568">3.07356e-12</wgt>
  <wgt id="569">3.0235e-12</wgt>
  <wgt id="570">3.00608e-12</wgt>
  <wgt id="571">3.24655e-12</wgt>
  <wgt id="572">3.02864e-12</wgt>
  <wgt id="573">2.94688e-12</wgt>
  <wgt id="574">2.96909e-12</wgt>
  <wgt id="575">3.20582e-12</wgt>
  <wgt id="576">3.1702e-12</wgt>
  <wgt id="577">3.40267e-12</wgt>
  <wgt id="578">3.23671e-12</wgt>
  <wgt id="579">3.2161e-12</wgt>
  <wgt id="580">3.26704e-12</wgt>
  <wgt id="581">3.37073e-12</wgt>
  <wgt id="582">3.1871e-12</wgt>
  <wgt id="583">3.22122e-12</wgt>
  <wgt id="584">3.18269e-12</wgt>
  <wgt id="585">3.15677e-12</wgt>
  <wgt id="586">3.11877e-12</wgt>
  <wgt id="587">3.23171e-12</wgt>
  <wgt id="588">3.20134e-12</wgt>
  <wgt id="589">3.20039e-12</wgt>
  <wgt id="590">3.18626e-12</wgt>
  <wgt id="591">3.33951e-12</wgt>
  <wgt id="592">3.06847e-12</wgt>
  <wgt id="593">3.16676e-12</wgt>
  <wgt id="594">3.41081e-12</wgt>
  <wgt id="595">3.19362e-12</wgt>
  <wgt id="596">3.36205e-12</wgt>
  <wgt id="597">3.10209e-12</wgt>
  <wgt id="598">3.26307e-12</wgt>
  <wgt id="599">3.2912e-12</wgt>
  <wgt id="600">3.22662e-12</wgt>
  <wgt id="601">3.12466e-12</wgt>
  <wgt id="602">3.1484e-12</wgt>
  <wgt id="603">3.18201e-12</wgt>
  <wgt id="604">3.23218e-12</wgt>
  <wgt id="605">3.30917e-12</wgt>
  <wgt id="606">3.20019e-12</wgt>
  <wgt id="607">3.19322e-12</wgt>
  <wgt id="608">3.1505e-12</wgt>
  <wgt id="609">3.07413e-12</wgt>
  <wgt id="610">3.08098e-12</wgt>
  <wgt id="611">3.2327e-12</wgt>
  <wgt id="612">3.40193e-12</wgt>
  <wgt id="613">3.24973e-12</wgt>
  <wgt id="614">3.20454e-12</wgt>
  <wgt id="615">3.19279e-12</wgt>
  <wgt id="616">3.42015e-12</wgt>
  <wgt id="617">3.21293e-12</wgt>
  <wgt id="618">3.24424e-12</wgt>
  <wgt id="619">3.25151e-12</wgt>
  <wgt id="620">3.20178e-12</wgt>
  <wgt id="621">3.21273e-12</wgt>
  <wgt id="622">3.23171e-12</wgt>
  <wgt id="623">3.25686e-12</wgt>
  <wgt id="624">3.17564e-12</wgt>
  <wgt id="625">3.16472e-12</wgt>
  <wgt id="626">3.12164e-12</wgt>
  <wgt id="627">3.13474e-12</wgt>
  <wgt id="628">3.14536e-12</wgt>
  <wgt id="629">3.21717e-12</wgt>
  <wgt id="630">3.13664e-12</wgt>
  <wgt id="631">3.17513e-12</wgt>
  <wgt id="632">3.15631e-12</wgt>
  <wgt id="633">3.18694e-12</wgt>
  <wgt id="634">3.21872e-12</wgt>
  <wgt id="635">3.21631e-12</wgt>
  <wgt id="636">3.2579e-12</wgt>
  <wgt id="637">3.23062e-12</wgt>
  <wgt id="638">3.17166e-12</wgt>
  <wgt id="639">3.20759e-12</wgt>
  <wgt id="640">3.23441e-12</wgt>
  <wgt id="641">3.22727e-12</wgt>
  <wgt id="642">3.13188e-12</wgt>
  <wgt id="643">3.21166e-12</wgt>
  <wgt id="644">3.06858e-12</wgt>
  <wgt id="645">3.18113e-12</wgt>
  <wgt id="646">3.20432e-12</wgt>
  <wgt id="647">3.15206e-12</wgt>
  <wgt id="648">3.24312e-12</wgt>
  <wgt id="649">3.21244e-12</wgt>
  <wgt id="650">3.14683e-12</wgt>
  <wgt id="651">3.35897e-12</wgt>
  <wgt id="652">3.21376e-12</wgt>
  <wgt id="653">3.11936e-12</wgt>
  <wgt id="654">3.13898e-12</wgt>
  <wgt id="655">3.15423e-12</wgt>
  <wgt id="656">3.13346e-12</wgt>
  <wgt id="657">3.28199e-12</wgt>
  <wgt id="658">3.24431e-12</wgt>
  <wgt id="659">3.12375e-12</wgt>
  <wgt id="660">3.24326e-12</wgt>
  <wgt id="661">3.20464e-12</wgt>
  <wgt id="662">3.17639e-12</wgt>
  <wgt id="663">3.20745e-12</wgt>
  <wgt id="664">3.18964e-12</wgt>
  <wgt id="665">3.2136e-12</wgt>
  <wgt id="666">3.23787e-12</wgt>
  <wgt id="667">3.31275e-12</wgt>
  <wgt id="668">3.1708e-12</wgt>
  <wgt id="669">3.27478e-12</wgt>
  <wgt id="670">3.20475e-12</wgt>
  <wgt id="671">3.14265e-12</wgt>
  <wgt id="672">3.10534e-12</wgt>
  <wgt id="673">3.19044e-12</wgt>
  <wgt id="674">3.12576e-12</wgt>
  <wgt id="675">3.13494e-12</wgt>
  <wgt id="676">3.76306e-12</wgt>
  <wgt id="677">3.86321e-12</wgt>
  <wgt id="678">3.8826e-12</wgt>
  <wgt id="679">3.82872e-12</wgt>
  <wgt id="680">3.59937e-12</wgt>
  <wgt id="681">3.89885e-12</wgt>
  <wgt id="682">3.72945e-12</wgt>
  <wgt id="683">3.75739e-12</wgt>
  <wgt id="684">3.83753e-12</wgt>
  <wgt id="685">3.71627e-12</wgt>
  <wgt id="686">3.88912e-12</wgt>
  <wgt id="687">3.71854e-12</wgt>
  <wgt id="688">3.72834e-12</wgt>
  <wgt id="689">3.73188e-12</wgt>
  <wgt id="690">3.89472e-12</wgt>
  <wgt id="691">3.85606e-12</wgt>
  <wgt id="692">3.83387e-12</wgt>
  <wgt id="693">4.01867e-12</wgt>
  <wgt id="694">3.92049e-12</wgt>
  <wgt id="695">3.68173e-12</wgt>
  <wgt id="696">3.83181e-12</wgt>
  <wgt id="697">3.64682e-12</wgt>
  <wgt id="698">3.71392e-12</wgt>
  <wgt id="699">3.67857e-12</wgt>
  <wgt id="700">3.65243e-12</wgt>
  <wgt id="701">3.72458e-12</wgt>
  <wgt id="702">3.66814e-12</wgt>
  <wgt id="703">3.97595e-12</wgt>
  <wgt id="704">3.84798e-12</wgt>
  <wgt id="705">3.91737e-12</wgt>
  <wgt id="706">3.72002e-12</wgt>
  <wgt id="707">3.66749e-12</wgt>
  <wgt id="708">3.68642e-12</wgt>
  <wgt id="709">3.68002e-12</wgt>
  <wgt id="710">3.58123e-12</wgt>
  <wgt id="711">3.78348e-12</wgt>
  <wgt id="712">3.70638e-12</wgt>
  <wgt id="713">3.84155e-12</wgt>
  <wgt id="714">3.78025e-12</wgt>
  <wgt id="715">3.74183e-12</wgt>
  <wgt id="716">3.6636e-12</wgt>
  <wgt id="717">3.69915e-12</wgt>
  <wgt id="718">3.66682e-12</wgt>
  <wgt id="719">3.59744e-12</wgt>
  <wgt id="720">3.75387e-12</wgt>
  <wgt id="721">3.79125e-12</wgt>
  <wgt id="722">3.67075e-12</wgt>
  <wgt id="723">3.82643e-12</wgt>
  <wgt id="724">3.81701e-12</wgt>
  <wgt id="725">3.88376e-12</wgt>
  <wgt id="726">3.75918e-12</wgt>
  <wgt id="727">3.7108e-12</wgt>
  <wgt id="728">3.7987e-12</wgt>
  <wgt id="729">3.69852e-12</wgt>
  <wgt id="730">3.71534e-12</wgt>
  <wgt id="731">3.70657e-12</wgt>
  <wgt id="732">3.94107e-12</wgt>
  <wgt id="733">3.69335e-12</wgt>
  <wgt id="734">3.77672e-12</wgt>
  <wgt id="735">3.85399e-12</wgt>
  <wgt id="736">3.74679e-12</wgt>
  <wgt id="737">3.77041e-12</wgt>
  <wgt id="738">3.82622e-12</wgt>
  <wgt id="739">3.62679e-12</wgt>
  <wgt id="740">3.97873e-12</wgt>
  <wgt id="741">3.48506e-12</wgt>
  <wgt id="742">3.73651e-12</wgt>
  <wgt id="743">3.87002e-12</wgt>
  <wgt id="744">3.68798e-12</wgt>
  <wgt id="745">3.72799e-12</wgt>
  <wgt id="746">3.73131e-12</wgt>
  <wgt id="747">3.64349e-12</wgt>
  <wgt id="748">3.72343e-12</wgt>
  <wgt id="749">3.87855e-12</wgt>
  <wgt id="750">3.74932e-12</wgt>
  <wgt id="751">3.83539e-12</wgt>
  <wgt id="752">3.62299e-12</wgt>
  <wgt id="753">3.61892e-12</wgt>
  <wgt id="754">3.69066e-12</wgt>
  <wgt id="755">3.77601e-12</wgt>
  <wgt id="756">3.71143e-12</wgt>
  <wgt id="757">3.64276e-12</wgt>
  <wgt id="758">3.75223e-12</wgt>
  <wgt id="759">3.79062e-12</wgt>
  <wgt id="760">3.81062e-12</wgt>
  <wgt id="761">3.90448e-12</wgt>
  <wgt id="762">3.82859e-12</wgt>
  <wgt id="763">3.81662e-12</wgt>
  <wgt id="764">3.79663e-12</wgt>
  <wgt id="765">3.75581e-12</wgt>
  <wgt id="766">3.72355e-12</wgt>
  <wgt id="767">3.76136e-12</wgt>
  <wgt id="768">3.67063e-12</wgt>
  <wgt id="769">3.87513e-12</wgt>
  <wgt id="770">3.81342e-12</wgt>
  <wgt id="771">4.0395e-12</wgt>
  <wgt id="772">3.61135e-12</wgt>
  <wgt id="773">3.78343e-12</wgt>
  <wgt id="774">3.58065e-12</wgt>
  <wgt id="775">3.78129e-12</wgt>
  <wgt id="776">3.92909e-12</wgt>
  <wgt id="777">3.83614e-12</wgt>
  <wgt id="778">3.05286e-12</wgt>
  <wgt id="779">2.81878e-12</wgt>
  <wgt id="780">2.75273e-12</wgt>
  <wgt id="781">3.13987e-12</wgt>
  <wgt id="782">3.18016e-12</wgt>
  <wgt id="783">2.89523e-12</wgt>
  <wgt id="784">2.89587e-12</wgt>
  <wgt id="785">3.39656e-12</wgt>
  <wgt id="786">2.67305e-12</wgt>
  <wgt id="787">3.13662e-12</wgt>
  <wgt id="788">2.57e-12</wgt>
  <wgt id="789">2.9836e-12</wgt>
  <wgt id="790">2.69439e-12</wgt>
  <wgt id="791">2.95935e-12</wgt>
  <wgt id="792">3.82224e-12</wgt>
  <wgt id="793">2.95317e-12</wgt>
  <wgt id="794">2.7792e-12</wgt>
  <wgt id="795">3.07408e-12</wgt>
  <wgt id="796">3.6744e-12</wgt>
  <wgt id="797">3.23437e-12</wgt>
  <wgt id="798">2.8844e-12</wgt>
  <wgt id="799">3.14543e-12</wgt>
  <wgt id="800">2.85314e-12</wgt>
  <wgt id="801">2.98465e-12</wgt>
  <wgt id="802">2.85892e-12</wgt>
  <wgt id="803">3.87833e-12</wgt>
  <wgt id="804">3.18728e-12</wgt>
  <wgt id="805">3.06557e-12</wgt>
  <wgt id="806">3.43053e-12</wgt>
  <wgt id="807">3.04977e-12</wgt>
  <wgt id="808">2.96433e-12</wgt>
  <wgt id="809">2.99357e-12</wgt>
  <wgt id="810">3.32437e-12</wgt>
  <wgt id="811">3.10401e-12</wgt>
  <wgt id="812">2.8332e-12</wgt>
  <wgt id="813">2.72777e-12</wgt>
  <wgt id="814">2.53115e-12</wgt>
  <wgt id="815">2.82975e-12</wgt>
  <wgt id="816">2.82891e-12</wgt>
  <wgt id="817">3.12986e-12</wgt>
  <wgt id="818">2.92482e-12</wgt>
  <wgt id="819">2.88766e-12</wgt>
  <wgt id="820">3.04412e-12</wgt>
  <wgt id="821">3.07132e-12</wgt>
  <wgt id="822">3.02342e-12</wgt>
  <wgt id="823">3.11632e-12</wgt>
  <wgt id="824">3.60595e-12</wgt>
  <wgt id="825">2.71994e-12</wgt>
  <wgt id="826">2.97759e-12</wgt>
  <wgt id="827">2.63173e-12</wgt>
  <wgt id="828">3.75233e-12</wgt>
  <wgt id="829">2.96966e-12</wgt>
  <wgt id="830">2.68e-12</wgt>
  <wgt id="831">3.08195e-12</wgt>
  <wgt id="832">4.19921e-12</wgt>
  <wgt id="833">3.04187e-12</wgt>
  <wgt id="834">4.08457e-12</wgt>
  <wgt id="835">2.79869e-12</wgt>
  <wgt id="836">3.10591e-12</wgt>
  <wgt id="837">3.07232e-12</wgt>
  <wgt id="838">2.8909e-12</wgt>
  <wgt id="839">3.09479e-12</wgt>
  <wgt id="840">3.06254e-12</wgt>
  <wgt id="841">3.19585e-12</wgt>
  <wgt id="842">3.06307e-12</wgt>
  <wgt id="843">2.93989e-12</wgt>
  <wgt id="844">2.99725e-12</wgt>
  <wgt id="845">3.83359e-12</wgt>
  <wgt id="846">3.08196e-12</wgt>
  <wgt id="847">2.92574e-12</wgt>
  <wgt id="848">2.96739e-12</wgt>
  <wgt id="849">3.0518e-12</wgt>
  <wgt id="850">3.31403e-12</wgt>
  <wgt id="851">3.16833e-12</wgt>
  <wgt id="852">2.81908e-12</wgt>
  <wgt id="853">3.11374e-12</wgt>
  <wgt id="854">3.3409e-12</wgt>
  <wgt id="855">2.9544e-12</wgt>
  <wgt id="856">2.68824e-12</wgt>
  <wgt id="857">3.07744e-12</wgt>
  <wgt id="858">2.9106e-12</wgt>
  <wgt id="859">2.98963e-12</wgt>
  <wgt id="860">2.98078e-12</wgt>
  <wgt id="861">3.05376e-12</wgt>
  <wgt id="862">2.97448e-12</wgt>
  <wgt id="863">3.01529e-12</wgt>
  <wgt id="864">3.03343e-12</wgt>
  <wgt id="865">3.44388e-12</wgt>
  <wgt id="866">3.88712e-12</wgt>
  <wgt id="867">2.8816e-12</wgt>
  <wgt id="868">2.79921e-12</wgt>
  <wgt id="869">2.75825e-12</wgt>
  <wgt id="870">2.87179e-12</wgt>
  <wgt id="871">2.85281e-12</wgt>
  <wgt id="872">3.14088e-12</wgt>
  <wgt id="873">2.89053e-12</wgt>
  <wgt id="874">3.01567e-12</wgt>
  <wgt id="875">2.80152e-12</wgt>
  <wgt id="876">3.08289e-12</wgt>
  <wgt id="877">3.02258e-12</wgt>
  <wgt id="878">2.96326e-12</wgt>
  <wgt id="879">3.76306e-12</wgt>
  <wgt id="880">3.86321e-12</wgt>
  <wgt id="881">3.8826e-12</wgt>
  <wgt id="882">3.82872e-12</wgt>
  <wgt id="883">3.59937e-12</wgt>
  <wgt id="884">3.89885e-12</wgt>
  <wgt id="885">3.72945e-12</wgt>
  <wgt id="886">3.75739e-12</wgt>
  <wgt id="887">3.83753e-12</wgt>
  <wgt id="888">3.71627e-12</wgt>
  <wgt id="889">3.88912e-12</wgt>
  <wgt id="890">3.71854e-12</wgt>
  <wgt id="891">3.72834e-12</wgt>
  <wgt id="892">3.73188e-12</wgt>
  <wgt id="893">3.89472e-12</wgt>
  <wgt id="894">3.85606e-12</wgt>
  <wgt id="895">3.83387e-12</wgt>
  <wgt id="896">4.01867e-12</wgt>
  <wgt id="897">3.92049e-12</wgt>
  <wgt id="898">3.68173e-12</wgt>
  <wgt id="899">3.83181e-12</wgt>
  <wgt id="900">3.64682e-12</wgt>
  <wgt id="901">3.71392e-12</wgt>
  <wgt id="902">3.67857e-12</wgt>
  <wgt id="903">3.65243e-12</wgt>
  <wgt id="904">3.72458e-12</wgt>
  <wgt id="905">3.66814e-12</wgt>
  <wgt id="906">3.97595e-12</wgt>
  <wgt id="907">3.84798e-12</wgt>
  <wgt id="908">3.91737e-12</wgt>
  <wgt id="909">3.72002e-12</wgt>
  <wgt id="910">3.66749e-12</wgt>
  <wgt id="911">3.68642e-12</wgt>
  <wgt id="912">3.68002e-12</wgt>
  <wgt id="913">3.58123e-12</wgt>
  <wgt id="914">3.78348e-12</wgt>
  <wgt id="915">3.70638e-12</wgt>
  <wgt id="916">3.84155e-12</wgt>
  <wgt id="917">3.78025e-12</wgt>
  <wgt id="918">3.74183e-12</wgt>
  <wgt id="919">3.6636e-12</wgt>
  <wgt id="920">3.69915e-12</wgt>
  <wgt id="921">3.66682e-12</wgt>
  <wgt id="922">3.59744e-12</wgt>
  <wgt id="923">3.75387e-12</wgt>
  <wgt id="924">3.79125e-12</wgt>
  <wgt id="925">3.67075e-12</wgt>
  <wgt id="926">3.82643e-12</wgt>
  <wgt id="927">3.81701e-12</wgt>
  <wgt id="928">3.88376e-12</wgt>
  <wgt id="929">3.75918e-12</wgt>
  <wgt id="930">3.7108e-12</wgt>
  <wgt id="931">3.7987e-12</wgt>
  <wgt id="932">3.69852e-12</wgt>
  <wgt id="933">3.71534e-12</wgt>
  <wgt id="934">3.70657e-12</wgt>
  <wgt id="935">3.94107e-12</wgt>
  <wgt id="936">3.69335e-12</wgt>
  <wgt id="937">3.77672e-12</wgt>
  <wgt id="938">3.85399e-12</wgt>
  <wgt id="939">3.74679e-12</wgt>
  <wgt id="940">3.77041e-12</wgt>
  <wgt id="941">3.82622e-12</wgt>
  <wgt id="942">3.62679e-12</wgt>
  <wgt id="943">3.97873e-12</wgt>
  <wgt id="944">3.48506e-12</wgt>
  <wgt id="945">3.73651e-12</wgt>
  <wgt id="946">3.87002e-12</wgt>
  <wgt id="947">3.68798e-12</wgt>
  <wgt id="948">3.72799e-12</wgt>
  <wgt id="949">3.73131e-12</wgt>
  <wgt id="950">3.64349e-12</wgt>
  <wgt id="951">3.72343e-12</wgt>
  <wgt id="952">3.87855e-12</wgt>
  <wgt id="953">3.74932e-12</wgt>
  <wgt id="954">3.83539e-12</wgt>
  <wgt id="955">3.62299e-12</wgt>
  <wgt id="956">3.61892e-12</wgt>
  <wgt id="957">3.69066e-12</wgt>
  <wgt id="958">3.77601e-12</wgt>
  <wgt id="959">3.71143e-12</wgt>
  <wgt id="960">3.64276e-12</wgt>
  <wgt id="961">3.75223e-12</wgt>
  <wgt id="962">3.79062e-12</wgt>
  <wgt id="963">3.81062e-12</wgt>
  <wgt id="964">3.90448e-12</wgt>
  <wgt id="965">3.82859e-12</wgt>
  <wgt id="966">3.81662e-12</wgt>
  <wgt id="967">3.79663e-12</wgt>
  <wgt id="968">3.75581e-12</wgt>
  <wgt id="969">3.72355e-12</wgt>
  <wgt id="970">3.76136e-12</wgt>
  <wgt id="971">3.67063e-12</wgt>
  <wgt id="972">3.87513e-12</wgt>
  <wgt id="973">3.81342e-12</wgt>
  <wgt id="974">4.0395e-12</wgt>
  <wgt id="975">3.61135e-12</wgt>
  <wgt id="976">3.78343e-12</wgt>
  <wgt id="977">3.58065e-12</wgt>
  <wgt id="978">3.78129e-12</wgt>
  <wgt id="979">3.92909e-12</wgt>
  <wgt id="980">3.78532e-12</wgt>
  <wgt id="981">3.73761e-12</wgt>
  <wgt id="982">3.66411e-12</wgt>
</rwgt>
</event>
<event>
 5   1  0.3028200E-11  0.1960699E+04  0.7818608E-02  0.7845483E-01
       21   -1    0    0  502  501  0.00000000000E+00  0.00000000000E+00  0.71716220981E+03  0.71716220981E+03  0.00000000000E+00 0.  1.
       21   -1    0    0  501  502 -0.00000000000E+00 -0.00000000000E+00 -0.13401230032E+04  0.13401230032E+04  0.00000000000E+00 0. -1.
       39    2    1    2    0    0  0.00000000000E+00  0.00000000000E+00 -0.62296079337E+03  0.20572852130E+04  0.19606994409E+04 0.  0.
       25    1    3    3    0    0  0.52573428457E+03 -0.61651049388E+03  0.25256817886E+03  0.85784463162E+03  0.12500000000E+03 0.  0.
       25    1    3    3    0    0 -0.52573428457E+03  0.61651049388E+03 -0.87552897224E+03  0.11994405814E+04  0.12500000000E+03 0.  0.
<mgrwt>
<rscale>  0 0.19606994E+04</rscale>
<asrwt>0</asrwt>
<pdfrwt beam="1">  1       21 0.11033265E+00 0.19606994E+04</pdfrwt>
<pdfrwt beam="2">  1       21 0.20617277E+00 0.19606994E+04</pdfrwt>
<totfact> 0.35813651E+01</totfact>
</mgrwt>
<rwgt>
  <wgt id="1">3.0282e-12</wgt>
  <wgt id="2">2.65646e-12</wgt>
  <wgt id="3">3.48577e-12</wgt>
  <wgt id="4">3.0282e-12</wgt>
  <wgt id="5">2.65646e-12</wgt>
  <wgt id="6">3.48577e-12</wgt>
  <wgt id="7">3.0282e-12</wgt>
  <wgt id="8">2.65646e-12</wgt>
  <wgt id="9">3.48577e-12</wgt>
  <wgt id="10">3.09827e-12</wgt>
  <wgt id="11">3.09595e-12</wgt>
  <wgt id="12">3.09365e-12</wgt>
  <wgt id="13">3.08861e-12</wgt>
  <wgt id="14">3.10917e-12</wgt>
  <wgt id="15">3.1031e-12</wgt>
  <wgt id="16">3.09286e-12</wgt>
  <wgt id="17">3.10567e-12</wgt>
  <wgt id="18">3.09506e-12</wgt>
  <wgt id="19">3.10376e-12</wgt>
  <wgt id="20">3.09044e-12</wgt>
  <wgt id="21">3.08007e-12</wgt>
  <wgt id="22">3.08644e-12</wgt>
  <wgt id="23">3.07072e-12</wgt>
  <wgt id="24">3.08308e-12</wgt>
  <wgt id="25">3.0903e-12</wgt>
  <wgt id="26">3.10882e-12</wgt>
  <wgt id="27">3.09709e-12</wgt>
  <wgt id="28">3.08275e-12</wgt>
  <wgt id="29">3.10085e-12</wgt>
  <wgt id="30">3.08617e-12</wgt>
  <wgt id="31">3.10805e-12</wgt>
  <wgt id="32">3.08843e-12</wgt>
  <wgt id="33">3.10344e-12</wgt>
  <wgt id="34">3.0878e-12</wgt>
  <wgt id="35">3.09114e-12</wgt>
  <wgt id="36">3.10479e-12</wgt>
  <wgt id="37">3.09042e-12</wgt>
  <wgt id="38">3.09124e-12</wgt>
  <wgt id="39">3.13217e-12</wgt>
  <wgt id="40">3.10388e-12</wgt>
  <wgt id="41">3.09745e-12</wgt>
  <wgt id="42">3.10645e-12</wgt>
  <wgt id="43">3.10014e-12</wgt>
  <wgt id="44">3.09142e-12</wgt>
  <wgt id="45">3.10145e-12</wgt>
  <wgt id="46">3.09914e-12</wgt>
  <wgt id="47">3.0915e-12</wgt>
  <wgt id="48">3.09758e-12</wgt>
  <wgt id="49">3.10246e-12</wgt>
  <wgt id="50">3.10904e-12</wgt>
  <wgt id="51">3.10494e-12</wgt>
  <wgt id="52">3.09186e-12</wgt>
  <wgt id="53">3.08391e-12</wgt>
  <wgt id="54">3.09515e-12</wgt>
  <wgt id="55">3.09719e-12</wgt>
  <wgt id="56">3.11023e-12</wgt>
  <wgt id="57">3.10833e-12</wgt>
  <wgt id="58">3.08207e-12</wgt>
  <wgt id="59">3.09016e-12</wgt>
  <wgt id="60">3.10207e-12</wgt>
  <wgt id="61">3.09193e-12</wgt>
  <wgt id="62">3.09394e-12</wgt>
  <wgt id="63">3.09867e-12</wgt>
  <wgt id="64">3.10133e-12</wgt>
  <wgt id="65">3.10271e-12</wgt>
  <wgt id="66">3.095e-12</wgt>
  <wgt id="67">3.09038e-12</wgt>
  <wgt id="68">3.09623e-12</wgt>
  <wgt id="69">3.09866e-12</wgt>
  <wgt id="70">3.09812e-12</wgt>
  <wgt id="71">3.09813e-12</wgt>
  <wgt id="72">3.09468e-12</wgt>
  <wgt id="73">3.09906e-12</wgt>
  <wgt id="74">3.09876e-12</wgt>
  <wgt id="75">3.09522e-12</wgt>
  <wgt id="76">3.10335e-12</wgt>
  <wgt id="77">3.09812e-12</wgt>
  <wgt id="78">3.09944e-12</wgt>
  <wgt id="79">3.10337e-12</wgt>
  <wgt id="80">3.08915e-12</wgt>
  <wgt id="81">3.0947e-12</wgt>
  <wgt id="82">3.09823e-12</wgt>
  <wgt id="83">3.08922e-12</wgt>
  <wgt id="84">3.09411e-12</wgt>
  <wgt id="85">3.09294e-12</wgt>
  <wgt id="86">3.10504e-12</wgt>
  <wgt id="87">3.08543e-12</wgt>
  <wgt id="88">3.10099e-12</wgt>
  <wgt id="89">3.10081e-12</wgt>
  <wgt id="90">3.10214e-12</wgt>
  <wgt id="91">3.10068e-12</wgt>
  <wgt id="92">3.10316e-12</wgt>
  <wgt id="93">3.09808e-12</wgt>
  <wgt id="94">3.09602e-12</wgt>
  <wgt id="95">3.09985e-12</wgt>
  <wgt id="96">3.09962e-12</wgt>
  <wgt id="97">3.09471e-12</wgt>
  <wgt id="98">3.09923e-12</wgt>
  <wgt id="99">3.09656e-12</wgt>
  <wgt id="100">3.09966e-12</wgt>
  <wgt id="101">3.09761e-12</wgt>
  <wgt id="102">3.09569e-12</wgt>
  <wgt id="103">3.1015e-12</wgt>
  <wgt id="104">3.09709e-12</wgt>
  <wgt id="105">3.10109e-12</wgt>
  <wgt id="106">3.09489e-12</wgt>
  <wgt id="107">3.10468e-12</wgt>
  <wgt id="108">3.0962e-12</wgt>
  <wgt id="109">3.09798e-12</wgt>
  <wgt id="110">3.09843e-12</wgt>
  <wgt id="111">3.13112e-12</wgt>
  <wgt id="112">3.09588e-12</wgt>
  <wgt id="113">4.0157e-12</wgt>
  <wgt id="114">4.16382e-12</wgt>
  <wgt id="115">4.10235e-12</wgt>
  <wgt id="116">5.39184e-12</wgt>
  <wgt id="117">3.35412e-12</wgt>
  <wgt id="118">3.36372e-12</wgt>
  <wgt id="119">3.34869e-12</wgt>
  <wgt id="120">3.35463e-12</wgt>
  <wgt id="121">3.35396e-12</wgt>
  <wgt id="122">3.348e-12</wgt>
  <wgt id="123">3.36266e-12</wgt>
  <wgt id="124">3.34912e-12</wgt>
  <wgt id="125">3.35739e-12</wgt>
  <wgt id="126">3.3589e-12</wgt>
  <wgt id="127">3.35101e-12</wgt>
  <wgt id="128">3.36458e-12</wgt>
  <wgt id="129">3.34388e-12</wgt>
  <wgt id="130">3.3725e-12</wgt>
  <wgt id="131">3.33541e-12</wgt>
  <wgt id="132">3.27308e-12</wgt>
  <wgt id="133">3.44929e-12</wgt>
  <wgt id="134">3.32181e-12</wgt>
  <wgt id="135">3.37946e-12</wgt>
  <wgt id="136">3.39225e-12</wgt>
  <wgt id="137">3.30805e-12</wgt>
  <wgt id="138">3.46982e-12</wgt>
  <wgt id="139">3.24158e-12</wgt>
  <wgt id="140">3.33123e-12</wgt>
  <wgt id="141">3.37209e-12</wgt>
  <wgt id="142">3.35459e-12</wgt>
  <wgt id="143">3.35818e-12</wgt>
  <wgt id="144">3.28248e-12</wgt>
  <wgt id="145">3.41899e-12</wgt>
  <wgt id="146">3.37637e-12</wgt>
  <wgt id="147">3.33699e-12</wgt>
  <wgt id="148">3.3632e-12</wgt>
  <wgt id="149">3.35349e-12</wgt>
  <wgt id="150">3.38111e-12</wgt>
  <wgt id="151">3.34155e-12</wgt>
  <wgt id="152">3.3552e-12</wgt>
  <wgt id="153">3.35387e-12</wgt>
  <wgt id="154">3.38433e-12</wgt>
  <wgt id="155">3.31868e-12</wgt>
  <wgt id="156">3.40055e-12</wgt>
  <wgt id="157">3.29919e-12</wgt>
  <wgt id="158">4.03979e-12</wgt>
  <wgt id="159">4.05638e-12</wgt>
  <wgt id="160">4.02618e-12</wgt>
  <wgt id="161">4.03121e-12</wgt>
  <wgt id="162">4.04912e-12</wgt>
  <wgt id="163">4.03608e-12</wgt>
  <wgt id="164">4.04514e-12</wgt>
  <wgt id="165">4.04144e-12</wgt>
  <wgt id="166">4.03851e-12</wgt>
  <wgt id="167">4.03668e-12</wgt>
  <wgt id="168">4.04388e-12</wgt>
  <wgt id="169">4.02216e-12</wgt>
  <wgt id="170">4.05074e-12</wgt>
  <wgt id="171">4.03611e-12</wgt>
  <wgt id="172">4.04466e-12</wgt>
  <wgt id="173">4.04033e-12</wgt>
  <wgt id="174">4.03941e-12</wgt>
  <wgt id="175">3.93727e-12</wgt>
  <wgt id="176">4.17224e-12</wgt>
  <wgt id="177">4.05782e-12</wgt>
  <wgt id="178">4.02269e-12</wgt>
  <wgt id="179">4.18785e-12</wgt>
  <wgt id="180">3.80372e-12</wgt>
  <wgt id="181">3.93562e-12</wgt>
  <wgt id="182">4.10814e-12</wgt>
  <wgt id="183">3.97587e-12</wgt>
  <wgt id="184">4.0713e-12</wgt>
  <wgt id="185">4.00952e-12</wgt>
  <wgt id="186">4.07427e-12</wgt>
  <wgt id="187">4.00546e-12</wgt>
  <wgt id="188">4.10089e-12</wgt>
  <wgt id="189">4.01718e-12</wgt>
  <wgt id="190">4.04895e-12</wgt>
  <wgt id="191">4.04946e-12</wgt>
  <wgt id="192">4.03388e-12</wgt>
  <wgt id="193">4.08908e-12</wgt>
  <wgt id="194">4.0152e-12</wgt>
  <wgt id="195">3.97301e-12</wgt>
  <wgt id="196">4.17406e-12</wgt>
  <wgt id="197">4.05745e-12</wgt>
  <wgt id="198">4.03534e-12</wgt>
  <wgt id="199">4.03979e-12</wgt>
  <wgt id="200">4.07123e-12</wgt>
  <wgt id="201">4.05955e-12</wgt>
  <wgt id="202">4.04832e-12</wgt>
  <wgt id="203">4.03117e-12</wgt>
  <wgt id="204">4.02316e-12</wgt>
  <wgt id="205">4.01635e-12</wgt>
  <wgt id="206">3.95724e-12</wgt>
  <wgt id="207">3.97977e-12</wgt>
  <wgt id="208">3.93489e-12</wgt>
  <wgt id="209">3.96613e-12</wgt>
  <wgt id="210">3.95075e-12</wgt>
  <wgt id="211">3.95638e-12</wgt>
  <wgt id="212">3.95788e-12</wgt>
  <wgt id="213">3.95687e-12</wgt>
  <wgt id="214">3.95769e-12</wgt>
  <wgt id="215">3.95928e-12</wgt>
  <wgt id="216">3.95577e-12</wgt>
  <wgt id="217">3.96692e-12</wgt>
  <wgt id="218">3.94958e-12</wgt>
  <wgt id="219">3.95072e-12</wgt>
  <wgt id="220">3.9611e-12</wgt>
  <wgt id="221">3.95562e-12</wgt>
  <wgt id="222">3.96079e-12</wgt>
  <wgt id="223">3.76804e-12</wgt>
  <wgt id="224">4.12851e-12</wgt>
  <wgt id="225">3.91596e-12</wgt>
  <wgt id="226">4.00883e-12</wgt>
  <wgt id="227">3.92361e-12</wgt>
  <wgt id="228">3.97203e-12</wgt>
  <wgt id="229">3.90738e-12</wgt>
  <wgt id="230">3.98197e-12</wgt>
  <wgt id="231">4.05933e-12</wgt>
  <wgt id="232">3.87267e-12</wgt>
  <wgt id="233">3.93895e-12</wgt>
  <wgt id="234">3.98462e-12</wgt>
  <wgt id="235">3.90157e-12</wgt>
  <wgt id="236">4.01526e-12</wgt>
  <wgt id="237">3.91573e-12</wgt>
  <wgt id="238">3.97165e-12</wgt>
  <wgt id="239">3.93843e-12</wgt>
  <wgt id="240">3.99164e-12</wgt>
  <wgt id="241">3.92205e-12</wgt>
  <wgt id="242">3.99904e-12</wgt>
  <wgt id="243">3.98536e-12</wgt>
  <wgt id="244">3.9852e-12</wgt>
  <wgt id="245">3.95358e-12</wgt>
  <wgt id="246">3.98793e-12</wgt>
  <wgt id="247">3.95724e-12</wgt>
  <wgt id="248">3.98882e-12</wgt>
  <wgt id="249">3.97667e-12</wgt>
  <wgt id="250">3.96541e-12</wgt>
  <wgt id="251">3.94834e-12</wgt>
  <wgt id="252">3.94046e-12</wgt>
  <wgt id="253">3.93453e-12</wgt>
  <wgt id="254">3.86804e-12</wgt>
  <wgt id="255">3.87144e-12</wgt>
  <wgt id="256">3.86414e-12</wgt>
  <wgt id="257">3.87109e-12</wgt>
  <wgt id="258">3.86559e-12</wgt>
  <wgt id="259">3.89332e-12</wgt>
  <wgt id="260">3.84348e-12</wgt>
  <wgt id="261">3.87061e-12</wgt>
  <wgt id="262">3.86479e-12</wgt>
  <wgt id="263">3.86682e-12</wgt>
  <wgt id="264">3.8692e-12</wgt>
  <wgt id="265">3.86448e-12</wgt>
  <wgt id="266">3.87494e-12</wgt>
  <wgt id="267">3.869e-12</wgt>
  <wgt id="268">3.86655e-12</wgt>
  <wgt id="269">3.87779e-12</wgt>
  <wgt id="270">3.86117e-12</wgt>
  <wgt id="271">3.86124e-12</wgt>
  <wgt id="272">3.87531e-12</wgt>
  <wgt id="273">3.85747e-12</wgt>
  <wgt id="274">3.87598e-12</wgt>
  <wgt id="275">3.85437e-12</wgt>
  <wgt id="276">3.88201e-12</wgt>
  <wgt id="277">3.84767e-12</wgt>
  <wgt id="278">3.88662e-12</wgt>
  <wgt id="279">3.80338e-12</wgt>
  <wgt id="280">3.94875e-12</wgt>
  <wgt id="281">3.85365e-12</wgt>
  <wgt id="282">3.86791e-12</wgt>
  <wgt id="283">3.77127e-12</wgt>
  <wgt id="284">3.98637e-12</wgt>
  <wgt id="285">3.70491e-12</wgt>
  <wgt id="286">4.00147e-12</wgt>
  <wgt id="287">3.87882e-12</wgt>
  <wgt id="288">3.85392e-12</wgt>
  <wgt id="289">3.89178e-12</wgt>
  <wgt id="290">3.81163e-12</wgt>
  <wgt id="291">3.85968e-12</wgt>
  <wgt id="292">3.86991e-12</wgt>
  <wgt id="293">3.84197e-12</wgt>
  <wgt id="294">3.89374e-12</wgt>
  <wgt id="295">3.80268e-12</wgt>
  <wgt id="296">3.94728e-12</wgt>
  <wgt id="297">3.87133e-12</wgt>
  <wgt id="298">3.87774e-12</wgt>
  <wgt id="299">3.85742e-12</wgt>
  <wgt id="300">3.89589e-12</wgt>
  <wgt id="301">3.8361e-12</wgt>
  <wgt id="302">3.96382e-12</wgt>
  <wgt id="303">3.84774e-12</wgt>
  <wgt id="304">3.87987e-12</wgt>
  <wgt id="305">3.8903e-12</wgt>
  <wgt id="306">3.89416e-12</wgt>
  <wgt id="307">3.88603e-12</wgt>
  <wgt id="308">3.89381e-12</wgt>
  <wgt id="309">3.8879e-12</wgt>
  <wgt id="310">3.91675e-12</wgt>
  <wgt id="311">3.8657e-12</wgt>
  <wgt id="312">3.89176e-12</wgt>
  <wgt id="313">3.88907e-12</wgt>
  <wgt id="314">3.88909e-12</wgt>
  <wgt id="315">3.89128e-12</wgt>
  <wgt id="316">3.88702e-12</wgt>
  <wgt id="317">3.89738e-12</wgt>
  <wgt id="318">3.89251e-12</wgt>
  <wgt id="319">3.88643e-12</wgt>
  <wgt id="320">3.90047e-12</wgt>
  <wgt id="321">3.88452e-12</wgt>
  <wgt id="322">3.88154e-12</wgt>
  <wgt id="323">3.90048e-12</wgt>
  <wgt id="324">3.88173e-12</wgt>
  <wgt id="325">3.89775e-12</wgt>
  <wgt id="326">3.87927e-12</wgt>
  <wgt id="327">3.90447e-12</wgt>
  <wgt id="328">3.87121e-12</wgt>
  <wgt id="329">3.90146e-12</wgt>
  <wgt id="330">3.99242e-12</wgt>
  <wgt id="331">3.79233e-12</wgt>
  <wgt id="332">3.87863e-12</wgt>
  <wgt id="333">3.88988e-12</wgt>
  <wgt id="334">3.81388e-12</wgt>
  <wgt id="335">3.98465e-12</wgt>
  <wgt id="336">3.7713e-12</wgt>
  <wgt id="337">4.03361e-12</wgt>
  <wgt id="338">3.92865e-12</wgt>
  <wgt id="339">3.85445e-12</wgt>
  <wgt id="340">3.91293e-12</wgt>
  <wgt id="341">3.83085e-12</wgt>
  <wgt id="342">3.88489e-12</wgt>
  <wgt id="343">3.88699e-12</wgt>
  <wgt id="344">3.86632e-12</wgt>
  <wgt id="345">3.91803e-12</wgt>
  <wgt id="346">3.82221e-12</wgt>
  <wgt id="347">3.9683e-12</wgt>
  <wgt id="348">3.89592e-12</wgt>
  <wgt id="349">3.89722e-12</wgt>
  <wgt id="350">3.87675e-12</wgt>
  <wgt id="351">3.92465e-12</wgt>
  <wgt id="352">3.85492e-12</wgt>
  <wgt id="353">3.99236e-12</wgt>
  <wgt id="354">3.85949e-12</wgt>
  <wgt id="355">3.90994e-12</wgt>
  <wgt id="356">3.86804e-12</wgt>
  <wgt id="357">3.90908e-12</wgt>
  <wgt id="358">3.8903e-12</wgt>
  <wgt id="359">3.88433e-12</wgt>
  <wgt id="360">3.88232e-12</wgt>
  <wgt id="361">3.87731e-12</wgt>
  <wgt id="362">3.93537e-12</wgt>
  <wgt id="363">3.92732e-12</wgt>
  <wgt id="364">3.91651e-12</wgt>
  <wgt id="365">3.90506e-12</wgt>
  <wgt id="366">3.8919e-12</wgt>
  <wgt id="367">3.8645e-12</wgt>
  <wgt id="368">3.84933e-12</wgt>
  <wgt id="369">3.83319e-12</wgt>
  <wgt id="370">3.87731e-12</wgt>
  <wgt id="371">3.89403e-12</wgt>
  <wgt id="372">3.88474e-12</wgt>
  <wgt id="373">3.87115e-12</wgt>
  <wgt id="374">3.86894e-12</wgt>
  <wgt id="375">4.08411e-12</wgt>
  <wgt id="376">4.08459e-12</wgt>
  <wgt id="377">4.08372e-12</wgt>
  <wgt id="378">4.09858e-12</wgt>
  <wgt id="379">4.06974e-12</wgt>
  <wgt id="380">4.0954e-12</wgt>
  <wgt id="381">4.07965e-12</wgt>
  <wgt id="382">4.10199e-12</wgt>
  <wgt id="383">4.06656e-12</wgt>
  <wgt id="384">4.08665e-12</wgt>
  <wgt id="385">4.08172e-12</wgt>
  <wgt id="386">4.0975e-12</wgt>
  <wgt id="387">4.07837e-12</wgt>
  <wgt id="388">4.08074e-12</wgt>
  <wgt id="389">4.08819e-12</wgt>
  <wgt id="390">4.09372e-12</wgt>
  <wgt id="391">4.07408e-12</wgt>
  <wgt id="392">4.05971e-12</wgt>
  <wgt id="393">4.09807e-12</wgt>
  <wgt id="394">4.08953e-12</wgt>
  <wgt id="395">4.07673e-12</wgt>
  <wgt id="396">4.08446e-12</wgt>
  <wgt id="397">4.08392e-12</wgt>
  <wgt id="398">4.07169e-12</wgt>
  <wgt id="399">4.09613e-12</wgt>
  <wgt id="400">4.07907e-12</wgt>
  <wgt id="401">4.09539e-12</wgt>
  <wgt id="402">4.05635e-12</wgt>
  <wgt id="403">4.09503e-12</wgt>
  <wgt id="404">4.16475e-12</wgt>
  <wgt id="405">3.88872e-12</wgt>
  <wgt id="406">4.02544e-12</wgt>
  <wgt id="407">4.21042e-12</wgt>
  <wgt id="408">4.11417e-12</wgt>
  <wgt id="409">4.02637e-12</wgt>
  <wgt id="410">3.98725e-12</wgt>
  <wgt id="411">4.12822e-12</wgt>
  <wgt id="412">4.07793e-12</wgt>
  <wgt id="413">4.09233e-12</wgt>
  <wgt id="414">4.04535e-12</wgt>
  <wgt id="415">4.11429e-12</wgt>
  <wgt id="416">4.17166e-12</wgt>
  <wgt id="417">3.96263e-12</wgt>
  <wgt id="418">4.08896e-12</wgt>
  <wgt id="419">4.05788e-12</wgt>
  <wgt id="420">4.11996e-12</wgt>
  <wgt id="421">4.06751e-12</wgt>
  <wgt id="422">4.08609e-12</wgt>
  <wgt id="423">4.08424e-12</wgt>
  <wgt id="424">4.14248e-12</wgt>
  <wgt id="425">4.04908e-12</wgt>
  <wgt id="426">4.08411e-12</wgt>
  <wgt id="427">4.05941e-12</wgt>
  <wgt id="428">4.16127e-12</wgt>
  <wgt id="429">4.11139e-12</wgt>
  <wgt id="430">4.21158e-12</wgt>
  <wgt id="431">4.19183e-12</wgt>
  <wgt id="432">4.17289e-12</wgt>
  <wgt id="433">4.15431e-12</wgt>
  <wgt id="434">4.13232e-12</wgt>
  <wgt id="435">4.0851e-12</wgt>
  <wgt id="436">4.06048e-12</wgt>
  <wgt id="437">4.03732e-12</wgt>
  <wgt id="438">4.11139e-12</wgt>
  <wgt id="439">4.12467e-12</wgt>
  <wgt id="440">4.11708e-12</wgt>
  <wgt id="441">4.10705e-12</wgt>
  <wgt id="442">4.10346e-12</wgt>
  <wgt id="443">4.02816e-12</wgt>
  <wgt id="444">4.04592e-12</wgt>
  <wgt id="445">4.02395e-12</wgt>
  <wgt id="446">4.00368e-12</wgt>
  <wgt id="447">4.02001e-12</wgt>
  <wgt id="448">3.93803e-12</wgt>
  <wgt id="449">4.08194e-12</wgt>
  <wgt id="450">4.02153e-12</wgt>
  <wgt id="451">4.02284e-12</wgt>
  <wgt id="452">4.10124e-12</wgt>
  <wgt id="453">4.05424e-12</wgt>
  <wgt id="454">3.88128e-12</wgt>
  <wgt id="455">4.03624e-12</wgt>
  <wgt id="456">3.98202e-12</wgt>
  <wgt id="457">4.0388e-12</wgt>
  <wgt id="458">4.07235e-12</wgt>
  <wgt id="459">4.05336e-12</wgt>
  <wgt id="460">4.05642e-12</wgt>
  <wgt id="461">3.96965e-12</wgt>
  <wgt id="462">4.00725e-12</wgt>
  <wgt id="463">3.99027e-12</wgt>
  <wgt id="464">4.01324e-12</wgt>
  <wgt id="465">4.05945e-12</wgt>
  <wgt id="466">3.99017e-12</wgt>
  <wgt id="467">3.99939e-12</wgt>
  <wgt id="468">4.02028e-12</wgt>
  <wgt id="469">4.02302e-12</wgt>
  <wgt id="470">3.99551e-12</wgt>
  <wgt id="471">4.00131e-12</wgt>
  <wgt id="472">4.04155e-12</wgt>
  <wgt id="473">3.93759e-12</wgt>
  <wgt id="474">3.0282e-12</wgt>
  <wgt id="475">3.16948e-12</wgt>
  <wgt id="476">2.97523e-12</wgt>
  <wgt id="477">2.95534e-12</wgt>
  <wgt id="478">3.05292e-12</wgt>
  <wgt id="479">3.00027e-12</wgt>
  <wgt id="480">3.12235e-12</wgt>
  <wgt id="481">2.96993e-12</wgt>
  <wgt id="482">2.93912e-12</wgt>
  <wgt id="483">2.95522e-12</wgt>
  <wgt id="484">3.19039e-12</wgt>
  <wgt id="485">3.01461e-12</wgt>
  <wgt id="486">3.10116e-12</wgt>
  <wgt id="487">3.04004e-12</wgt>
  <wgt id="488">3.07441e-12</wgt>
  <wgt id="489">2.9034e-12</wgt>
  <wgt id="490">2.94959e-12</wgt>
  <wgt id="491">3.01404e-12</wgt>
  <wgt id="492">2.95943e-12</wgt>
  <wgt id="493">2.92901e-12</wgt>
  <wgt id="494">2.94313e-12</wgt>
  <wgt id="495">3.04036e-12</wgt>
  <wgt id="496">2.93067e-12</wgt>
  <wgt id="497">2.9286e-12</wgt>
  <wgt id="498">3.07937e-12</wgt>
  <wgt id="499">2.97114e-12</wgt>
  <wgt id="500">2.96785e-12</wgt>
  <wgt id="501">3.13103e-12</wgt>
  <wgt id="502">2.97016e-12</wgt>
  <wgt id="503">3.02909e-12</wgt>
  <wgt id="504">3.04091e-12</wgt>
  <wgt id="505">2.98132e-12</wgt>
  <wgt id="506">3.05127e-12</wgt>
  <wgt id="507">3.01029e-12</wgt>
  <wgt id="508">3.10361e-12</wgt>
  <wgt id="509">2.92988e-12</wgt>
  <wgt id="510">3.07317e-12</wgt>
  <wgt id="511">2.94497e-12</wgt>
  <wgt id="512">3.073e-12</wgt>
  <wgt id="513">3.09271e-12</wgt>
  <wgt id="514">3.02684e-12</wgt>
  <wgt id="515">3.00576e-12</wgt>
  <wgt id="516">3.13319e-12</wgt>
  <wgt id="517">3.09936e-12</wgt>
  <wgt id="518">3.11515e-12</wgt>
  <wgt id="519">2.97163e-12</wgt>
  <wgt id="520">3.0562e-12</wgt>
  <wgt id="521">3.12701e-12</wgt>
  <wgt id="522">3.14585e-12</wgt>
  <wgt id="523">3.03877e-12</wgt>
  <wgt id="524">3.04167e-12</wgt>
  <wgt id="525">3.09226e-12</wgt>
  <wgt id="526">3.0282e-12</wgt>
  <wgt id="527">3.07374e-12</wgt>
  <wgt id="528">3.02324e-12</wgt>
  <wgt id="529">3.01043e-12</wgt>
  <wgt id="530">3.0615e-12</wgt>
  <wgt id="531">2.98346e-12</wgt>
  <wgt id="532">3.18079e-12</wgt>
  <wgt id="533">2.87735e-12</wgt>
  <wgt id="534">3.02111e-12</wgt>
  <wgt id="535">3.05249e-12</wgt>
  <wgt id="536">3.01798e-12</wgt>
  <wgt id="537">3.03708e-12</wgt>
  <wgt id="538">3.08396e-12</wgt>
  <wgt id="539">2.96836e-12</wgt>
  <wgt id="540">3.01332e-12</wgt>
  <wgt id="541">2.97288e-12</wgt>
  <wgt id="542">2.9732e-12</wgt>
  <wgt id="543">3.031e-12</wgt>
  <wgt id="544">3.16519e-12</wgt>
  <wgt id="545">2.9797e-12</wgt>
  <wgt id="546">2.96799e-12</wgt>
  <wgt id="547">2.95876e-12</wgt>
  <wgt id="548">2.9086e-12</wgt>
  <wgt id="549">2.99158e-12</wgt>
  <wgt id="550">3.01603e-12</wgt>
  <wgt id="551">3.0741e-12</wgt>
  <wgt id="552">2.96775e-12</wgt>
  <wgt id="553">3.01502e-12</wgt>
  <wgt id="554">3.24131e-12</wgt>
  <wgt id="555">3.1168e-12</wgt>
  <wgt id="556">2.94959e-12</wgt>
  <wgt id="557">3.08618e-12</wgt>
  <wgt id="558">2.94862e-12</wgt>
  <wgt id="559">2.97326e-12</wgt>
  <wgt id="560">3.27248e-12</wgt>
  <wgt id="561">2.96926e-12</wgt>
  <wgt id="562">3.08921e-12</wgt>
  <wgt id="563">2.99123e-12</wgt>
  <wgt id="564">3.06823e-12</wgt>
  <wgt id="565">2.96e-12</wgt>
  <wgt id="566">3.05955e-12</wgt>
  <wgt id="567">2.99363e-12</wgt>
  <wgt id="568">3.03797e-12</wgt>
  <wgt id="569">3.06463e-12</wgt>
  <wgt id="570">2.95262e-12</wgt>
  <wgt id="571">3.32861e-12</wgt>
  <wgt id="572">2.98484e-12</wgt>
  <wgt id="573">2.91552e-12</wgt>
  <wgt id="574">2.93903e-12</wgt>
  <wgt id="575">3.29723e-12</wgt>
  <wgt id="576">3.27494e-12</wgt>
  <wgt id="577">3.42632e-12</wgt>
  <wgt id="578">3.37104e-12</wgt>
  <wgt id="579">3.34284e-12</wgt>
  <wgt id="580">3.36852e-12</wgt>
  <wgt id="581">3.50638e-12</wgt>
  <wgt id="582">3.276e-12</wgt>
  <wgt id="583">3.31897e-12</wgt>
  <wgt id="584">3.28938e-12</wgt>
  <wgt id="585">3.28101e-12</wgt>
  <wgt id="586">3.21209e-12</wgt>
  <wgt id="587">3.33683e-12</wgt>
  <wgt id="588">3.28445e-12</wgt>
  <wgt id="589">3.34584e-12</wgt>
  <wgt id="590">3.317e-12</wgt>
  <wgt id="591">3.42993e-12</wgt>
  <wgt id="592">3.19456e-12</wgt>
  <wgt id="593">3.27484e-12</wgt>
  <wgt id="594">3.43576e-12</wgt>
  <wgt id="595">3.28911e-12</wgt>
  <wgt id="596">3.37468e-12</wgt>
  <wgt id="597">3.20027e-12</wgt>
  <wgt id="598">3.24811e-12</wgt>
  <wgt id="599">3.4233e-12</wgt>
  <wgt id="600">3.28852e-12</wgt>
  <wgt id="601">3.20767e-12</wgt>
  <wgt id="602">3.2243e-12</wgt>
  <wgt id="603">3.24906e-12</wgt>
  <wgt id="604">3.341e-12</wgt>
  <wgt id="605">3.42546e-12</wgt>
  <wgt id="606">3.25481e-12</wgt>
  <wgt id="607">3.27264e-12</wgt>
  <wgt id="608">3.30067e-12</wgt>
  <wgt id="609">3.13436e-12</wgt>
  <wgt id="610">3.1773e-12</wgt>
  <wgt id="611">3.3297e-12</wgt>
  <wgt id="612">3.53125e-12</wgt>
  <wgt id="613">3.30704e-12</wgt>
  <wgt id="614">3.31434e-12</wgt>
  <wgt id="615">3.25216e-12</wgt>
  <wgt id="616">3.4963e-12</wgt>
  <wgt id="617">3.35844e-12</wgt>
  <wgt id="618">3.38866e-12</wgt>
  <wgt id="619">3.29026e-12</wgt>
  <wgt id="620">3.3807e-12</wgt>
  <wgt id="621">3.32191e-12</wgt>
  <wgt id="622">3.33683e-12</wgt>
  <wgt id="623">3.37648e-12</wgt>
  <wgt id="624">3.27667e-12</wgt>
  <wgt id="625">3.25394e-12</wgt>
  <wgt id="626">3.20824e-12</wgt>
  <wgt id="627">3.18525e-12</wgt>
  <wgt id="628">3.36161e-12</wgt>
  <wgt id="629">3.25522e-12</wgt>
  <wgt id="630">3.19465e-12</wgt>
  <wgt id="631">3.29779e-12</wgt>
  <wgt id="632">3.19846e-12</wgt>
  <wgt id="633">3.27023e-12</wgt>
  <wgt id="634">3.29584e-12</wgt>
  <wgt id="635">3.24766e-12</wgt>
  <wgt id="636">3.33326e-12</wgt>
  <wgt id="637">3.30997e-12</wgt>
  <wgt id="638">3.2057e-12</wgt>
  <wgt id="639">3.26957e-12</wgt>
  <wgt id="640">3.31078e-12</wgt>
  <wgt id="641">3.32521e-12</wgt>
  <wgt id="642">3.14201e-12</wgt>
  <wgt id="643">3.29012e-12</wgt>
  <wgt id="644">3.15011e-12</wgt>
  <wgt id="645">3.30866e-12</wgt>
  <wgt id="646">3.32313e-12</wgt>
  <wgt id="647">3.24952e-12</wgt>
  <wgt id="648">3.32865e-12</wgt>
  <wgt id="649">3.33136e-12</wgt>
  <wgt id="650">3.23299e-12</wgt>
  <wgt id="651">3.36958e-12</wgt>
  <wgt id="652">3.28878e-12</wgt>
  <wgt id="653">3.21042e-12</wgt>
  <wgt id="654">3.25465e-12</wgt>
  <wgt id="655">3.24382e-12</wgt>
  <wgt id="656">3.27559e-12</wgt>
  <wgt id="657">3.41788e-12</wgt>
  <wgt id="658">3.32305e-12</wgt>
  <wgt id="659">3.17239e-12</wgt>
  <wgt id="660">3.3494e-12</wgt>
  <wgt id="661">3.2634e-12</wgt>
  <wgt id="662">3.28491e-12</wgt>
  <wgt id="663">3.29746e-12</wgt>
  <wgt id="664">3.26156e-12</wgt>
  <wgt id="665">3.29631e-12</wgt>
  <wgt id="666">3.2912e-12</wgt>
  <wgt id="667">3.40986e-12</wgt>
  <wgt id="668">3.28432e-12</wgt>
  <wgt id="669">3.37775e-12</wgt>
  <wgt id="670">3.34554e-12</wgt>
  <wgt id="671">3.25587e-12</wgt>
  <wgt id="672">3.17043e-12</wgt>
  <wgt id="673">3.30196e-12</wgt>
  <wgt id="674">3.22433e-12</wgt>
  <wgt id="675">3.24369e-12</wgt>
  <wgt id="676">4.07336e-12</wgt>
  <wgt id="677">4.13646e-12</wgt>
  <wgt id="678">4.2537e-12</wgt>
  <wgt id="679">3.92272e-12</wgt>
  <wgt id="680">3.94995e-12</wgt>
  <wgt id="681">4.17544e-12</wgt>
  <wgt id="682">4.13399e-12</wgt>
  <wgt id="683">4.03204e-12</wgt>
  <wgt id="684">4.22297e-12</wgt>
  <wgt id="685">3.91881e-12</wgt>
  <wgt id="686">4.06562e-12</wgt>
  <wgt id="687">4.19759e-12</wgt>
  <wgt id="688">4.04147e-12</wgt>
  <wgt id="689">4.2546e-12</wgt>
  <wgt id="690">4.26478e-12</wgt>
  <wgt id="691">4.26692e-12</wgt>
  <wgt id="692">4.06953e-12</wgt>
  <wgt id="693">4.64777e-12</wgt>
  <wgt id="694">4.29771e-12</wgt>
  <wgt id="695">3.95511e-12</wgt>
  <wgt id="696">3.95672e-12</wgt>
  <wgt id="697">3.94806e-12</wgt>
  <wgt id="698">3.82516e-12</wgt>
  <wgt id="699">3.76939e-12</wgt>
  <wgt id="700">3.68015e-12</wgt>
  <wgt id="701">4.06774e-12</wgt>
  <wgt id="702">3.95896e-12</wgt>
  <wgt id="703">4.55891e-12</wgt>
  <wgt id="704">4.37226e-12</wgt>
  <wgt id="705">4.26434e-12</wgt>
  <wgt id="706">3.87588e-12</wgt>
  <wgt id="707">3.92785e-12</wgt>
  <wgt id="708">4.01084e-12</wgt>
  <wgt id="709">3.99631e-12</wgt>
  <wgt id="710">3.74401e-12</wgt>
  <wgt id="711">4.06429e-12</wgt>
  <wgt id="712">4.00051e-12</wgt>
  <wgt id="713">4.32413e-12</wgt>
  <wgt id="714">4.02961e-12</wgt>
  <wgt id="715">4.03491e-12</wgt>
  <wgt id="716">3.93251e-12</wgt>
  <wgt id="717">3.91107e-12</wgt>
  <wgt id="718">4.0438e-12</wgt>
  <wgt id="719">3.75694e-12</wgt>
  <wgt id="720">3.91417e-12</wgt>
  <wgt id="721">3.85931e-12</wgt>
  <wgt id="722">3.71733e-12</wgt>
  <wgt id="723">4.28058e-12</wgt>
  <wgt id="724">4.22353e-12</wgt>
  <wgt id="725">4.271e-12</wgt>
  <wgt id="726">4.09772e-12</wgt>
  <wgt id="727">3.99275e-12</wgt>
  <wgt id="728">4.02591e-12</wgt>
  <wgt id="729">3.83436e-12</wgt>
  <wgt id="730">4.25396e-12</wgt>
  <wgt id="731">4.01896e-12</wgt>
  <wgt id="732">4.41506e-12</wgt>
  <wgt id="733">4.02972e-12</wgt>
  <wgt id="734">4.14741e-12</wgt>
  <wgt id="735">4.10431e-12</wgt>
  <wgt id="736">4.01076e-12</wgt>
  <wgt id="737">4.12162e-12</wgt>
  <wgt id="738">3.95969e-12</wgt>
  <wgt id="739">4.07009e-12</wgt>
  <wgt id="740">4.46434e-12</wgt>
  <wgt id="741">3.67466e-12</wgt>
  <wgt id="742">4.02449e-12</wgt>
  <wgt id="743">3.96594e-12</wgt>
  <wgt id="744">3.98884e-12</wgt>
  <wgt id="745">4.18852e-12</wgt>
  <wgt id="746">4.23789e-12</wgt>
  <wgt id="747">3.76361e-12</wgt>
  <wgt id="748">4.02362e-12</wgt>
  <wgt id="749">4.26155e-12</wgt>
  <wgt id="750">4.14933e-12</wgt>
  <wgt id="751">4.18171e-12</wgt>
  <wgt id="752">3.79277e-12</wgt>
  <wgt id="753">3.87948e-12</wgt>
  <wgt id="754">4.16594e-12</wgt>
  <wgt id="755">4.08634e-12</wgt>
  <wgt id="756">4.06637e-12</wgt>
  <wgt id="757">3.80592e-12</wgt>
  <wgt id="758">4.09141e-12</wgt>
  <wgt id="759">4.16211e-12</wgt>
  <wgt id="760">4.12222e-12</wgt>
  <wgt id="761">4.27596e-12</wgt>
  <wgt id="762">4.26453e-12</wgt>
  <wgt id="763">4.0834e-12</wgt>
  <wgt id="764">4.19629e-12</wgt>
  <wgt id="765">4.1097e-12</wgt>
  <wgt id="766">4.0554e-12</wgt>
  <wgt id="767">4.13901e-12</wgt>
  <wgt id="768">3.88016e-12</wgt>
  <wgt id="769">4.28208e-12</wgt>
  <wgt id="770">4.0297e-12</wgt>
  <wgt id="771">4.67997e-12</wgt>
  <wgt id="772">3.86384e-12</wgt>
  <wgt id="773">4.05758e-12</wgt>
  <wgt id="774">3.6877e-12</wgt>
  <wgt id="775">4.22653e-12</wgt>
  <wgt id="776">4.35974e-12</wgt>
  <wgt id="777">3.9546e-12</wgt>
  <wgt id="778">3.08383e-12</wgt>
  <wgt id="779">2.62826e-12</wgt>
  <wgt id="780">2.25371e-12</wgt>
  <wgt id="781">3.19446e-12</wgt>
  <wgt id="782">3.25905e-12</wgt>
  <wgt id="783">2.677e-12</wgt>
  <wgt id="784">2.7549e-12</wgt>
  <wgt id="785">3.6711e-12</wgt>
  <wgt id="786">2.46565e-12</wgt>
  <wgt id="787">3.41374e-12</wgt>
  <wgt id="788">2.09364e-12</wgt>
  <wgt id="789">2.65042e-12</wgt>
  <wgt id="790">2.44325e-12</wgt>
  <wgt id="791">2.93755e-12</wgt>
  <wgt id="792">4.02659e-12</wgt>
  <wgt id="793">3.02314e-12</wgt>
  <wgt id="794">2.47154e-12</wgt>
  <wgt id="795">3.46581e-12</wgt>
  <wgt id="796">3.92702e-12</wgt>
  <wgt id="797">3.49549e-12</wgt>
  <wgt id="798">2.85475e-12</wgt>
  <wgt id="799">3.41441e-12</wgt>
  <wgt id="800">2.61916e-12</wgt>
  <wgt id="801">2.91382e-12</wgt>
  <wgt id="802">2.49913e-12</wgt>
  <wgt id="803">3.99233e-12</wgt>
  <wgt id="804">3.46258e-12</wgt>
  <wgt id="805">3.48592e-12</wgt>
  <wgt id="806">3.44175e-12</wgt>
  <wgt id="807">2.9795e-12</wgt>
  <wgt id="808">2.99586e-12</wgt>
  <wgt id="809">2.89538e-12</wgt>
  <wgt id="810">3.45629e-12</wgt>
  <wgt id="811">3.29681e-12</wgt>
  <wgt id="812">2.47441e-12</wgt>
  <wgt id="813">2.47098e-12</wgt>
  <wgt id="814">2.57904e-12</wgt>
  <wgt id="815">2.63877e-12</wgt>
  <wgt id="816">2.41882e-12</wgt>
  <wgt id="817">3.21253e-12</wgt>
  <wgt id="818">3.04216e-12</wgt>
  <wgt id="819">2.6514e-12</wgt>
  <wgt id="820">3.08182e-12</wgt>
  <wgt id="821">3.41535e-12</wgt>
  <wgt id="822">2.68794e-12</wgt>
  <wgt id="823">3.44754e-12</wgt>
  <wgt id="824">3.99204e-12</wgt>
  <wgt id="825">2.39594e-12</wgt>
  <wgt id="826">3.1927e-12</wgt>
  <wgt id="827">2.06346e-12</wgt>
  <wgt id="828">3.91632e-12</wgt>
  <wgt id="829">3.14487e-12</wgt>
  <wgt id="830">2.29383e-12</wgt>
  <wgt id="831">3.26438e-12</wgt>
  <wgt id="832">4.81462e-12</wgt>
  <wgt id="833">2.92221e-12</wgt>
  <wgt id="834">4.56712e-12</wgt>
  <wgt id="835">2.59622e-12</wgt>
  <wgt id="836">3.0439e-12</wgt>
  <wgt id="837">3.38338e-12</wgt>
  <wgt id="838">2.91111e-12</wgt>
  <wgt id="839">3.25479e-12</wgt>
  <wgt id="840">2.93695e-12</wgt>
  <wgt id="841">3.63352e-12</wgt>
  <wgt id="842">2.88246e-12</wgt>
  <wgt id="843">3.02233e-12</wgt>
  <wgt id="844">3.16537e-12</wgt>
  <wgt id="845">4.22221e-12</wgt>
  <wgt id="846">2.98177e-12</wgt>
  <wgt id="847">3.07847e-12</wgt>
  <wgt id="848">2.745e-12</wgt>
  <wgt id="849">3.14261e-12</wgt>
  <wgt id="850">3.82706e-12</wgt>
  <wgt id="851">3.33522e-12</wgt>
  <wgt id="852">2.65588e-12</wgt>
  <wgt id="853">3.32387e-12</wgt>
  <wgt id="854">3.65264e-12</wgt>
  <wgt id="855">3.40592e-12</wgt>
  <wgt id="856">2.33613e-12</wgt>
  <wgt id="857">3.08992e-12</wgt>
  <wgt id="858">2.99777e-12</wgt>
  <wgt id="859">2.91656e-12</wgt>
  <wgt id="860">3.24195e-12</wgt>
  <wgt id="861">2.80998e-12</wgt>
  <wgt id="862">3.09968e-12</wgt>
  <wgt id="863">3.20584e-12</wgt>
  <wgt id="864">3.21351e-12</wgt>
  <wgt id="865">4.14148e-12</wgt>
  <wgt id="866">4.56525e-12</wgt>
  <wgt id="867">3.07455e-12</wgt>
  <wgt id="868">2.9893e-12</wgt>
  <wgt id="869">2.48982e-12</wgt>
  <wgt id="870">2.61452e-12</wgt>
  <wgt id="871">2.55164e-12</wgt>
  <wgt id="872">3.54073e-12</wgt>
  <wgt id="873">2.64753e-12</wgt>
  <wgt id="874">3.19474e-12</wgt>
  <wgt id="875">2.71749e-12</wgt>
  <wgt id="876">3.5203e-12</wgt>
  <wgt id="877">3.39134e-12</wgt>
  <wgt id="878">2.7323e-12</wgt>
  <wgt id="879">4.07336e-12</wgt>
  <wgt id="880">4.13646e-12</wgt>
  <wgt id="881">4.2537e-12</wgt>
  <wgt id="882">3.92272e-12</wgt>
  <wgt id="883">3.94995e-12</wgt>
  <wgt id="884">4.17544e-12</wgt>
  <wgt id="885">4.13399e-12</wgt>
  <wgt id="886">4.03204e-12</wgt>
  <wgt id="887">4.22297e-12</wgt>
  <wgt id="888">3.91881e-12</wgt>
  <wgt id="889">4.06562e-12</wgt>
  <wgt id="890">4.19759e-12</wgt>
  <wgt id="891">4.04147e-12</wgt>
  <wgt id="892">4.2546e-12</wgt>
  <wgt id="893">4.26478e-12</wgt>
  <wgt id="894">4.26692e-12</wgt>
  <wgt id="895">4.06953e-12</wgt>
  <wgt id="896">4.64777e-12</wgt>
  <wgt id="897">4.29771e-12</wgt>
  <wgt id="898">3.95511e-12</wgt>
  <wgt id="899">3.95672e-12</wgt>
  <wgt id="900">3.94806e-12</wgt>
  <wgt id="901">3.82516e-12</wgt>
  <wgt id="902">3.76939e-12</wgt>
  <wgt id="903">3.68015e-12</wgt>
  <wgt id="904">4.06774e-12</wgt>
  <wgt id="905">3.95896e-12</wgt>
  <wgt id="906">4.55891e-12</wgt>
  <wgt id="907">4.37226e-12</wgt>
  <wgt id="908">4.26434e-12</wgt>
  <wgt id="909">3.87588e-12</wgt>
  <wgt id="910">3.92785e-12</wgt>
  <wgt id="911">4.01084e-12</wgt>
  <wgt id="912">3.99631e-12</wgt>
  <wgt id="913">3.74401e-12</wgt>
  <wgt id="914">4.06429e-12</wgt>
  <wgt id="915">4.00051e-12</wgt>
  <wgt id="916">4.32413e-12</wgt>
  <wgt id="917">4.02961e-12</wgt>
  <wgt id="918">4.03491e-12</wgt>
  <wgt id="919">3.93251e-12</wgt>
  <wgt id="920">3.91107e-12</wgt>
  <wgt id="921">4.0438e-12</wgt>
  <wgt id="922">3.75694e-12</wgt>
  <wgt id="923">3.91417e-12</wgt>
  <wgt id="924">3.85931e-12</wgt>
  <wgt id="925">3.71733e-12</wgt>
  <wgt id="926">4.28058e-12</wgt>
  <wgt id="927">4.22353e-12</wgt>
  <wgt id="928">4.271e-12</wgt>
  <wgt id="929">4.09772e-12</wgt>
  <wgt id="930">3.99275e-12</wgt>
  <wgt id="931">4.02591e-12</wgt>
  <wgt id="932">3.83436e-12</wgt>
  <wgt id="933">4.25396e-12</wgt>
  <wgt id="934">4.01896e-12</wgt>
  <wgt id="935">4.41506e-12</wgt>
  <wgt id="936">4.02972e-12</wgt>
  <wgt id="937">4.14741e-12</wgt>
  <wgt id="938">4.10431e-12</wgt>
  <wgt id="939">4.01076e-12</wgt>
  <wgt id="940">4.12162e-12</wgt>
  <wgt id="941">3.95969e-12</wgt>
  <wgt id="942">4.07009e-12</wgt>
  <wgt id="943">4.46434e-12</wgt>
  <wgt id="944">3.67466e-12</wgt>
  <wgt id="945">4.02449e-12</wgt>
  <wgt id="946">3.96594e-12</wgt>
  <wgt id="947">3.98884e-12</wgt>
  <wgt id="948">4.18852e-12</wgt>
  <wgt id="949">4.23789e-12</wgt>
  <wgt id="950">3.76361e-12</wgt>
  <wgt id="951">4.02362e-12</wgt>
  <wgt id="952">4.26155e-12</wgt>
  <wgt id="953">4.14933e-12</wgt>
  <wgt id="954">4.18171e-12</wgt>
  <wgt id="955">3.79277e-12</wgt>
  <wgt id="956">3.87948e-12</wgt>
  <wgt id="957">4.16594e-12</wgt>
  <wgt id="958">4.08634e-12</wgt>
  <wgt id="959">4.06637e-12</wgt>
  <wgt id="960">3.80592e-12</wgt>
  <wgt id="961">4.09141e-12</wgt>
  <wgt id="962">4.16211e-12</wgt>
  <wgt id="963">4.12222e-12</wgt>
  <wgt id="964">4.27596e-12</wgt>
  <wgt id="965">4.26453e-12</wgt>
  <wgt id="966">4.0834e-12</wgt>
  <wgt id="967">4.19629e-12</wgt>
  <wgt id="968">4.1097e-12</wgt>
  <wgt id="969">4.0554e-12</wgt>
  <wgt id="970">4.13901e-12</wgt>
  <wgt id="971">3.88016e-12</wgt>
  <wgt id="972">4.28208e-12</wgt>
  <wgt id="973">4.0297e-12</wgt>
  <wgt id="974">4.67997e-12</wgt>
  <wgt id="975">3.86384e-12</wgt>
  <wgt id="976">4.05758e-12</wgt>
  <wgt id="977">3.6877e-12</wgt>
  <wgt id="978">4.22653e-12</wgt>
  <wgt id="979">4.35974e-12</wgt>
  <wgt id="980">4.07805e-12</wgt>
  <wgt id="981">4.07998e-12</wgt>
  <wgt id="982">3.95628e-12</wgt>
</rwgt>
</event>
<event>
 5   1  0.3028200E-11  0.2441085E+04  0.7818608E-02  0.7663705E-01
       21   -1    0    0  502  501  0.00000000000E+00  0.00000000000E+00  0.10611400009E+04  0.10611400009E+04  0.00000000000E+00 0.  1.
       21   -1    0    0  501  502 -0.00000000000E+00 -0.00000000000E+00 -0.14038904001E+04  0.14038904001E+04  0.00000000000E+00 0. -1.
       39    2    1    2    0    0  0.00000000000E+00  0.00000000000E+00 -0.34275039923E+03  0.24650304010E+04  0.24410852180E+04 0.  0.
       25    1    3    3    0    0  0.40305069169E+03 -0.78482322361E+03 -0.10136444313E+04  0.13496286102E+04  0.12500000000E+03 0.  0.
       25    1    3    3    0    0 -0.40305069169E+03  0.78482322361E+03  0.67089403212E+03  0.11154017907E+04  0.12500000000E+03 0.  0.
<mgrwt>
<rscale>  0 0.24410852E+04</rscale>
<asrwt>0</asrwt>
<pdfrwt beam="1">  1       21 0.16325231E+00 0.24410852E+04</pdfrwt>
<pdfrwt beam="2">  1       21 0.21598314E+00 0.24410852E+04</pdfrwt>
<totfact> 0.89568708E+00</totfact>
</mgrwt>
<rwgt>
  <wgt id="1">3.0282e-12</wgt>
  <wgt id="2">2.62901e-12</wgt>
  <wgt id="3">3.52537e-12</wgt>
  <wgt id="4">3.0282e-12</wgt>
  <wgt id="5">2.62901e-12</wgt>
  <wgt id="6">3.52537e-12</wgt>
  <wgt id="7">3.0282e-12</wgt>
  <wgt id="8">2.62901e-12</wgt>
  <wgt id="9">3.52537e-12</wgt>
  <wgt id="10">3.14759e-12</wgt>
  <wgt id="11">3.14442e-12</wgt>
  <wgt id="12">3.14134e-12</wgt>
  <wgt id="13">3.13666e-12</wgt>
  <wgt id="14">3.15936e-12</wgt>
  <wgt id="15">3.15249e-12</wgt>
  <wgt id="16">3.14161e-12</wgt>
  <wgt id="17">3.15307e-12</wgt>
  <wgt id="18">3.14103e-12</wgt>
  <wgt id="19">3.15518e-12</wgt>
  <wgt id="20">3.138e-12</wgt>
  <wgt id="21">3.12844e-12</wgt>
  <wgt id="22">3.13604e-12</wgt>
  <wgt id="23">3.11868e-12</wgt>
  <wgt id="24">3.13334e-12</wgt>
  <wgt id="25">3.1403e-12</wgt>
  <wgt id="26">3.16097e-12</wgt>
  <wgt id="27">3.14766e-12</wgt>
  <wgt id="28">3.13334e-12</wgt>
  <wgt id="29">3.15031e-12</wgt>
  <wgt id="30">3.1404e-12</wgt>
  <wgt id="31">3.15606e-12</wgt>
  <wgt id="32">3.14383e-12</wgt>
  <wgt id="33">3.15607e-12</wgt>
  <wgt id="34">3.13745e-12</wgt>
  <wgt id="35">3.14689e-12</wgt>
  <wgt id="36">3.159e-12</wgt>
  <wgt id="37">3.13944e-12</wgt>
  <wgt id="38">3.1375e-12</wgt>
  <wgt id="39">3.17975e-12</wgt>
  <wgt id="40">3.15371e-12</wgt>
  <wgt id="41">3.14696e-12</wgt>
  <wgt id="42">3.15309e-12</wgt>
  <wgt id="43">3.14729e-12</wgt>
  <wgt id="44">3.13913e-12</wgt>
  <wgt id="45">3.15581e-12</wgt>
  <wgt id="46">3.15352e-12</wgt>
  <wgt id="47">3.13632e-12</wgt>
  <wgt id="48">3.14724e-12</wgt>
  <wgt id="49">3.15098e-12</wgt>
  <wgt id="50">3.16426e-12</wgt>
  <wgt id="51">3.16181e-12</wgt>
  <wgt id="52">3.1473e-12</wgt>
  <wgt id="53">3.12251e-12</wgt>
  <wgt id="54">3.14027e-12</wgt>
  <wgt id="55">3.14754e-12</wgt>
  <wgt id="56">3.15947e-12</wgt>
  <wgt id="57">3.15772e-12</wgt>
  <wgt id="58">3.12568e-12</wgt>
  <wgt id="59">3.13592e-12</wgt>
  <wgt id="60">3.14871e-12</wgt>
  <wgt id="61">3.137e-12</wgt>
  <wgt id="62">3.14465e-12</wgt>
  <wgt id="63">3.14936e-12</wgt>
  <wgt id="64">3.15083e-12</wgt>
  <wgt id="65">3.15149e-12</wgt>
  <wgt id="66">3.14293e-12</wgt>
  <wgt id="67">3.13938e-12</wgt>
  <wgt id="68">3.14428e-12</wgt>
  <wgt id="69">3.14763e-12</wgt>
  <wgt id="70">3.14553e-12</wgt>
  <wgt id="71">3.14738e-12</wgt>
  <wgt id="72">3.1431e-12</wgt>
  <wgt id="73">3.14985e-12</wgt>
  <wgt id="74">3.14999e-12</wgt>
  <wgt id="75">3.14434e-12</wgt>
  <wgt id="76">3.1567e-12</wgt>
  <wgt id="77">3.14691e-12</wgt>
  <wgt id="78">3.148e-12</wgt>
  <wgt id="79">3.15429e-12</wgt>
  <wgt id="80">3.13376e-12</wgt>
  <wgt id="81">3.14395e-12</wgt>
  <wgt id="82">3.14765e-12</wgt>
  <wgt id="83">3.13448e-12</wgt>
  <wgt id="84">3.14105e-12</wgt>
  <wgt id="85">3.14081e-12</wgt>
  <wgt id="86">3.15638e-12</wgt>
  <wgt id="87">3.13007e-12</wgt>
  <wgt id="88">3.15163e-12</wgt>
  <wgt id="89">3.15072e-12</wgt>
  <wgt id="90">3.15304e-12</wgt>
  <wgt id="91">3.15025e-12</wgt>
  <wgt id="92">3.15398e-12</wgt>
  <wgt id="93">3.1477e-12</wgt>
  <wgt id="94">3.14432e-12</wgt>
  <wgt id="95">3.15066e-12</wgt>
  <wgt id="96">3.15013e-12</wgt>
  <wgt id="97">3.14255e-12</wgt>
  <wgt id="98">3.14907e-12</wgt>
  <wgt id="99">3.1451e-12</wgt>
  <wgt id="100">3.15093e-12</wgt>
  <wgt id="101">3.14676e-12</wgt>
  <wgt id="102">3.14419e-12</wgt>
  <wgt id="103">3.15238e-12</wgt>
  <wgt id="104">3.14536e-12</wgt>
  <wgt id="105">3.15123e-12</wgt>
  <wgt id="106">3.143e-12</wgt>
  <wgt id="107">3.15668e-12</wgt>
  <wgt id="108">3.1442e-12</wgt>
  <wgt id="109">3.14838e-12</wgt>
  <wgt id="110">3.14745e-12</wgt>
  <wgt id="111">3.17548e-12</wgt>
  <wgt id="112">3.14944e-12</wgt>
  <wgt id="113">4.29699e-12</wgt>
  <wgt id="114">4.40635e-12</wgt>
  <wgt id="115">4.34467e-12</wgt>
  <wgt id="116">6.18752e-12</wgt>
  <wgt id="117">3.53274e-12</wgt>
  <wgt id="118">3.54581e-12</wgt>
  <wgt id="119">3.52528e-12</wgt>
  <wgt id="120">3.53299e-12</wgt>
  <wgt id="121">3.53261e-12</wgt>
  <wgt id="122">3.52657e-12</wgt>
  <wgt id="123">3.54104e-12</wgt>
  <wgt id="124">3.52773e-12</wgt>
  <wgt id="125">3.53591e-12</wgt>
  <wgt id="126">3.5395e-12</wgt>
  <wgt id="127">3.52824e-12</wgt>
  <wgt id="128">3.5438e-12</wgt>
  <wgt id="129">3.52176e-12</wgt>
  <wgt id="130">3.55348e-12</wgt>
  <wgt id="131">3.51155e-12</wgt>
  <wgt id="132">3.43883e-12</wgt>
  <wgt id="133">3.64412e-12</wgt>
  <wgt id="134">3.49369e-12</wgt>
  <wgt id="135">3.56333e-12</wgt>
  <wgt id="136">3.57978e-12</wgt>
  <wgt id="137">3.47577e-12</wgt>
  <wgt id="138">3.67476e-12</wgt>
  <wgt id="139">3.39586e-12</wgt>
  <wgt id="140">3.50989e-12</wgt>
  <wgt id="141">3.5505e-12</wgt>
  <wgt id="142">3.53314e-12</wgt>
  <wgt id="143">3.53826e-12</wgt>
  <wgt id="144">3.4248e-12</wgt>
  <wgt id="145">3.63373e-12</wgt>
  <wgt id="146">3.56729e-12</wgt>
  <wgt id="147">3.50517e-12</wgt>
  <wgt id="148">3.54406e-12</wgt>
  <wgt id="149">3.53191e-12</wgt>
  <wgt id="150">3.56389e-12</wgt>
  <wgt id="151">3.51823e-12</wgt>
  <wgt id="152">3.53453e-12</wgt>
  <wgt id="153">3.53202e-12</wgt>
  <wgt id="154">3.55898e-12</wgt>
  <wgt id="155">3.50077e-12</wgt>
  <wgt id="156">3.61089e-12</wgt>
  <wgt id="157">3.45302e-12</wgt>
  <wgt id="158">4.24839e-12</wgt>
  <wgt id="159">4.26631e-12</wgt>
  <wgt id="160">4.23422e-12</wgt>
  <wgt id="161">4.23735e-12</wgt>
  <wgt id="162">4.26107e-12</wgt>
  <wgt id="163">4.24359e-12</wgt>
  <wgt id="164">4.25576e-12</wgt>
  <wgt id="165">4.2501e-12</wgt>
  <wgt id="166">4.24722e-12</wgt>
  <wgt id="167">4.24537e-12</wgt>
  <wgt id="168">4.25292e-12</wgt>
  <wgt id="169">4.23045e-12</wgt>
  <wgt id="170">4.25979e-12</wgt>
  <wgt id="171">4.24364e-12</wgt>
  <wgt id="172">4.25538e-12</wgt>
  <wgt id="173">4.24753e-12</wgt>
  <wgt id="174">4.24875e-12</wgt>
  <wgt id="175">4.12604e-12</wgt>
  <wgt id="176">4.40854e-12</wgt>
  <wgt id="177">4.27211e-12</wgt>
  <wgt id="178">4.22685e-12</wgt>
  <wgt id="179">4.4342e-12</wgt>
  <wgt id="180">3.95652e-12</wgt>
  <wgt id="181">4.12022e-12</wgt>
  <wgt id="182">4.3332e-12</wgt>
  <wgt id="183">4.17029e-12</wgt>
  <wgt id="184">4.28737e-12</wgt>
  <wgt id="185">4.21285e-12</wgt>
  <wgt id="186">4.29228e-12</wgt>
  <wgt id="187">4.20919e-12</wgt>
  <wgt id="188">4.31935e-12</wgt>
  <wgt id="189">4.2199e-12</wgt>
  <wgt id="190">4.26016e-12</wgt>
  <wgt id="191">4.26058e-12</wgt>
  <wgt id="192">4.24131e-12</wgt>
  <wgt id="193">4.31174e-12</wgt>
  <wgt id="194">4.21729e-12</wgt>
  <wgt id="195">4.1319e-12</wgt>
  <wgt id="196">4.45058e-12</wgt>
  <wgt id="197">4.2704e-12</wgt>
  <wgt id="198">4.24334e-12</wgt>
  <wgt id="199">4.24839e-12</wgt>
  <wgt id="200">4.28583e-12</wgt>
  <wgt id="201">4.2724e-12</wgt>
  <wgt id="202">4.2591e-12</wgt>
  <wgt id="203">4.23933e-12</wgt>
  <wgt id="204">4.22988e-12</wgt>
  <wgt id="205">4.2223e-12</wgt>
  <wgt id="206">4.11157e-12</wgt>
  <wgt id="207">4.1358e-12</wgt>
  <wgt id="208">4.08775e-12</wgt>
  <wgt id="209">4.12533e-12</wgt>
  <wgt id="210">4.10181e-12</wgt>
  <wgt id="211">4.11005e-12</wgt>
  <wgt id="212">4.11295e-12</wgt>
  <wgt id="213">4.11136e-12</wgt>
  <wgt id="214">4.1122e-12</wgt>
  <wgt id="215">4.11492e-12</wgt>
  <wgt id="216">4.10934e-12</wgt>
  <wgt id="217">4.12367e-12</wgt>
  <wgt id="218">4.1023e-12</wgt>
  <wgt id="219">4.10813e-12</wgt>
  <wgt id="220">4.11393e-12</wgt>
  <wgt id="221">4.11012e-12</wgt>
  <wgt id="222">4.11549e-12</wgt>
  <wgt id="223">3.88919e-12</wgt>
  <wgt id="224">4.31457e-12</wgt>
  <wgt id="225">4.06076e-12</wgt>
  <wgt id="226">4.17577e-12</wgt>
  <wgt id="227">4.07205e-12</wgt>
  <wgt id="228">4.12904e-12</wgt>
  <wgt id="229">4.05342e-12</wgt>
  <wgt id="230">4.14072e-12</wgt>
  <wgt id="231">4.23252e-12</wgt>
  <wgt id="232">4.01254e-12</wgt>
  <wgt id="233">4.08958e-12</wgt>
  <wgt id="234">4.147e-12</wgt>
  <wgt id="235">4.01724e-12</wgt>
  <wgt id="236">4.19694e-12</wgt>
  <wgt id="237">4.04953e-12</wgt>
  <wgt id="238">4.13283e-12</wgt>
  <wgt id="239">4.08512e-12</wgt>
  <wgt id="240">4.15973e-12</wgt>
  <wgt id="241">4.06844e-12</wgt>
  <wgt id="242">4.16395e-12</wgt>
  <wgt id="243">4.16882e-12</wgt>
  <wgt id="244">4.12973e-12</wgt>
  <wgt id="245">4.10919e-12</wgt>
  <wgt id="246">4.14087e-12</wgt>
  <wgt id="247">4.11157e-12</wgt>
  <wgt id="248">4.14812e-12</wgt>
  <wgt id="249">4.13418e-12</wgt>
  <wgt id="250">4.12131e-12</wgt>
  <wgt id="251">4.10203e-12</wgt>
  <wgt id="252">4.09289e-12</wgt>
  <wgt id="253">4.08648e-12</wgt>
  <wgt id="254">4.02689e-12</wgt>
  <wgt id="255">4.03068e-12</wgt>
  <wgt id="256">4.02265e-12</wgt>
  <wgt id="257">4.02977e-12</wgt>
  <wgt id="258">4.02476e-12</wgt>
  <wgt id="259">4.05383e-12</wgt>
  <wgt id="260">4.00085e-12</wgt>
  <wgt id="261">4.03331e-12</wgt>
  <wgt id="262">4.01902e-12</wgt>
  <wgt id="263">4.02475e-12</wgt>
  <wgt id="264">4.02917e-12</wgt>
  <wgt id="265">4.02189e-12</wgt>
  <wgt id="266">4.0368e-12</wgt>
  <wgt id="267">4.02814e-12</wgt>
  <wgt id="268">4.02491e-12</wgt>
  <wgt id="269">4.04044e-12</wgt>
  <wgt id="270">4.01763e-12</wgt>
  <wgt id="271">4.01992e-12</wgt>
  <wgt id="272">4.03474e-12</wgt>
  <wgt id="273">4.01406e-12</wgt>
  <wgt id="274">4.03657e-12</wgt>
  <wgt id="275">4.00942e-12</wgt>
  <wgt id="276">4.04487e-12</wgt>
  <wgt id="277">4.00343e-12</wgt>
  <wgt id="278">4.04837e-12</wgt>
  <wgt id="279">3.94757e-12</wgt>
  <wgt id="280">4.12631e-12</wgt>
  <wgt id="281">4.00853e-12</wgt>
  <wgt id="282">4.02806e-12</wgt>
  <wgt id="283">3.9086e-12</wgt>
  <wgt id="284">4.17258e-12</wgt>
  <wgt id="285">3.83127e-12</wgt>
  <wgt id="286">4.18888e-12</wgt>
  <wgt id="287">4.03976e-12</wgt>
  <wgt id="288">4.01043e-12</wgt>
  <wgt id="289">4.05571e-12</wgt>
  <wgt id="290">3.96009e-12</wgt>
  <wgt id="291">4.01525e-12</wgt>
  <wgt id="292">4.02947e-12</wgt>
  <wgt id="293">3.99515e-12</wgt>
  <wgt id="294">4.0583e-12</wgt>
  <wgt id="295">3.94934e-12</wgt>
  <wgt id="296">4.12141e-12</wgt>
  <wgt id="297">4.02545e-12</wgt>
  <wgt id="298">4.04305e-12</wgt>
  <wgt id="299">4.01351e-12</wgt>
  <wgt id="300">4.06203e-12</wgt>
  <wgt id="301">3.96556e-12</wgt>
  <wgt id="302">4.17725e-12</wgt>
  <wgt id="303">3.99393e-12</wgt>
  <wgt id="304">4.04564e-12</wgt>
  <wgt id="305">4.03576e-12</wgt>
  <wgt id="306">4.04002e-12</wgt>
  <wgt id="307">4.03126e-12</wgt>
  <wgt id="308">4.03914e-12</wgt>
  <wgt id="309">4.03364e-12</wgt>
  <wgt id="310">4.06387e-12</wgt>
  <wgt id="311">4.00979e-12</wgt>
  <wgt id="312">4.04128e-12</wgt>
  <wgt id="313">4.03018e-12</wgt>
  <wgt id="314">4.03379e-12</wgt>
  <wgt id="315">4.0377e-12</wgt>
  <wgt id="316">4.03098e-12</wgt>
  <wgt id="317">4.04621e-12</wgt>
  <wgt id="318">4.03894e-12</wgt>
  <wgt id="319">4.03044e-12</wgt>
  <wgt id="320">4.05014e-12</wgt>
  <wgt id="321">4.02785e-12</wgt>
  <wgt id="322">4.0268e-12</wgt>
  <wgt id="323">4.04628e-12</wgt>
  <wgt id="324">4.02515e-12</wgt>
  <wgt id="325">4.0451e-12</wgt>
  <wgt id="326">4.02178e-12</wgt>
  <wgt id="327">4.05376e-12</wgt>
  <wgt id="328">4.01479e-12</wgt>
  <wgt id="329">4.0476e-12</wgt>
  <wgt id="330">4.1572e-12</wgt>
  <wgt id="331">3.92019e-12</wgt>
  <wgt id="332">4.02038e-12</wgt>
  <wgt id="333">4.03626e-12</wgt>
  <wgt id="334">3.94305e-12</wgt>
  <wgt id="335">4.15106e-12</wgt>
  <wgt id="336">3.89383e-12</wgt>
  <wgt id="337">4.20879e-12</wgt>
  <wgt id="338">4.08136e-12</wgt>
  <wgt id="339">3.99365e-12</wgt>
  <wgt id="340">4.06291e-12</wgt>
  <wgt id="341">3.96606e-12</wgt>
  <wgt id="342">4.02757e-12</wgt>
  <wgt id="343">4.03171e-12</wgt>
  <wgt id="344">4.00713e-12</wgt>
  <wgt id="345">4.06899e-12</wgt>
  <wgt id="346">3.95531e-12</wgt>
  <wgt id="347">4.1285e-12</wgt>
  <wgt id="348">4.03589e-12</wgt>
  <wgt id="349">4.04955e-12</wgt>
  <wgt id="350">4.01907e-12</wgt>
  <wgt id="351">4.07811e-12</wgt>
  <wgt id="352">3.96826e-12</wgt>
  <wgt id="353">4.19239e-12</wgt>
  <wgt id="354">3.98569e-12</wgt>
  <wgt id="355">4.06623e-12</wgt>
  <wgt id="356">4.02689e-12</wgt>
  <wgt id="357">4.05143e-12</wgt>
  <wgt id="358">4.03576e-12</wgt>
  <wgt id="359">4.04003e-12</wgt>
  <wgt id="360">4.0574e-12</wgt>
  <wgt id="361">4.04038e-12</wgt>
  <wgt id="362">4.11249e-12</wgt>
  <wgt id="363">4.10233e-12</wgt>
  <wgt id="364">4.08761e-12</wgt>
  <wgt id="365">4.07343e-12</wgt>
  <wgt id="366">4.05772e-12</wgt>
  <wgt id="367">4.02575e-12</wgt>
  <wgt id="368">4.00801e-12</wgt>
  <wgt id="369">3.98878e-12</wgt>
  <wgt id="370">4.04038e-12</wgt>
  <wgt id="371">4.05869e-12</wgt>
  <wgt id="372">4.04867e-12</wgt>
  <wgt id="373">4.0337e-12</wgt>
  <wgt id="374">4.03285e-12</wgt>
  <wgt id="375">4.33186e-12</wgt>
  <wgt id="376">4.33243e-12</wgt>
  <wgt id="377">4.33097e-12</wgt>
  <wgt id="378">4.3477e-12</wgt>
  <wgt id="379">4.31599e-12</wgt>
  <wgt id="380">4.34329e-12</wgt>
  <wgt id="381">4.32725e-12</wgt>
  <wgt id="382">4.35505e-12</wgt>
  <wgt id="383">4.30876e-12</wgt>
  <wgt id="384">4.3347e-12</wgt>
  <wgt id="385">4.32907e-12</wgt>
  <wgt id="386">4.34985e-12</wgt>
  <wgt id="387">4.32398e-12</wgt>
  <wgt id="388">4.32751e-12</wgt>
  <wgt id="389">4.33689e-12</wgt>
  <wgt id="390">4.34388e-12</wgt>
  <wgt id="391">4.31916e-12</wgt>
  <wgt id="392">4.2969e-12</wgt>
  <wgt id="393">4.35169e-12</wgt>
  <wgt id="394">4.33792e-12</wgt>
  <wgt id="395">4.3235e-12</wgt>
  <wgt id="396">4.33547e-12</wgt>
  <wgt id="397">4.3293e-12</wgt>
  <wgt id="398">4.31228e-12</wgt>
  <wgt id="399">4.35078e-12</wgt>
  <wgt id="400">4.32419e-12</wgt>
  <wgt id="401">4.34906e-12</wgt>
  <wgt id="402">4.29528e-12</wgt>
  <wgt id="403">4.3484e-12</wgt>
  <wgt id="404">4.43499e-12</wgt>
  <wgt id="405">4.08341e-12</wgt>
  <wgt id="406">4.25783e-12</wgt>
  <wgt id="407">4.49257e-12</wgt>
  <wgt id="408">4.36986e-12</wgt>
  <wgt id="409">4.2593e-12</wgt>
  <wgt id="410">4.21083e-12</wgt>
  <wgt id="411">4.38808e-12</wgt>
  <wgt id="412">4.32388e-12</wgt>
  <wgt id="413">4.34373e-12</wgt>
  <wgt id="414">4.28346e-12</wgt>
  <wgt id="415">4.36947e-12</wgt>
  <wgt id="416">4.4511e-12</wgt>
  <wgt id="417">4.16725e-12</wgt>
  <wgt id="418">4.3378e-12</wgt>
  <wgt id="419">4.29971e-12</wgt>
  <wgt id="420">4.40297e-12</wgt>
  <wgt id="421">4.29012e-12</wgt>
  <wgt id="422">4.32263e-12</wgt>
  <wgt id="423">4.33694e-12</wgt>
  <wgt id="424">4.42561e-12</wgt>
  <wgt id="425">4.27232e-12</wgt>
  <wgt id="426">4.33186e-12</wgt>
  <wgt id="427">4.28995e-12</wgt>
  <wgt id="428">4.45286e-12</wgt>
  <wgt id="429">4.37328e-12</wgt>
  <wgt id="430">4.49852e-12</wgt>
  <wgt id="431">4.4734e-12</wgt>
  <wgt id="432">4.44983e-12</wgt>
  <wgt id="433">4.42694e-12</wgt>
  <wgt id="434">4.39907e-12</wgt>
  <wgt id="435">4.3412e-12</wgt>
  <wgt id="436">4.3116e-12</wgt>
  <wgt id="437">4.28325e-12</wgt>
  <wgt id="438">4.37328e-12</wgt>
  <wgt id="439">4.38775e-12</wgt>
  <wgt id="440">4.37922e-12</wgt>
  <wgt id="441">4.36892e-12</wgt>
  <wgt id="442">4.36524e-12</wgt>
  <wgt id="443">4.21599e-12</wgt>
  <wgt id="444">4.2412e-12</wgt>
  <wgt id="445">4.19891e-12</wgt>
  <wgt id="446">4.18849e-12</wgt>
  <wgt id="447">4.20079e-12</wgt>
  <wgt id="448">4.10204e-12</wgt>
  <wgt id="449">4.28309e-12</wgt>
  <wgt id="450">4.20229e-12</wgt>
  <wgt id="451">4.20867e-12</wgt>
  <wgt id="452">4.31402e-12</wgt>
  <wgt id="453">4.25869e-12</wgt>
  <wgt id="454">4.04508e-12</wgt>
  <wgt id="455">4.22168e-12</wgt>
  <wgt id="456">4.18281e-12</wgt>
  <wgt id="457">4.23429e-12</wgt>
  <wgt id="458">4.26559e-12</wgt>
  <wgt id="459">4.24498e-12</wgt>
  <wgt id="460">4.24066e-12</wgt>
  <wgt id="461">4.1346e-12</wgt>
  <wgt id="462">4.17955e-12</wgt>
  <wgt id="463">4.16833e-12</wgt>
  <wgt id="464">4.19061e-12</wgt>
  <wgt id="465">4.26252e-12</wgt>
  <wgt id="466">4.16488e-12</wgt>
  <wgt id="467">4.17331e-12</wgt>
  <wgt id="468">4.20405e-12</wgt>
  <wgt id="469">4.20318e-12</wgt>
  <wgt id="470">4.17726e-12</wgt>
  <wgt id="471">4.1768e-12</wgt>
  <wgt id="472">4.23666e-12</wgt>
  <wgt id="473">4.07289e-12</wgt>
  <wgt id="474">3.0282e-12</wgt>
  <wgt id="475">3.20755e-12</wgt>
  <wgt id="476">2.9589e-12</wgt>
  <wgt id="477">2.91493e-12</wgt>
  <wgt id="478">3.04324e-12</wgt>
  <wgt id="479">2.96253e-12</wgt>
  <wgt id="480">3.14537e-12</wgt>
  <wgt id="481">2.97392e-12</wgt>
  <wgt id="482">2.9238e-12</wgt>
  <wgt id="483">2.948e-12</wgt>
  <wgt id="484">3.21928e-12</wgt>
  <wgt id="485">3.01788e-12</wgt>
  <wgt id="486">3.12164e-12</wgt>
  <wgt id="487">3.09012e-12</wgt>
  <wgt id="488">3.07541e-12</wgt>
  <wgt id="489">2.92549e-12</wgt>
  <wgt id="490">2.92485e-12</wgt>
  <wgt id="491">2.99504e-12</wgt>
  <wgt id="492">2.93816e-12</wgt>
  <wgt id="493">2.91058e-12</wgt>
  <wgt id="494">2.93524e-12</wgt>
  <wgt id="495">3.09684e-12</wgt>
  <wgt id="496">2.929e-12</wgt>
  <wgt id="497">2.9045e-12</wgt>
  <wgt id="498">3.07808e-12</wgt>
  <wgt id="499">2.95735e-12</wgt>
  <wgt id="500">2.98097e-12</wgt>
  <wgt id="501">3.17125e-12</wgt>
  <wgt id="502">2.95956e-12</wgt>
  <wgt id="503">3.02751e-12</wgt>
  <wgt id="504">3.06323e-12</wgt>
  <wgt id="505">3.0068e-12</wgt>
  <wgt id="506">3.09206e-12</wgt>
  <wgt id="507">3.00475e-12</wgt>
  <wgt id="508">3.07589e-12</wgt>
  <wgt id="509">2.93473e-12</wgt>
  <wgt id="510">3.11462e-12</wgt>
  <wgt id="511">2.96683e-12</wgt>
  <wgt id="512">3.08292e-12</wgt>
  <wgt id="513">3.17276e-12</wgt>
  <wgt id="514">3.01323e-12</wgt>
  <wgt id="515">2.98977e-12</wgt>
  <wgt id="516">3.12412e-12</wgt>
  <wgt id="517">3.09089e-12</wgt>
  <wgt id="518">3.09711e-12</wgt>
  <wgt id="519">2.93553e-12</wgt>
  <wgt id="520">3.0656e-12</wgt>
  <wgt id="521">3.12744e-12</wgt>
  <wgt id="522">3.14823e-12</wgt>
  <wgt id="523">3.09403e-12</wgt>
  <wgt id="524">3.06685e-12</wgt>
  <wgt id="525">3.12927e-12</wgt>
  <wgt id="526">3.04841e-12</wgt>
  <wgt id="527">3.06906e-12</wgt>
  <wgt id="528">3.04987e-12</wgt>
  <wgt id="529">2.97035e-12</wgt>
  <wgt id="530">3.0672e-12</wgt>
  <wgt id="531">2.99638e-12</wgt>
  <wgt id="532">3.20651e-12</wgt>
  <wgt id="533">2.85321e-12</wgt>
  <wgt id="534">3.04216e-12</wgt>
  <wgt id="535">3.08885e-12</wgt>
  <wgt id="536">3.00803e-12</wgt>
  <wgt id="537">3.03576e-12</wgt>
  <wgt id="538">3.05814e-12</wgt>
  <wgt id="539">2.97482e-12</wgt>
  <wgt id="540">2.96652e-12</wgt>
  <wgt id="541">2.93451e-12</wgt>
  <wgt id="542">2.98243e-12</wgt>
  <wgt id="543">3.02196e-12</wgt>
  <wgt id="544">3.1758e-12</wgt>
  <wgt id="545">2.98722e-12</wgt>
  <wgt id="546">2.98265e-12</wgt>
  <wgt id="547">2.93634e-12</wgt>
  <wgt id="548">2.90448e-12</wgt>
  <wgt id="549">2.973e-12</wgt>
  <wgt id="550">2.99304e-12</wgt>
  <wgt id="551">3.0569e-12</wgt>
  <wgt id="552">2.99349e-12</wgt>
  <wgt id="553">3.01591e-12</wgt>
  <wgt id="554">3.24997e-12</wgt>
  <wgt id="555">3.10339e-12</wgt>
  <wgt id="556">2.92485e-12</wgt>
  <wgt id="557">3.08286e-12</wgt>
  <wgt id="558">2.93283e-12</wgt>
  <wgt id="559">2.98428e-12</wgt>
  <wgt id="560">3.29166e-12</wgt>
  <wgt id="561">2.97523e-12</wgt>
  <wgt id="562">3.08357e-12</wgt>
  <wgt id="563">2.94623e-12</wgt>
  <wgt id="564">3.03809e-12</wgt>
  <wgt id="565">2.91335e-12</wgt>
  <wgt id="566">3.08071e-12</wgt>
  <wgt id="567">2.98853e-12</wgt>
  <wgt id="568">3.01173e-12</wgt>
  <wgt id="569">3.09235e-12</wgt>
  <wgt id="570">2.92276e-12</wgt>
  <wgt id="571">3.35958e-12</wgt>
  <wgt id="572">2.95718e-12</wgt>
  <wgt id="573">2.89646e-12</wgt>
  <wgt id="574">2.92105e-12</wgt>
  <wgt id="575">3.34204e-12</wgt>
  <wgt id="576">3.32883e-12</wgt>
  <wgt id="577">3.42527e-12</wgt>
  <wgt id="578">3.43821e-12</wgt>
  <wgt id="579">3.40875e-12</wgt>
  <wgt id="580">3.41605e-12</wgt>
  <wgt id="581">3.56779e-12</wgt>
  <wgt id="582">3.32079e-12</wgt>
  <wgt id="583">3.37995e-12</wgt>
  <wgt id="584">3.34599e-12</wgt>
  <wgt id="585">3.35595e-12</wgt>
  <wgt id="586">3.26384e-12</wgt>
  <wgt id="587">3.39298e-12</wgt>
  <wgt id="588">3.33076e-12</wgt>
  <wgt id="589">3.42055e-12</wgt>
  <wgt id="590">3.39715e-12</wgt>
  <wgt id="591">3.46555e-12</wgt>
  <wgt id="592">3.25647e-12</wgt>
  <wgt id="593">3.32609e-12</wgt>
  <wgt id="594">3.42942e-12</wgt>
  <wgt id="595">3.33561e-12</wgt>
  <wgt id="596">3.37532e-12</wgt>
  <wgt id="597">3.25047e-12</wgt>
  <wgt id="598">3.23143e-12</wgt>
  <wgt id="599">3.51731e-12</wgt>
  <wgt id="600">3.31313e-12</wgt>
  <wgt id="601">3.24775e-12</wgt>
  <wgt id="602">3.26465e-12</wgt>
  <wgt id="603">3.27035e-12</wgt>
  <wgt id="604">3.3935e-12</wgt>
  <wgt id="605">3.47516e-12</wgt>
  <wgt id="606">3.27515e-12</wgt>
  <wgt id="607">3.30591e-12</wgt>
  <wgt id="608">3.37949e-12</wgt>
  <wgt id="609">3.16808e-12</wgt>
  <wgt id="610">3.21833e-12</wgt>
  <wgt id="611">3.36479e-12</wgt>
  <wgt id="612">3.57136e-12</wgt>
  <wgt id="613">3.3272e-12</wgt>
  <wgt id="614">3.3857e-12</wgt>
  <wgt id="615">3.27631e-12</wgt>
  <wgt id="616">3.51502e-12</wgt>
  <wgt id="617">3.47125e-12</wgt>
  <wgt id="618">3.43364e-12</wgt>
  <wgt id="619">3.29662e-12</wgt>
  <wgt id="620">3.49475e-12</wgt>
  <wgt id="621">3.38446e-12</wgt>
  <wgt id="622">3.39298e-12</wgt>
  <wgt id="623">3.43924e-12</wgt>
  <wgt id="624">3.33614e-12</wgt>
  <wgt id="625">3.29943e-12</wgt>
  <wgt id="626">3.25086e-12</wgt>
  <wgt id="627">3.20186e-12</wgt>
  <wgt id="628">3.53613e-12</wgt>
  <wgt id="629">3.26608e-12</wgt>
  <wgt id="630">3.21394e-12</wgt>
  <wgt id="631">3.364e-12</wgt>
  <wgt id="632">3.21326e-12</wgt>
  <wgt id="633">3.30748e-12</wgt>
  <wgt id="634">3.32431e-12</wgt>
  <wgt id="635">3.25408e-12</wgt>
  <wgt id="636">3.36283e-12</wgt>
  <wgt id="637">3.32606e-12</wgt>
  <wgt id="638">3.21015e-12</wgt>
  <wgt id="639">3.29232e-12</wgt>
  <wgt id="640">3.34049e-12</wgt>
  <wgt id="641">3.37098e-12</wgt>
  <wgt id="642">3.19776e-12</wgt>
  <wgt id="643">3.31875e-12</wgt>
  <wgt id="644">3.19525e-12</wgt>
  <wgt id="645">3.37507e-12</wgt>
  <wgt id="646">3.37646e-12</wgt>
  <wgt id="647">3.3036e-12</wgt>
  <wgt id="648">3.36592e-12</wgt>
  <wgt id="649">3.39202e-12</wgt>
  <wgt id="650">3.27498e-12</wgt>
  <wgt id="651">3.35916e-12</wgt>
  <wgt id="652">3.31132e-12</wgt>
  <wgt id="653">3.24543e-12</wgt>
  <wgt id="654">3.31964e-12</wgt>
  <wgt id="655">3.29185e-12</wgt>
  <wgt id="656">3.36891e-12</wgt>
  <wgt id="657">3.48153e-12</wgt>
  <wgt id="658">3.34464e-12</wgt>
  <wgt id="659">3.20843e-12</wgt>
  <wgt id="660">3.40386e-12</wgt>
  <wgt id="661">3.28443e-12</wgt>
  <wgt id="662">3.34274e-12</wgt>
  <wgt id="663">3.34594e-12</wgt>
  <wgt id="664">3.29631e-12</wgt>
  <wgt id="665">3.33201e-12</wgt>
  <wgt id="666">3.30896e-12</wgt>
  <wgt id="667">3.44844e-12</wgt>
  <wgt id="668">3.34023e-12</wgt>
  <wgt id="669">3.42053e-12</wgt>
  <wgt id="670">3.41771e-12</wgt>
  <wgt id="671">3.31851e-12</wgt>
  <wgt id="672">3.20207e-12</wgt>
  <wgt id="673">3.35966e-12</wgt>
  <wgt id="674">3.27829e-12</wgt>
  <wgt id="675">3.3001e-12</wgt>
  <wgt id="676">4.23624e-12</wgt>
  <wgt id="677">4.28067e-12</wgt>
  <wgt id="678">4.44608e-12</wgt>
  <wgt id="679">3.95633e-12</wgt>
  <wgt id="680">4.14765e-12</wgt>
  <wgt id="681">4.31993e-12</wgt>
  <wgt id="682">4.3759e-12</wgt>
  <wgt id="683">4.1696e-12</wgt>
  <wgt id="684">4.43185e-12</wgt>
  <wgt id="685">4.01695e-12</wgt>
  <wgt id="686">4.13707e-12</wgt>
  <wgt id="687">4.45279e-12</wgt>
  <wgt id="688">4.21944e-12</wgt>
  <wgt id="689">4.59328e-12</wgt>
  <wgt id="690">4.44661e-12</wgt>
  <wgt id="691">4.50024e-12</wgt>
  <wgt id="692">4.18183e-12</wgt>
  <wgt id="693">5.0085e-12</wgt>
  <wgt id="694">4.49609e-12</wgt>
  <wgt id="695">4.10382e-12</wgt>
  <wgt id="696">4.00497e-12</wgt>
  <wgt id="697">4.11887e-12</wgt>
  <wgt id="698">3.86261e-12</wgt>
  <wgt id="699">3.8384e-12</wgt>
  <wgt id="700">3.68152e-12</wgt>
  <wgt id="701">4.25291e-12</wgt>
  <wgt id="702">4.1054e-12</wgt>
  <wgt id="703">4.88592e-12</wgt>
  <wgt id="704">4.64737e-12</wgt>
  <wgt id="705">4.43966e-12</wgt>
  <wgt id="706">3.94542e-12</wgt>
  <wgt id="707">4.06227e-12</wgt>
  <wgt id="708">4.17798e-12</wgt>
  <wgt id="709">4.15979e-12</wgt>
  <wgt id="710">3.80439e-12</wgt>
  <wgt id="711">4.20933e-12</wgt>
  <wgt id="712">4.15504e-12</wgt>
  <wgt id="713">4.5986e-12</wgt>
  <wgt id="714">4.15217e-12</wgt>
  <wgt id="715">4.19013e-12</wgt>
  <wgt id="716">4.07139e-12</wgt>
  <wgt id="717">4.0237e-12</wgt>
  <wgt id="718">4.23804e-12</wgt>
  <wgt id="719">3.8366e-12</wgt>
  <wgt id="720">3.98546e-12</wgt>
  <wgt id="721">3.86952e-12</wgt>
  <wgt id="722">3.73179e-12</wgt>
  <wgt id="723">4.53307e-12</wgt>
  <wgt id="724">4.44788e-12</wgt>
  <wgt id="725">4.47017e-12</wgt>
  <wgt id="726">4.27524e-12</wgt>
  <wgt id="727">4.13865e-12</wgt>
  <wgt id="728">4.13304e-12</wgt>
  <wgt id="729">3.87175e-12</wgt>
  <wgt id="730">4.59741e-12</wgt>
  <wgt id="731">4.18079e-12</wgt>
  <wgt id="732">4.67098e-12</wgt>
  <wgt id="733">4.22498e-12</wgt>
  <wgt id="734">4.34216e-12</wgt>
  <wgt id="735">4.2197e-12</wgt>
  <wgt id="736">4.14427e-12</wgt>
  <wgt id="737">4.30411e-12</wgt>
  <wgt id="738">4.00938e-12</wgt>
  <wgt id="739">4.32187e-12</wgt>
  <wgt id="740">4.72152e-12</wgt>
  <wgt id="741">3.78214e-12</wgt>
  <wgt id="742">4.16908e-12</wgt>
  <wgt id="743">4.02441e-12</wgt>
  <wgt id="744">4.14919e-12</wgt>
  <wgt id="745">4.44492e-12</wgt>
  <wgt id="746">4.52473e-12</wgt>
  <wgt id="747">3.81234e-12</wgt>
  <wgt id="748">4.18497e-12</wgt>
  <wgt id="749">4.45714e-12</wgt>
  <wgt id="750">4.33164e-12</wgt>
  <wgt id="751">4.36648e-12</wgt>
  <wgt id="752">3.87072e-12</wgt>
  <wgt id="753">4.02116e-12</wgt>
  <wgt id="754">4.4522e-12</wgt>
  <wgt id="755">4.2471e-12</wgt>
  <wgt id="756">4.26277e-12</wgt>
  <wgt id="757">3.88105e-12</wgt>
  <wgt id="758">4.26695e-12</wgt>
  <wgt id="759">4.35127e-12</wgt>
  <wgt id="760">4.27732e-12</wgt>
  <wgt id="761">4.46863e-12</wgt>
  <wgt id="762">4.50301e-12</wgt>
  <wgt id="763">4.21435e-12</wgt>
  <wgt id="764">4.41416e-12</wgt>
  <wgt id="765">4.32448e-12</wgt>
  <wgt id="766">4.23291e-12</wgt>
  <wgt id="767">4.35024e-12</wgt>
  <wgt id="768">3.98394e-12</wgt>
  <wgt id="769">4.50102e-12</wgt>
  <wgt id="770">4.10738e-12</wgt>
  <wgt id="771">5.03593e-12</wgt>
  <wgt id="772">4.00219e-12</wgt>
  <wgt id="773">4.20019e-12</wgt>
  <wgt id="774">3.73522e-12</wgt>
  <wgt id="775">4.48043e-12</wgt>
  <wgt id="776">4.63586e-12</wgt>
  <wgt id="777">3.99895e-12</wgt>
  <wgt id="778">3.09133e-12</wgt>
  <wgt id="779">2.52502e-12</wgt>
  <wgt id="780">2.00794e-12</wgt>
  <wgt id="781">3.20856e-12</wgt>
  <wgt id="782">3.28928e-12</wgt>
  <wgt id="783">2.54503e-12</wgt>
  <wgt id="784">2.66607e-12</wgt>
  <wgt id="785">3.81249e-12</wgt>
  <wgt id="786">2.34959e-12</wgt>
  <wgt id="787">3.56427e-12</wgt>
  <wgt id="788">1.85687e-12</wgt>
  <wgt id="789">2.45132e-12</wgt>
  <wgt id="790">2.31122e-12</wgt>
  <wgt id="791">2.91937e-12</wgt>
  <wgt id="792">4.05469e-12</wgt>
  <wgt id="793">3.02775e-12</wgt>
  <wgt id="794">2.29906e-12</wgt>
  <wgt id="795">3.69064e-12</wgt>
  <wgt id="796">4.10852e-12</wgt>
  <wgt id="797">3.63836e-12</wgt>
  <wgt id="798">2.81533e-12</wgt>
  <wgt id="799">3.55608e-12</wgt>
  <wgt id="800">2.48373e-12</wgt>
  <wgt id="801">2.8649e-12</wgt>
  <wgt id="802">2.30793e-12</wgt>
  <wgt id="803">4.07671e-12</wgt>
  <wgt id="804">3.65991e-12</wgt>
  <wgt id="805">3.72333e-12</wgt>
  <wgt id="806">3.44654e-12</wgt>
  <wgt id="807">2.9303e-12</wgt>
  <wgt id="808">2.99894e-12</wgt>
  <wgt id="809">2.83928e-12</wgt>
  <wgt id="810">3.51198e-12</wgt>
  <wgt id="811">3.38784e-12</wgt>
  <wgt id="812">2.2861e-12</wgt>
  <wgt id="813">2.35841e-12</wgt>
  <wgt id="814">2.63494e-12</wgt>
  <wgt id="815">2.52753e-12</wgt>
  <wgt id="816">2.21371e-12</wgt>
  <wgt id="817">3.23828e-12</wgt>
  <wgt id="818">3.11359e-12</wgt>
  <wgt id="819">2.51865e-12</wgt>
  <wgt id="820">3.08824e-12</wgt>
  <wgt id="821">3.60193e-12</wgt>
  <wgt id="822">2.50982e-12</wgt>
  <wgt id="823">3.63449e-12</wgt>
  <wgt id="824">4.20651e-12</wgt>
  <wgt id="825">2.22095e-12</wgt>
  <wgt id="826">3.31499e-12</wgt>
  <wgt id="827">1.81077e-12</wgt>
  <wgt id="828">3.97241e-12</wgt>
  <wgt id="829">3.23371e-12</wgt>
  <wgt id="830">2.101e-12</wgt>
  <wgt id="831">3.36076e-12</wgt>
  <wgt id="832">5.16913e-12</wgt>
  <wgt id="833">2.84142e-12</wgt>
  <wgt id="834">4.82912e-12</wgt>
  <wgt id="835">2.47973e-12</wgt>
  <wgt id="836">3.0447e-12</wgt>
  <wgt id="837">3.55287e-12</wgt>
  <wgt id="838">2.92962e-12</wgt>
  <wgt id="839">3.33429e-12</wgt>
  <wgt id="840">2.85695e-12</wgt>
  <wgt id="841">3.88968e-12</wgt>
  <wgt id="842">2.78011e-12</wgt>
  <wgt id="843">3.06639e-12</wgt>
  <wgt id="844">3.25403e-12</wgt>
  <wgt id="845">4.45186e-12</wgt>
  <wgt id="846">2.91437e-12</wgt>
  <wgt id="847">3.15933e-12</wgt>
  <wgt id="848">2.60965e-12</wgt>
  <wgt id="849">3.184e-12</wgt>
  <wgt id="850">4.123e-12</wgt>
  <wgt id="851">3.4163e-12</wgt>
  <wgt id="852">2.58681e-12</wgt>
  <wgt id="853">3.43187e-12</wgt>
  <wgt id="854">3.82187e-12</wgt>
  <wgt id="855">3.64923e-12</wgt>
  <wgt id="856">2.15596e-12</wgt>
  <wgt id="857">3.07395e-12</wgt>
  <wgt id="858">3.0537e-12</wgt>
  <wgt id="859">2.867e-12</wgt>
  <wgt id="860">3.38876e-12</wgt>
  <wgt id="861">2.67487e-12</wgt>
  <wgt id="862">3.16051e-12</wgt>
  <wgt id="863">3.30828e-12</wgt>
  <wgt id="864">3.31189e-12</wgt>
  <wgt id="865">4.54467e-12</wgt>
  <wgt id="866">4.97398e-12</wgt>
  <wgt id="867">3.18083e-12</wgt>
  <wgt id="868">3.08574e-12</wgt>
  <wgt id="869">2.3454e-12</wgt>
  <wgt id="870">2.47153e-12</wgt>
  <wgt id="871">2.3941e-12</wgt>
  <wgt id="872">3.77171e-12</wgt>
  <wgt id="873">2.51463e-12</wgt>
  <wgt id="874">3.28362e-12</wgt>
  <wgt id="875">2.66558e-12</wgt>
  <wgt id="876">3.77761e-12</wgt>
  <wgt id="877">3.59539e-12</wgt>
  <wgt id="878">2.60334e-12</wgt>
  <wgt id="879">4.23624e-12</wgt>
  <wgt id="880">4.28067e-12</wgt>
  <wgt id="881">4.44608e-12</wgt>
  <wgt id="882">3.95633e-12</wgt>
  <wgt id="883">4.14765e-12</wgt>
  <wgt id="884">4.31993e-12</wgt>
  <wgt id="885">4.3759e-12</wgt>
  <wgt id="886">4.1696e-12</wgt>
  <wgt id="887">4.43185e-12</wgt>
  <wgt id="888">4.01695e-12</wgt>
  <wgt id="889">4.13707e-12</wgt>
  <wgt id="890">4.45279e-12</wgt>
  <wgt id="891">4.21944e-12</wgt>
  <wgt id="892">4.59328e-12</wgt>
  <wgt id="893">4.44661e-12</wgt>
  <wgt id="894">4.50024e-12</wgt>
  <wgt id="895">4.18183e-12</wgt>
  <wgt id="896">5.0085e-12</wgt>
  <wgt id="897">4.49609e-12</wgt>
  <wgt id="898">4.10382e-12</wgt>
  <wgt id="899">4.00497e-12</wgt>
  <wgt id="900">4.11887e-12</wgt>
  <wgt id="901">3.86261e-12</wgt>
  <wgt id="902">3.8384e-12</wgt>
  <wgt id="903">3.68152e-12</wgt>
  <wgt id="904">4.25291e-12</wgt>
  <wgt id="905">4.1054e-12</wgt>
  <wgt id="906">4.88592e-12</wgt>
  <wgt id="907">4.64737e-12</wgt>
  <wgt id="908">4.43966e-12</wgt>
  <wgt id="909">3.94542e-12</wgt>
  <wgt id="910">4.06227e-12</wgt>
  <wgt id="911">4.17798e-12</wgt>
  <wgt id="912">4.15979e-12</wgt>
  <wgt id="913">3.80439e-12</wgt>
  <wgt id="914">4.20933e-12</wgt>
  <wgt id="915">4.15504e-12</wgt>
  <wgt id="916">4.5986e-12</wgt>
  <wgt id="917">4.15217e-12</wgt>
  <wgt id="918">4.19013e-12</wgt>
  <wgt id="919">4.07139e-12</wgt>
  <wgt id="920">4.0237e-12</wgt>
  <wgt id="921">4.23804e-12</wgt>
  <wgt id="922">3.8366e-12</wgt>
  <wgt id="923">3.98546e-12</wgt>
  <wgt id="924">3.86952e-12</wgt>
  <wgt id="925">3.73179e-12</wgt>
  <wgt id="926">4.53307e-12</wgt>
  <wgt id="927">4.44788e-12</wgt>
  <wgt id="928">4.47017e-12</wgt>
  <wgt id="929">4.27524e-12</wgt>
  <wgt id="930">4.13865e-12</wgt>
  <wgt id="931">4.13304e-12</wgt>
  <wgt id="932">3.87175e-12</wgt>
  <wgt id="933">4.59741e-12</wgt>
  <wgt id="934">4.18079e-12</wgt>
  <wgt id="935">4.67098e-12</wgt>
  <wgt id="936">4.22498e-12</wgt>
  <wgt id="937">4.34216e-12</wgt>
  <wgt id="938">4.2197e-12</wgt>
  <wgt id="939">4.14427e-12</wgt>
  <wgt id="940">4.30411e-12</wgt>
  <wgt id="941">4.00938e-12</wgt>
  <wgt id="942">4.32187e-12</wgt>
  <wgt id="943">4.72152e-12</wgt>
  <wgt id="944">3.78214e-12</wgt>
  <wgt id="945">4.16908e-12</wgt>
  <wgt id="946">4.02441e-12</wgt>
  <wgt id="947">4.14919e-12</wgt>
  <wgt id="948">4.44492e-12</wgt>
  <wgt id="949">4.52473e-12</wgt>
  <wgt id="950">3.81234e-12</wgt>
  <wgt id="951">4.18497e-12</wgt>
  <wgt id="952">4.45714e-12</wgt>
  <wgt id="953">4.33164e-12</wgt>
  <wgt id="954">4.36648e-12</wgt>
  <wgt id="955">3.87072e-12</wgt>
  <wgt id="956">4.02116e-12</wgt>
  <wgt id="957">4.4522e-12</wgt>
  <wgt id="958">4.2471e-12</wgt>
  <wgt id="959">4.26277e-12</wgt>
  <wgt id="960">3.88105e-12</wgt>
  <wgt id="961">4.26695e-12</wgt>
  <wgt id="962">4.35127e-12</wgt>
  <wgt id="963">4.27732e-12</wgt>
  <wgt id="964">4.46863e-12</wgt>
  <wgt id="965">4.50301e-12</wgt>
  <wgt id="966">4.21435e-12</wgt>
  <wgt id="967">4.41416e-12</wgt>
  <wgt id="968">4.32448e-12</wgt>
  <wgt id="969">4.23291e-12</wgt>
  <wgt id="970">4.35024e-12</wgt>
  <wgt id="971">3.98394e-12</wgt>
  <wgt id="972">4.50102e-12</wgt>
  <wgt id="973">4.10738e-12</wgt>
  <wgt id="974">5.03593e-12</wgt>
  <wgt id="975">4.00219e-12</wgt>
  <wgt id="976">4.20019e-12</wgt>
  <wgt id="977">3.73522e-12</wgt>
  <wgt id="978">4.48043e-12</wgt>
  <wgt id="979">4.63586e-12</wgt>
  <wgt id="980">4.23172e-12</wgt>
  <wgt id="981">4.26518e-12</wgt>
  <wgt id="982">4.11232e-12</wgt>
</rwgt>
</event>
<event>
 5   1  0.3028200E-11  0.2481086E+04  0.7818608E-02  0.7650571E-01
       21   -1    0    0  502  501  0.00000000000E+00  0.00000000000E+00  0.15929448613E+04  0.15929448613E+04  0.00000000000E+00 0. -1.
       21   -1    0    0  501  502 -0.00000000000E+00 -0.00000000000E+00 -0.96610189237E+03  0.96610189237E+03  0.00000000000E+00 0.  1.
       39    2    1    2    0    0  0.00000000000E+00  0.00000000000E+00  0.62684296895E+03  0.25590467537E+04  0.24810860888E+04 0.  0.
       25    1    3    3    0    0  0.11111148843E+04 -0.25837643508E+02  0.86701572783E+03  0.14151272530E+04  0.12500000000E+03 0.  0.
       25    1    3    3    0    0 -0.11111148843E+04  0.25837643508E+02 -0.24017275888E+03  0.11439195007E+04  0.12500000000E+03 0.  0.
<mgrwt>
<rscale>  0 0.24810861E+04</rscale>
<asrwt>0</asrwt>
<pdfrwt beam="1">  1       21 0.24506844E+00 0.24810861E+04</pdfrwt>
<pdfrwt beam="2">  1       21 0.14863106E+00 0.24810861E+04</pdfrwt>
<totfact> 0.73893885E+00</totfact>
</mgrwt>
<rwgt>
  <wgt id="1">3.0282e-12</wgt>
  <wgt id="2">2.62457e-12</wgt>
  <wgt id="3">3.5316e-12</wgt>
  <wgt id="4">3.0282e-12</wgt>
  <wgt id="5">2.62457e-12</wgt>
  <wgt id="6">3.5316e-12</wgt>
  <wgt id="7">3.0282e-12</wgt>
  <wgt id="8">2.62457e-12</wgt>
  <wgt id="9">3.5316e-12</wgt>
  <wgt id="10">3.16113e-12</wgt>
  <wgt id="11">3.15852e-12</wgt>
  <wgt id="12">3.155e-12</wgt>
  <wgt id="13">3.15081e-12</wgt>
  <wgt id="14">3.17286e-12</wgt>
  <wgt id="15">3.1663e-12</wgt>
  <wgt id="16">3.15561e-12</wgt>
  <wgt id="17">3.16885e-12</wgt>
  <wgt id="18">3.1544e-12</wgt>
  <wgt id="19">3.16939e-12</wgt>
  <wgt id="20">3.15301e-12</wgt>
  <wgt id="21">3.13966e-12</wgt>
  <wgt id="22">3.14627e-12</wgt>
  <wgt id="23">3.12796e-12</wgt>
  <wgt id="24">3.14477e-12</wgt>
  <wgt id="25">3.15265e-12</wgt>
  <wgt id="26">3.17328e-12</wgt>
  <wgt id="27">3.16003e-12</wgt>
  <wgt id="28">3.14588e-12</wgt>
  <wgt id="29">3.16351e-12</wgt>
  <wgt id="30">3.14993e-12</wgt>
  <wgt id="31">3.17177e-12</wgt>
  <wgt id="32">3.15443e-12</wgt>
  <wgt id="33">3.16912e-12</wgt>
  <wgt id="34">3.14835e-12</wgt>
  <wgt id="35">3.15732e-12</wgt>
  <wgt id="36">3.17384e-12</wgt>
  <wgt id="37">3.15256e-12</wgt>
  <wgt id="38">3.15044e-12</wgt>
  <wgt id="39">3.19839e-12</wgt>
  <wgt id="40">3.1657e-12</wgt>
  <wgt id="41">3.15987e-12</wgt>
  <wgt id="42">3.16581e-12</wgt>
  <wgt id="43">3.16026e-12</wgt>
  <wgt id="44">3.15687e-12</wgt>
  <wgt id="45">3.16935e-12</wgt>
  <wgt id="46">3.16371e-12</wgt>
  <wgt id="47">3.15722e-12</wgt>
  <wgt id="48">3.16293e-12</wgt>
  <wgt id="49">3.15785e-12</wgt>
  <wgt id="50">3.16853e-12</wgt>
  <wgt id="51">3.16839e-12</wgt>
  <wgt id="52">3.16524e-12</wgt>
  <wgt id="53">3.14374e-12</wgt>
  <wgt id="54">3.15748e-12</wgt>
  <wgt id="55">3.16127e-12</wgt>
  <wgt id="56">3.17151e-12</wgt>
  <wgt id="57">3.16718e-12</wgt>
  <wgt id="58">3.14379e-12</wgt>
  <wgt id="59">3.15196e-12</wgt>
  <wgt id="60">3.16012e-12</wgt>
  <wgt id="61">3.14511e-12</wgt>
  <wgt id="62">3.1544e-12</wgt>
  <wgt id="63">3.15978e-12</wgt>
  <wgt id="64">3.16271e-12</wgt>
  <wgt id="65">3.16415e-12</wgt>
  <wgt id="66">3.15697e-12</wgt>
  <wgt id="67">3.14887e-12</wgt>
  <wgt id="68">3.15884e-12</wgt>
  <wgt id="69">3.16099e-12</wgt>
  <wgt id="70">3.16005e-12</wgt>
  <wgt id="71">3.15943e-12</wgt>
  <wgt id="72">3.15292e-12</wgt>
  <wgt id="73">3.166e-12</wgt>
  <wgt id="74">3.16378e-12</wgt>
  <wgt id="75">3.15839e-12</wgt>
  <wgt id="76">3.17155e-12</wgt>
  <wgt id="77">3.15943e-12</wgt>
  <wgt id="78">3.15998e-12</wgt>
  <wgt id="79">3.1695e-12</wgt>
  <wgt id="80">3.14572e-12</wgt>
  <wgt id="81">3.15936e-12</wgt>
  <wgt id="82">3.16148e-12</wgt>
  <wgt id="83">3.14733e-12</wgt>
  <wgt id="84">3.15572e-12</wgt>
  <wgt id="85">3.15321e-12</wgt>
  <wgt id="86">3.1713e-12</wgt>
  <wgt id="87">3.14184e-12</wgt>
  <wgt id="88">3.16514e-12</wgt>
  <wgt id="89">3.16391e-12</wgt>
  <wgt id="90">3.16908e-12</wgt>
  <wgt id="91">3.1645e-12</wgt>
  <wgt id="92">3.16809e-12</wgt>
  <wgt id="93">3.16343e-12</wgt>
  <wgt id="94">3.15761e-12</wgt>
  <wgt id="95">3.16763e-12</wgt>
  <wgt id="96">3.16447e-12</wgt>
  <wgt id="97">3.15393e-12</wgt>
  <wgt id="98">3.16274e-12</wgt>
  <wgt id="99">3.15513e-12</wgt>
  <wgt id="100">3.16635e-12</wgt>
  <wgt id="101">3.16187e-12</wgt>
  <wgt id="102">3.15866e-12</wgt>
  <wgt id="103">3.16661e-12</wgt>
  <wgt id="104">3.15899e-12</wgt>
  <wgt id="105">3.1661e-12</wgt>
  <wgt id="106">3.15559e-12</wgt>
  <wgt id="107">3.1723e-12</wgt>
  <wgt id="108">3.1567e-12</wgt>
  <wgt id="109">3.1628e-12</wgt>
  <wgt id="110">3.16092e-12</wgt>
  <wgt id="111">3.18559e-12</wgt>
  <wgt id="112">3.17081e-12</wgt>
  <wgt id="113">4.38095e-12</wgt>
  <wgt id="114">4.41984e-12</wgt>
  <wgt id="115">4.35398e-12</wgt>
  <wgt id="116">6.22208e-12</wgt>
  <wgt id="117">3.55582e-12</wgt>
  <wgt id="118">3.56931e-12</wgt>
  <wgt id="119">3.54812e-12</wgt>
  <wgt id="120">3.55605e-12</wgt>
  <wgt id="121">3.55568e-12</wgt>
  <wgt id="122">3.54973e-12</wgt>
  <wgt id="123">3.56404e-12</wgt>
  <wgt id="124">3.55091e-12</wgt>
  <wgt id="125">3.55894e-12</wgt>
  <wgt id="126">3.56254e-12</wgt>
  <wgt id="127">3.55138e-12</wgt>
  <wgt id="128">3.56686e-12</wgt>
  <wgt id="129">3.54483e-12</wgt>
  <wgt id="130">3.57631e-12</wgt>
  <wgt id="131">3.53485e-12</wgt>
  <wgt id="132">3.45978e-12</wgt>
  <wgt id="133">3.67003e-12</wgt>
  <wgt id="134">3.51608e-12</wgt>
  <wgt id="135">3.58696e-12</wgt>
  <wgt id="136">3.60518e-12</wgt>
  <wgt id="137">3.49622e-12</wgt>
  <wgt id="138">3.7041e-12</wgt>
  <wgt id="139">3.41349e-12</wgt>
  <wgt id="140">3.53398e-12</wgt>
  <wgt id="141">3.57282e-12</wgt>
  <wgt id="142">3.55603e-12</wgt>
  <wgt id="143">3.56254e-12</wgt>
  <wgt id="144">3.43712e-12</wgt>
  <wgt id="145">3.66795e-12</wgt>
  <wgt id="146">3.5939e-12</wgt>
  <wgt id="147">3.5254e-12</wgt>
  <wgt id="148">3.56778e-12</wgt>
  <wgt id="149">3.55494e-12</wgt>
  <wgt id="150">3.58723e-12</wgt>
  <wgt id="151">3.54116e-12</wgt>
  <wgt id="152">3.55752e-12</wgt>
  <wgt id="153">3.55517e-12</wgt>
  <wgt id="154">3.5787e-12</wgt>
  <wgt id="155">3.52672e-12</wgt>
  <wgt id="156">3.64445e-12</wgt>
  <wgt id="157">3.46837e-12</wgt>
  <wgt id="158">4.2739e-12</wgt>
  <wgt id="159">4.29181e-12</wgt>
  <wgt id="160">4.25948e-12</wgt>
  <wgt id="161">4.26242e-12</wgt>
  <wgt id="162">4.28648e-12</wgt>
  <wgt id="163">4.26865e-12</wgt>
  <wgt id="164">4.2811e-12</wgt>
  <wgt id="165">4.27524e-12</wgt>
  <wgt id="166">4.27249e-12</wgt>
  <wgt id="167">4.27082e-12</wgt>
  <wgt id="168">4.27821e-12</wgt>
  <wgt id="169">4.25578e-12</wgt>
  <wgt id="170">4.28513e-12</wgt>
  <wgt id="171">4.26888e-12</wgt>
  <wgt id="172">4.28048e-12</wgt>
  <wgt id="173">4.27142e-12</wgt>
  <wgt id="174">4.27456e-12</wgt>
  <wgt id="175">4.14855e-12</wgt>
  <wgt id="176">4.43736e-12</wgt>
  <wgt id="177">4.29757e-12</wgt>
  <wgt id="178">4.25221e-12</wgt>
  <wgt id="179">4.4689e-12</wgt>
  <wgt id="180">3.96836e-12</wgt>
  <wgt id="181">4.14059e-12</wgt>
  <wgt id="182">4.36227e-12</wgt>
  <wgt id="183">4.19272e-12</wgt>
  <wgt id="184">4.31405e-12</wgt>
  <wgt id="185">4.2354e-12</wgt>
  <wgt id="186">4.32119e-12</wgt>
  <wgt id="187">4.23245e-12</wgt>
  <wgt id="188">4.34814e-12</wgt>
  <wgt id="189">4.2435e-12</wgt>
  <wgt id="190">4.28617e-12</wgt>
  <wgt id="191">4.28666e-12</wgt>
  <wgt id="192">4.26604e-12</wgt>
  <wgt id="193">4.33988e-12</wgt>
  <wgt id="194">4.24104e-12</wgt>
  <wgt id="195">4.14545e-12</wgt>
  <wgt id="196">4.49155e-12</wgt>
  <wgt id="197">4.29652e-12</wgt>
  <wgt id="198">4.26846e-12</wgt>
  <wgt id="199">4.2739e-12</wgt>
  <wgt id="200">4.31264e-12</wgt>
  <wgt id="201">4.29867e-12</wgt>
  <wgt id="202">4.28541e-12</wgt>
  <wgt id="203">4.26512e-12</wgt>
  <wgt id="204">4.25563e-12</wgt>
  <wgt id="205">4.24758e-12</wgt>
  <wgt id="206">4.13818e-12</wgt>
  <wgt id="207">4.16275e-12</wgt>
  <wgt id="208">4.11397e-12</wgt>
  <wgt id="209">4.15224e-12</wgt>
  <wgt id="210">4.12806e-12</wgt>
  <wgt id="211">4.13654e-12</wgt>
  <wgt id="212">4.13952e-12</wgt>
  <wgt id="213">4.1379e-12</wgt>
  <wgt id="214">4.13882e-12</wgt>
  <wgt id="215">4.14161e-12</wgt>
  <wgt id="216">4.1358e-12</wgt>
  <wgt id="217">4.15015e-12</wgt>
  <wgt id="218">4.12903e-12</wgt>
  <wgt id="219">4.13469e-12</wgt>
  <wgt id="220">4.14045e-12</wgt>
  <wgt id="221">4.13717e-12</wgt>
  <wgt id="222">4.14058e-12</wgt>
  <wgt id="223">3.90958e-12</wgt>
  <wgt id="224">4.34727e-12</wgt>
  <wgt id="225">4.08603e-12</wgt>
  <wgt id="226">4.2042e-12</wgt>
  <wgt id="227">4.09777e-12</wgt>
  <wgt id="228">4.15604e-12</wgt>
  <wgt id="229">4.07886e-12</wgt>
  <wgt id="230">4.16781e-12</wgt>
  <wgt id="231">4.26456e-12</wgt>
  <wgt id="232">4.03473e-12</wgt>
  <wgt id="233">4.11507e-12</wgt>
  <wgt id="234">4.17604e-12</wgt>
  <wgt id="235">4.02696e-12</wgt>
  <wgt id="236">4.23516e-12</wgt>
  <wgt id="237">4.06762e-12</wgt>
  <wgt id="238">4.16195e-12</wgt>
  <wgt id="239">4.10856e-12</wgt>
  <wgt id="240">4.19172e-12</wgt>
  <wgt id="241">4.0928e-12</wgt>
  <wgt id="242">4.19299e-12</wgt>
  <wgt id="243">4.20124e-12</wgt>
  <wgt id="244">4.15232e-12</wgt>
  <wgt id="245">4.13591e-12</wgt>
  <wgt id="246">4.16636e-12</wgt>
  <wgt id="247">4.13818e-12</wgt>
  <wgt id="248">4.17662e-12</wgt>
  <wgt id="249">4.1625e-12</wgt>
  <wgt id="250">4.14873e-12</wgt>
  <wgt id="251">4.1287e-12</wgt>
  <wgt id="252">4.11913e-12</wgt>
  <wgt id="253">4.11239e-12</wgt>
  <wgt id="254">4.04263e-12</wgt>
  <wgt id="255">4.0466e-12</wgt>
  <wgt id="256">4.03847e-12</wgt>
  <wgt id="257">4.04568e-12</wgt>
  <wgt id="258">4.0405e-12</wgt>
  <wgt id="259">4.06985e-12</wgt>
  <wgt id="260">4.01648e-12</wgt>
  <wgt id="261">4.04969e-12</wgt>
  <wgt id="262">4.03426e-12</wgt>
  <wgt id="263">4.04033e-12</wgt>
  <wgt id="264">4.04531e-12</wgt>
  <wgt id="265">4.03752e-12</wgt>
  <wgt id="266">4.05296e-12</wgt>
  <wgt id="267">4.04404e-12</wgt>
  <wgt id="268">4.04067e-12</wgt>
  <wgt id="269">4.05649e-12</wgt>
  <wgt id="270">4.03325e-12</wgt>
  <wgt id="271">4.03496e-12</wgt>
  <wgt id="272">4.05123e-12</wgt>
  <wgt id="273">4.0301e-12</wgt>
  <wgt id="274">4.05231e-12</wgt>
  <wgt id="275">4.02355e-12</wgt>
  <wgt id="276">4.06237e-12</wgt>
  <wgt id="277">4.01874e-12</wgt>
  <wgt id="278">4.06453e-12</wgt>
  <wgt id="279">3.96246e-12</wgt>
  <wgt id="280">4.14343e-12</wgt>
  <wgt id="281">4.02377e-12</wgt>
  <wgt id="282">4.04466e-12</wgt>
  <wgt id="283">3.91982e-12</wgt>
  <wgt id="284">4.19436e-12</wgt>
  <wgt id="285">3.83989e-12</wgt>
  <wgt id="286">4.21143e-12</wgt>
  <wgt id="287">4.05606e-12</wgt>
  <wgt id="288">4.02562e-12</wgt>
  <wgt id="289">4.07277e-12</wgt>
  <wgt id="290">3.97368e-12</wgt>
  <wgt id="291">4.02992e-12</wgt>
  <wgt id="292">4.0451e-12</wgt>
  <wgt id="293">4.00975e-12</wgt>
  <wgt id="294">4.07541e-12</wgt>
  <wgt id="295">3.96248e-12</wgt>
  <wgt id="296">4.14064e-12</wgt>
  <wgt id="297">4.03942e-12</wgt>
  <wgt id="298">4.06037e-12</wgt>
  <wgt id="299">4.02903e-12</wgt>
  <wgt id="300">4.07898e-12</wgt>
  <wgt id="301">3.97479e-12</wgt>
  <wgt id="302">4.20551e-12</wgt>
  <wgt id="303">4.00648e-12</wgt>
  <wgt id="304">4.06326e-12</wgt>
  <wgt id="305">4.04272e-12</wgt>
  <wgt id="306">4.04681e-12</wgt>
  <wgt id="307">4.03833e-12</wgt>
  <wgt id="308">4.04602e-12</wgt>
  <wgt id="309">4.0405e-12</wgt>
  <wgt id="310">4.07083e-12</wgt>
  <wgt id="311">4.01667e-12</wgt>
  <wgt id="312">4.04866e-12</wgt>
  <wgt id="313">4.03647e-12</wgt>
  <wgt id="314">4.04039e-12</wgt>
  <wgt id="315">4.04488e-12</wgt>
  <wgt id="316">4.03776e-12</wgt>
  <wgt id="317">4.05356e-12</wgt>
  <wgt id="318">4.04588e-12</wgt>
  <wgt id="319">4.03722e-12</wgt>
  <wgt id="320">4.0574e-12</wgt>
  <wgt id="321">4.0346e-12</wgt>
  <wgt id="322">4.03321e-12</wgt>
  <wgt id="323">4.05379e-12</wgt>
  <wgt id="324">4.03224e-12</wgt>
  <wgt id="325">4.05181e-12</wgt>
  <wgt id="326">4.02738e-12</wgt>
  <wgt id="327">4.06245e-12</wgt>
  <wgt id="328">4.02148e-12</wgt>
  <wgt id="329">4.05457e-12</wgt>
  <wgt id="330">4.16499e-12</wgt>
  <wgt id="331">3.92631e-12</wgt>
  <wgt id="332">4.02694e-12</wgt>
  <wgt id="333">4.04364e-12</wgt>
  <wgt id="334">3.94689e-12</wgt>
  <wgt id="335">4.16202e-12</wgt>
  <wgt id="336">3.89617e-12</wgt>
  <wgt id="337">4.22208e-12</wgt>
  <wgt id="338">4.08975e-12</wgt>
  <wgt id="339">3.99917e-12</wgt>
  <wgt id="340">4.0708e-12</wgt>
  <wgt id="341">3.97121e-12</wgt>
  <wgt id="342">4.03347e-12</wgt>
  <wgt id="343">4.03806e-12</wgt>
  <wgt id="344">4.01304e-12</wgt>
  <wgt id="345">4.07713e-12</wgt>
  <wgt id="346">3.95955e-12</wgt>
  <wgt id="347">4.13845e-12</wgt>
  <wgt id="348">4.04075e-12</wgt>
  <wgt id="349">4.05803e-12</wgt>
  <wgt id="350">4.02561e-12</wgt>
  <wgt id="351">4.08607e-12</wgt>
  <wgt id="352">3.96906e-12</wgt>
  <wgt id="353">4.20999e-12</wgt>
  <wgt id="354">3.98818e-12</wgt>
  <wgt id="355">4.07557e-12</wgt>
  <wgt id="356">4.04263e-12</wgt>
  <wgt id="357">4.05589e-12</wgt>
  <wgt id="358">4.04272e-12</wgt>
  <wgt id="359">4.05323e-12</wgt>
  <wgt id="360">4.08153e-12</wgt>
  <wgt id="361">4.05799e-12</wgt>
  <wgt id="362">4.13307e-12</wgt>
  <wgt id="363">4.12271e-12</wgt>
  <wgt id="364">4.10654e-12</wgt>
  <wgt id="365">4.09187e-12</wgt>
  <wgt id="366">4.07588e-12</wgt>
  <wgt id="367">4.04363e-12</wgt>
  <wgt id="368">4.02525e-12</wgt>
  <wgt id="369">4.00549e-12</wgt>
  <wgt id="370">4.05799e-12</wgt>
  <wgt id="371">4.07607e-12</wgt>
  <wgt id="372">4.06615e-12</wgt>
  <wgt id="373">4.05133e-12</wgt>
  <wgt id="374">4.05162e-12</wgt>
  <wgt id="375">4.40366e-12</wgt>
  <wgt id="376">4.40433e-12</wgt>
  <wgt id="377">4.40297e-12</wgt>
  <wgt id="378">4.42008e-12</wgt>
  <wgt id="379">4.38775e-12</wgt>
  <wgt id="380">4.41554e-12</wgt>
  <wgt id="381">4.39917e-12</wgt>
  <wgt id="382">4.42762e-12</wgt>
  <wgt id="383">4.38024e-12</wgt>
  <wgt id="384">4.40669e-12</wgt>
  <wgt id="385">4.40082e-12</wgt>
  <wgt id="386">4.42193e-12</wgt>
  <wgt id="387">4.39612e-12</wgt>
  <wgt id="388">4.3994e-12</wgt>
  <wgt id="389">4.40917e-12</wgt>
  <wgt id="390">4.41602e-12</wgt>
  <wgt id="391">4.39101e-12</wgt>
  <wgt id="392">4.36655e-12</wgt>
  <wgt id="393">4.42515e-12</wgt>
  <wgt id="394">4.40957e-12</wgt>
  <wgt id="395">4.39615e-12</wgt>
  <wgt id="396">4.40865e-12</wgt>
  <wgt id="397">4.40052e-12</wgt>
  <wgt id="398">4.38545e-12</wgt>
  <wgt id="399">4.42161e-12</wgt>
  <wgt id="400">4.39609e-12</wgt>
  <wgt id="401">4.42159e-12</wgt>
  <wgt id="402">4.36535e-12</wgt>
  <wgt id="403">4.4227e-12</wgt>
  <wgt id="404">4.51434e-12</wgt>
  <wgt id="405">4.13831e-12</wgt>
  <wgt id="406">4.32473e-12</wgt>
  <wgt id="407">4.5769e-12</wgt>
  <wgt id="408">4.44469e-12</wgt>
  <wgt id="409">4.32627e-12</wgt>
  <wgt id="410">4.27451e-12</wgt>
  <wgt id="411">4.46437e-12</wgt>
  <wgt id="412">4.39531e-12</wgt>
  <wgt id="413">4.41708e-12</wgt>
  <wgt id="414">4.35207e-12</wgt>
  <wgt id="415">4.44396e-12</wgt>
  <wgt id="416">4.53288e-12</wgt>
  <wgt id="417">4.22575e-12</wgt>
  <wgt id="418">4.41036e-12</wgt>
  <wgt id="419">4.368e-12</wgt>
  <wgt id="420">4.48552e-12</wgt>
  <wgt id="421">4.35384e-12</wgt>
  <wgt id="422">4.39056e-12</wgt>
  <wgt id="423">4.41076e-12</wgt>
  <wgt id="424">4.50838e-12</wgt>
  <wgt id="425">4.33619e-12</wgt>
  <wgt id="426">4.40366e-12</wgt>
  <wgt id="427">4.35218e-12</wgt>
  <wgt id="428">4.5438e-12</wgt>
  <wgt id="429">4.4503e-12</wgt>
  <wgt id="430">4.58274e-12</wgt>
  <wgt id="431">4.55628e-12</wgt>
  <wgt id="432">4.53141e-12</wgt>
  <wgt id="433">4.50729e-12</wgt>
  <wgt id="434">4.47759e-12</wgt>
  <wgt id="435">4.41651e-12</wgt>
  <wgt id="436">4.38562e-12</wgt>
  <wgt id="437">4.35565e-12</wgt>
  <wgt id="438">4.4503e-12</wgt>
  <wgt id="439">4.46484e-12</wgt>
  <wgt id="440">4.45607e-12</wgt>
  <wgt id="441">4.44593e-12</wgt>
  <wgt id="442">4.44256e-12</wgt>
  <wgt id="443">4.23822e-12</wgt>
  <wgt id="444">4.26775e-12</wgt>
  <wgt id="445">4.23036e-12</wgt>
  <wgt id="446">4.20931e-12</wgt>
  <wgt id="447">4.22614e-12</wgt>
  <wgt id="448">4.12282e-12</wgt>
  <wgt id="449">4.31008e-12</wgt>
  <wgt id="450">4.2366e-12</wgt>
  <wgt id="451">4.22964e-12</wgt>
  <wgt id="452">4.33895e-12</wgt>
  <wgt id="453">4.28326e-12</wgt>
  <wgt id="454">4.0553e-12</wgt>
  <wgt id="455">4.2489e-12</wgt>
  <wgt id="456">4.23004e-12</wgt>
  <wgt id="457">4.25657e-12</wgt>
  <wgt id="458">4.2936e-12</wgt>
  <wgt id="459">4.27022e-12</wgt>
  <wgt id="460">4.27318e-12</wgt>
  <wgt id="461">4.14966e-12</wgt>
  <wgt id="462">4.20127e-12</wgt>
  <wgt id="463">4.18492e-12</wgt>
  <wgt id="464">4.21277e-12</wgt>
  <wgt id="465">4.28701e-12</wgt>
  <wgt id="466">4.17756e-12</wgt>
  <wgt id="467">4.19502e-12</wgt>
  <wgt id="468">4.22681e-12</wgt>
  <wgt id="469">4.2254e-12</wgt>
  <wgt id="470">4.19352e-12</wgt>
  <wgt id="471">4.19526e-12</wgt>
  <wgt id="472">4.26077e-12</wgt>
  <wgt id="473">4.08993e-12</wgt>
  <wgt id="474">3.0282e-12</wgt>
  <wgt id="475">3.16307e-12</wgt>
  <wgt id="476">2.97009e-12</wgt>
  <wgt id="477">2.9412e-12</wgt>
  <wgt id="478">3.04684e-12</wgt>
  <wgt id="479">2.94913e-12</wgt>
  <wgt id="480">3.15576e-12</wgt>
  <wgt id="481">2.99792e-12</wgt>
  <wgt id="482">2.94976e-12</wgt>
  <wgt id="483">2.95488e-12</wgt>
  <wgt id="484">3.17611e-12</wgt>
  <wgt id="485">2.97425e-12</wgt>
  <wgt id="486">3.14522e-12</wgt>
  <wgt id="487">3.06889e-12</wgt>
  <wgt id="488">3.08018e-12</wgt>
  <wgt id="489">2.89109e-12</wgt>
  <wgt id="490">2.90749e-12</wgt>
  <wgt id="491">2.99867e-12</wgt>
  <wgt id="492">2.95071e-12</wgt>
  <wgt id="493">2.89499e-12</wgt>
  <wgt id="494">2.92196e-12</wgt>
  <wgt id="495">3.08215e-12</wgt>
  <wgt id="496">2.92678e-12</wgt>
  <wgt id="497">2.89189e-12</wgt>
  <wgt id="498">3.09445e-12</wgt>
  <wgt id="499">2.97649e-12</wgt>
  <wgt id="500">2.97358e-12</wgt>
  <wgt id="501">3.17076e-12</wgt>
  <wgt id="502">2.99157e-12</wgt>
  <wgt id="503">3.0244e-12</wgt>
  <wgt id="504">3.08449e-12</wgt>
  <wgt id="505">3.03234e-12</wgt>
  <wgt id="506">3.03373e-12</wgt>
  <wgt id="507">3.01663e-12</wgt>
  <wgt id="508">3.10212e-12</wgt>
  <wgt id="509">2.88272e-12</wgt>
  <wgt id="510">3.11527e-12</wgt>
  <wgt id="511">2.95138e-12</wgt>
  <wgt id="512">3.11278e-12</wgt>
  <wgt id="513">3.17478e-12</wgt>
  <wgt id="514">3.04554e-12</wgt>
  <wgt id="515">3.00662e-12</wgt>
  <wgt id="516">3.16746e-12</wgt>
  <wgt id="517">3.09431e-12</wgt>
  <wgt id="518">3.10261e-12</wgt>
  <wgt id="519">2.92757e-12</wgt>
  <wgt id="520">3.08079e-12</wgt>
  <wgt id="521">3.10339e-12</wgt>
  <wgt id="522">3.1561e-12</wgt>
  <wgt id="523">3.04866e-12</wgt>
  <wgt id="524">3.04692e-12</wgt>
  <wgt id="525">3.11894e-12</wgt>
  <wgt id="526">3.07423e-12</wgt>
  <wgt id="527">3.0541e-12</wgt>
  <wgt id="528">3.05395e-12</wgt>
  <wgt id="529">2.96525e-12</wgt>
  <wgt id="530">3.09441e-12</wgt>
  <wgt id="531">2.98218e-12</wgt>
  <wgt id="532">3.22649e-12</wgt>
  <wgt id="533">2.88037e-12</wgt>
  <wgt id="534">3.02528e-12</wgt>
  <wgt id="535">3.06343e-12</wgt>
  <wgt id="536">3.0169e-12</wgt>
  <wgt id="537">3.01379e-12</wgt>
  <wgt id="538">3.04825e-12</wgt>
  <wgt id="539">2.97394e-12</wgt>
  <wgt id="540">3.00134e-12</wgt>
  <wgt id="541">2.93244e-12</wgt>
  <wgt id="542">2.99094e-12</wgt>
  <wgt id="543">3.00859e-12</wgt>
  <wgt id="544">3.15907e-12</wgt>
  <wgt id="545">2.96951e-12</wgt>
  <wgt id="546">2.94911e-12</wgt>
  <wgt id="547">2.94055e-12</wgt>
  <wgt id="548">2.90527e-12</wgt>
  <wgt id="549">2.97174e-12</wgt>
  <wgt id="550">2.9695e-12</wgt>
  <wgt id="551">3.06018e-12</wgt>
  <wgt id="552">2.94971e-12</wgt>
  <wgt id="553">2.99248e-12</wgt>
  <wgt id="554">3.24261e-12</wgt>
  <wgt id="555">3.10514e-12</wgt>
  <wgt id="556">2.90749e-12</wgt>
  <wgt id="557">3.09595e-12</wgt>
  <wgt id="558">2.94646e-12</wgt>
  <wgt id="559">2.97473e-12</wgt>
  <wgt id="560">3.3171e-12</wgt>
  <wgt id="561">2.9963e-12</wgt>
  <wgt id="562">3.10154e-12</wgt>
  <wgt id="563">3.01417e-12</wgt>
  <wgt id="564">3.0755e-12</wgt>
  <wgt id="565">2.93963e-12</wgt>
  <wgt id="566">3.0685e-12</wgt>
  <wgt id="567">2.99745e-12</wgt>
  <wgt id="568">2.99962e-12</wgt>
  <wgt id="569">3.08305e-12</wgt>
  <wgt id="570">2.90304e-12</wgt>
  <wgt id="571">3.36252e-12</wgt>
  <wgt id="572">2.95797e-12</wgt>
  <wgt id="573">2.90909e-12</wgt>
  <wgt id="574">2.9274e-12</wgt>
  <wgt id="575">3.35218e-12</wgt>
  <wgt id="576">3.39633e-12</wgt>
  <wgt id="577">3.43608e-12</wgt>
  <wgt id="578">3.45362e-12</wgt>
  <wgt id="579">3.44003e-12</wgt>
  <wgt id="580">3.45981e-12</wgt>
  <wgt id="581">3.60808e-12</wgt>
  <wgt id="582">3.38266e-12</wgt>
  <wgt id="583">3.391e-12</wgt>
  <wgt id="584">3.34754e-12</wgt>
  <wgt id="585">3.31143e-12</wgt>
  <wgt id="586">3.25045e-12</wgt>
  <wgt id="587">3.40648e-12</wgt>
  <wgt id="588">3.38074e-12</wgt>
  <wgt id="589">3.47324e-12</wgt>
  <wgt id="590">3.3862e-12</wgt>
  <wgt id="591">3.46909e-12</wgt>
  <wgt id="592">3.20872e-12</wgt>
  <wgt id="593">3.32268e-12</wgt>
  <wgt id="594">3.40687e-12</wgt>
  <wgt id="595">3.37235e-12</wgt>
  <wgt id="596">3.45962e-12</wgt>
  <wgt id="597">3.29135e-12</wgt>
  <wgt id="598">3.22246e-12</wgt>
  <wgt id="599">3.51932e-12</wgt>
  <wgt id="600">3.35384e-12</wgt>
  <wgt id="601">3.24972e-12</wgt>
  <wgt id="602">3.25907e-12</wgt>
  <wgt id="603">3.25363e-12</wgt>
  <wgt id="604">3.40816e-12</wgt>
  <wgt id="605">3.47129e-12</wgt>
  <wgt id="606">3.31838e-12</wgt>
  <wgt id="607">3.34671e-12</wgt>
  <wgt id="608">3.41689e-12</wgt>
  <wgt id="609">3.20492e-12</wgt>
  <wgt id="610">3.23043e-12</wgt>
  <wgt id="611">3.34152e-12</wgt>
  <wgt id="612">3.57494e-12</wgt>
  <wgt id="613">3.30645e-12</wgt>
  <wgt id="614">3.38054e-12</wgt>
  <wgt id="615">3.30387e-12</wgt>
  <wgt id="616">3.46988e-12</wgt>
  <wgt id="617">3.48699e-12</wgt>
  <wgt id="618">3.52118e-12</wgt>
  <wgt id="619">3.29673e-12</wgt>
  <wgt id="620">3.5034e-12</wgt>
  <wgt id="621">3.37191e-12</wgt>
  <wgt id="622">3.40648e-12</wgt>
  <wgt id="623">3.43819e-12</wgt>
  <wgt id="624">3.35853e-12</wgt>
  <wgt id="625">3.28663e-12</wgt>
  <wgt id="626">3.21874e-12</wgt>
  <wgt id="627">3.18017e-12</wgt>
  <wgt id="628">3.51403e-12</wgt>
  <wgt id="629">3.29186e-12</wgt>
  <wgt id="630">3.23824e-12</wgt>
  <wgt id="631">3.38522e-12</wgt>
  <wgt id="632">3.18246e-12</wgt>
  <wgt id="633">3.32395e-12</wgt>
  <wgt id="634">3.30469e-12</wgt>
  <wgt id="635">3.20945e-12</wgt>
  <wgt id="636">3.38121e-12</wgt>
  <wgt id="637">3.34543e-12</wgt>
  <wgt id="638">3.21769e-12</wgt>
  <wgt id="639">3.28641e-12</wgt>
  <wgt id="640">3.33859e-12</wgt>
  <wgt id="641">3.41048e-12</wgt>
  <wgt id="642">3.26255e-12</wgt>
  <wgt id="643">3.31779e-12</wgt>
  <wgt id="644">3.13984e-12</wgt>
  <wgt id="645">3.37913e-12</wgt>
  <wgt id="646">3.33149e-12</wgt>
  <wgt id="647">3.3235e-12</wgt>
  <wgt id="648">3.39942e-12</wgt>
  <wgt id="649">3.39351e-12</wgt>
  <wgt id="650">3.26156e-12</wgt>
  <wgt id="651">3.41407e-12</wgt>
  <wgt id="652">3.29799e-12</wgt>
  <wgt id="653">3.24877e-12</wgt>
  <wgt id="654">3.32188e-12</wgt>
  <wgt id="655">3.2943e-12</wgt>
  <wgt id="656">3.37564e-12</wgt>
  <wgt id="657">3.53807e-12</wgt>
  <wgt id="658">3.36055e-12</wgt>
  <wgt id="659">3.21694e-12</wgt>
  <wgt id="660">3.38721e-12</wgt>
  <wgt id="661">3.29031e-12</wgt>
  <wgt id="662">3.337e-12</wgt>
  <wgt id="663">3.36749e-12</wgt>
  <wgt id="664">3.31914e-12</wgt>
  <wgt id="665">3.34166e-12</wgt>
  <wgt id="666">3.30733e-12</wgt>
  <wgt id="667">3.47316e-12</wgt>
  <wgt id="668">3.34874e-12</wgt>
  <wgt id="669">3.41843e-12</wgt>
  <wgt id="670">3.45121e-12</wgt>
  <wgt id="671">3.34118e-12</wgt>
  <wgt id="672">3.21168e-12</wgt>
  <wgt id="673">3.40569e-12</wgt>
  <wgt id="674">3.28095e-12</wgt>
  <wgt id="675">3.30303e-12</wgt>
  <wgt id="676">4.28638e-12</wgt>
  <wgt id="677">4.33065e-12</wgt>
  <wgt id="678">4.53524e-12</wgt>
  <wgt id="679">4.03801e-12</wgt>
  <wgt id="680">4.23275e-12</wgt>
  <wgt id="681">4.33043e-12</wgt>
  <wgt id="682">4.44836e-12</wgt>
  <wgt id="683">4.17896e-12</wgt>
  <wgt id="684">4.48752e-12</wgt>
  <wgt id="685">4.10571e-12</wgt>
  <wgt id="686">4.1579e-12</wgt>
  <wgt id="687">4.50232e-12</wgt>
  <wgt id="688">4.23162e-12</wgt>
  <wgt id="689">4.62071e-12</wgt>
  <wgt id="690">4.47346e-12</wgt>
  <wgt id="691">4.51428e-12</wgt>
  <wgt id="692">4.21946e-12</wgt>
  <wgt id="693">5.18897e-12</wgt>
  <wgt id="694">4.58339e-12</wgt>
  <wgt id="695">4.13457e-12</wgt>
  <wgt id="696">4.06666e-12</wgt>
  <wgt id="697">4.10559e-12</wgt>
  <wgt id="698">3.82458e-12</wgt>
  <wgt id="699">3.81624e-12</wgt>
  <wgt id="700">3.71719e-12</wgt>
  <wgt id="701">4.30058e-12</wgt>
  <wgt id="702">4.17738e-12</wgt>
  <wgt id="703">5.01752e-12</wgt>
  <wgt id="704">4.74952e-12</wgt>
  <wgt id="705">4.57205e-12</wgt>
  <wgt id="706">4.00215e-12</wgt>
  <wgt id="707">4.09229e-12</wgt>
  <wgt id="708">4.21212e-12</wgt>
  <wgt id="709">4.20012e-12</wgt>
  <wgt id="710">3.84489e-12</wgt>
  <wgt id="711">4.28042e-12</wgt>
  <wgt id="712">4.16378e-12</wgt>
  <wgt id="713">4.64962e-12</wgt>
  <wgt id="714">4.13118e-12</wgt>
  <wgt id="715">4.2126e-12</wgt>
  <wgt id="716">4.12768e-12</wgt>
  <wgt id="717">4.00053e-12</wgt>
  <wgt id="718">4.31842e-12</wgt>
  <wgt id="719">3.87247e-12</wgt>
  <wgt id="720">4.08421e-12</wgt>
  <wgt id="721">3.831e-12</wgt>
  <wgt id="722">3.69353e-12</wgt>
  <wgt id="723">4.63344e-12</wgt>
  <wgt id="724">4.53385e-12</wgt>
  <wgt id="725">4.51357e-12</wgt>
  <wgt id="726">4.31303e-12</wgt>
  <wgt id="727">4.20695e-12</wgt>
  <wgt id="728">4.16003e-12</wgt>
  <wgt id="729">4.01206e-12</wgt>
  <wgt id="730">4.68485e-12</wgt>
  <wgt id="731">4.22148e-12</wgt>
  <wgt id="732">4.78442e-12</wgt>
  <wgt id="733">4.21585e-12</wgt>
  <wgt id="734">4.40145e-12</wgt>
  <wgt id="735">4.28679e-12</wgt>
  <wgt id="736">4.14881e-12</wgt>
  <wgt id="737">4.31904e-12</wgt>
  <wgt id="738">4.05472e-12</wgt>
  <wgt id="739">4.45552e-12</wgt>
  <wgt id="740">4.83016e-12</wgt>
  <wgt id="741">3.91196e-12</wgt>
  <wgt id="742">4.22535e-12</wgt>
  <wgt id="743">4.02318e-12</wgt>
  <wgt id="744">4.19973e-12</wgt>
  <wgt id="745">4.53449e-12</wgt>
  <wgt id="746">4.63192e-12</wgt>
  <wgt id="747">3.78512e-12</wgt>
  <wgt id="748">4.22064e-12</wgt>
  <wgt id="749">4.49306e-12</wgt>
  <wgt id="750">4.45714e-12</wgt>
  <wgt id="751">4.39088e-12</wgt>
  <wgt id="752">3.89999e-12</wgt>
  <wgt id="753">4.01794e-12</wgt>
  <wgt id="754">4.49963e-12</wgt>
  <wgt id="755">4.27824e-12</wgt>
  <wgt id="756">4.28431e-12</wgt>
  <wgt id="757">3.8842e-12</wgt>
  <wgt id="758">4.28556e-12</wgt>
  <wgt id="759">4.50458e-12</wgt>
  <wgt id="760">4.28646e-12</wgt>
  <wgt id="761">4.557e-12</wgt>
  <wgt id="762">4.59434e-12</wgt>
  <wgt id="763">4.26879e-12</wgt>
  <wgt id="764">4.48778e-12</wgt>
  <wgt id="765">4.35509e-12</wgt>
  <wgt id="766">4.29372e-12</wgt>
  <wgt id="767">4.39677e-12</wgt>
  <wgt id="768">4.00171e-12</wgt>
  <wgt id="769">4.5578e-12</wgt>
  <wgt id="770">4.14807e-12</wgt>
  <wgt id="771">5.13972e-12</wgt>
  <wgt id="772">4.07641e-12</wgt>
  <wgt id="773">4.24892e-12</wgt>
  <wgt id="774">3.67616e-12</wgt>
  <wgt id="775">4.5234e-12</wgt>
  <wgt id="776">4.72166e-12</wgt>
  <wgt id="777">3.99167e-12</wgt>
  <wgt id="778">3.06579e-12</wgt>
  <wgt id="779">2.38109e-12</wgt>
  <wgt id="780">1.80329e-12</wgt>
  <wgt id="781">3.3557e-12</wgt>
  <wgt id="782">3.34671e-12</wgt>
  <wgt id="783">2.3731e-12</wgt>
  <wgt id="784">2.55654e-12</wgt>
  <wgt id="785">3.95325e-12</wgt>
  <wgt id="786">2.23747e-12</wgt>
  <wgt id="787">3.61849e-12</wgt>
  <wgt id="788">1.62636e-12</wgt>
  <wgt id="789">2.39922e-12</wgt>
  <wgt id="790">2.19266e-12</wgt>
  <wgt id="791">3.01436e-12</wgt>
  <wgt id="792">4.05122e-12</wgt>
  <wgt id="793">3.00745e-12</wgt>
  <wgt id="794">2.14667e-12</wgt>
  <wgt id="795">3.77998e-12</wgt>
  <wgt id="796">4.12425e-12</wgt>
  <wgt id="797">3.72167e-12</wgt>
  <wgt id="798">2.70352e-12</wgt>
  <wgt id="799">3.58604e-12</wgt>
  <wgt id="800">2.45913e-12</wgt>
  <wgt id="801">2.8203e-12</wgt>
  <wgt id="802">2.13436e-12</wgt>
  <wgt id="803">4.34281e-12</wgt>
  <wgt id="804">3.74928e-12</wgt>
  <wgt id="805">3.78588e-12</wgt>
  <wgt id="806">3.37533e-12</wgt>
  <wgt id="807">2.90572e-12</wgt>
  <wgt id="808">2.95225e-12</wgt>
  <wgt id="809">2.80559e-12</wgt>
  <wgt id="810">3.4478e-12</wgt>
  <wgt id="811">3.34154e-12</wgt>
  <wgt id="812">2.16733e-12</wgt>
  <wgt id="813">2.27694e-12</wgt>
  <wgt id="814">2.51991e-12</wgt>
  <wgt id="815">2.3686e-12</wgt>
  <wgt id="816">2.13773e-12</wgt>
  <wgt id="817">3.17771e-12</wgt>
  <wgt id="818">3.25601e-12</wgt>
  <wgt id="819">2.37223e-12</wgt>
  <wgt id="820">3.03128e-12</wgt>
  <wgt id="821">3.61377e-12</wgt>
  <wgt id="822">2.43443e-12</wgt>
  <wgt id="823">3.67445e-12</wgt>
  <wgt id="824">4.3174e-12</wgt>
  <wgt id="825">2.06986e-12</wgt>
  <wgt id="826">3.3907e-12</wgt>
  <wgt id="827">1.68978e-12</wgt>
  <wgt id="828">3.93606e-12</wgt>
  <wgt id="829">3.20441e-12</wgt>
  <wgt id="830">1.9518e-12</wgt>
  <wgt id="831">3.38732e-12</wgt>
  <wgt id="832">5.22444e-12</wgt>
  <wgt id="833">2.73322e-12</wgt>
  <wgt id="834">4.92857e-12</wgt>
  <wgt id="835">2.40599e-12</wgt>
  <wgt id="836">2.92134e-12</wgt>
  <wgt id="837">3.55536e-12</wgt>
  <wgt id="838">2.82296e-12</wgt>
  <wgt id="839">3.357e-12</wgt>
  <wgt id="840">2.77358e-12</wgt>
  <wgt id="841">3.97944e-12</wgt>
  <wgt id="842">2.78199e-12</wgt>
  <wgt id="843">3.10781e-12</wgt>
  <wgt id="844">3.26285e-12</wgt>
  <wgt id="845">4.6372e-12</wgt>
  <wgt id="846">3.04013e-12</wgt>
  <wgt id="847">3.1596e-12</wgt>
  <wgt id="848">2.44815e-12</wgt>
  <wgt id="849">3.18559e-12</wgt>
  <wgt id="850">4.2315e-12</wgt>
  <wgt id="851">3.43581e-12</wgt>
  <wgt id="852">2.38062e-12</wgt>
  <wgt id="853">3.48576e-12</wgt>
  <wgt id="854">3.89176e-12</wgt>
  <wgt id="855">3.67359e-12</wgt>
  <wgt id="856">1.99063e-12</wgt>
  <wgt id="857">2.97748e-12</wgt>
  <wgt id="858">2.95458e-12</wgt>
  <wgt id="859">2.86096e-12</wgt>
  <wgt id="860">3.49345e-12</wgt>
  <wgt id="861">2.61829e-12</wgt>
  <wgt id="862">3.13088e-12</wgt>
  <wgt id="863">3.34094e-12</wgt>
  <wgt id="864">3.2695e-12</wgt>
  <wgt id="865">4.63519e-12</wgt>
  <wgt id="866">5.08819e-12</wgt>
  <wgt id="867">3.16194e-12</wgt>
  <wgt id="868">3.08151e-12</wgt>
  <wgt id="869">2.21171e-12</wgt>
  <wgt id="870">2.36426e-12</wgt>
  <wgt id="871">2.28868e-12</wgt>
  <wgt id="872">3.88152e-12</wgt>
  <wgt id="873">2.49226e-12</wgt>
  <wgt id="874">3.29295e-12</wgt>
  <wgt id="875">2.59357e-12</wgt>
  <wgt id="876">3.85478e-12</wgt>
  <wgt id="877">3.57543e-12</wgt>
  <wgt id="878">2.51058e-12</wgt>
  <wgt id="879">4.28638e-12</wgt>
  <wgt id="880">4.33065e-12</wgt>
  <wgt id="881">4.53524e-12</wgt>
  <wgt id="882">4.03801e-12</wgt>
  <wgt id="883">4.23275e-12</wgt>
  <wgt id="884">4.33043e-12</wgt>
  <wgt id="885">4.44836e-12</wgt>
  <wgt id="886">4.17896e-12</wgt>
  <wgt id="887">4.48752e-12</wgt>
  <wgt id="888">4.10571e-12</wgt>
  <wgt id="889">4.1579e-12</wgt>
  <wgt id="890">4.50232e-12</wgt>
  <wgt id="891">4.23162e-12</wgt>
  <wgt id="892">4.62071e-12</wgt>
  <wgt id="893">4.47346e-12</wgt>
  <wgt id="894">4.51428e-12</wgt>
  <wgt id="895">4.21946e-12</wgt>
  <wgt id="896">5.18897e-12</wgt>
  <wgt id="897">4.58339e-12</wgt>
  <wgt id="898">4.13457e-12</wgt>
  <wgt id="899">4.06666e-12</wgt>
  <wgt id="900">4.10559e-12</wgt>
  <wgt id="901">3.82458e-12</wgt>
  <wgt id="902">3.81624e-12</wgt>
  <wgt id="903">3.71719e-12</wgt>
  <wgt id="904">4.30058e-12</wgt>
  <wgt id="905">4.17738e-12</wgt>
  <wgt id="906">5.01752e-12</wgt>
  <wgt id="907">4.74952e-12</wgt>
  <wgt id="908">4.57205e-12</wgt>
  <wgt id="909">4.00215e-12</wgt>
  <wgt id="910">4.09229e-12</wgt>
  <wgt id="911">4.21212e-12</wgt>
  <wgt id="912">4.20012e-12</wgt>
  <wgt id="913">3.84489e-12</wgt>
  <wgt id="914">4.28042e-12</wgt>
  <wgt id="915">4.16378e-12</wgt>
  <wgt id="916">4.64962e-12</wgt>
  <wgt id="917">4.13118e-12</wgt>
  <wgt id="918">4.2126e-12</wgt>
  <wgt id="919">4.12768e-12</wgt>
  <wgt id="920">4.00053e-12</wgt>
  <wgt id="921">4.31842e-12</wgt>
  <wgt id="922">3.87247e-12</wgt>
  <wgt id="923">4.08421e-12</wgt>
  <wgt id="924">3.831e-12</wgt>
  <wgt id="925">3.69353e-12</wgt>
  <wgt id="926">4.63344e-12</wgt>
  <wgt id="927">4.53385e-12</wgt>
  <wgt id="928">4.51357e-12</wgt>
  <wgt id="929">4.31303e-12</wgt>
  <wgt id="930">4.20695e-12</wgt>
  <wgt id="931">4.16003e-12</wgt>
  <wgt id="932">4.01206e-12</wgt>
  <wgt id="933">4.68485e-12</wgt>
  <wgt id="934">4.22148e-12</wgt>
  <wgt id="935">4.78442e-12</wgt>
  <wgt id="936">4.21585e-12</wgt>
  <wgt id="937">4.40145e-12</wgt>
  <wgt id="938">4.28679e-12</wgt>
  <wgt id="939">4.14881e-12</wgt>
  <wgt id="940">4.31904e-12</wgt>
  <wgt id="941">4.05472e-12</wgt>
  <wgt id="942">4.45552e-12</wgt>
  <wgt id="943">4.83016e-12</wgt>
  <wgt id="944">3.91196e-12</wgt>
  <wgt id="945">4.22535e-12</wgt>
  <wgt id="946">4.02318e-12</wgt>
  <wgt id="947">4.19973e-12</wgt>
  <wgt id="948">4.53449e-12</wgt>
  <wgt id="949">4.63192e-12</wgt>
  <wgt id="950">3.78512e-12</wgt>
  <wgt id="951">4.22064e-12</wgt>
  <wgt id="952">4.49306e-12</wgt>
  <wgt id="953">4.45714e-12</wgt>
  <wgt id="954">4.39088e-12</wgt>
  <wgt id="955">3.89999e-12</wgt>
  <wgt id="956">4.01794e-12</wgt>
  <wgt id="957">4.49963e-12</wgt>
  <wgt id="958">4.27824e-12</wgt>
  <wgt id="959">4.28431e-12</wgt>
  <wgt id="960">3.8842e-12</wgt>
  <wgt id="961">4.28556e-12</wgt>
  <wgt id="962">4.50458e-12</wgt>
  <wgt id="963">4.28646e-12</wgt>
  <wgt id="964">4.557e-12</wgt>
  <wgt id="965">4.59434e-12</wgt>
  <wgt id="966">4.26879e-12</wgt>
  <wgt id="967">4.48778e-12</wgt>
  <wgt id="968">4.35509e-12</wgt>
  <wgt id="969">4.29372e-12</wgt>
  <wgt id="970">4.39677e-12</wgt>
  <wgt id="971">4.00171e-12</wgt>
  <wgt id="972">4.5578e-12</wgt>
  <wgt id="973">4.14807e-12</wgt>
  <wgt id="974">5.13972e-12</wgt>
  <wgt id="975">4.07641e-12</wgt>
  <wgt id="976">4.24892e-12</wgt>
  <wgt id="977">3.67616e-12</wgt>
  <wgt id="978">4.5234e-12</wgt>
  <wgt id="979">4.72166e-12</wgt>
  <wgt id="980">4.27489e-12</wgt>
  <wgt id="981">4.32639e-12</wgt>
  <wgt id="982">4.15673e-12</wgt>
</rwgt>
</event>
<event>
 5   1  0.3028200E-11  0.2395710E+04  0.7818608E-02  0.7678926E-01
       21   -1    0    0  502  501  0.00000000000E+00  0.00000000000E+00  0.10072727018E+04  0.10072727018E+04  0.00000000000E+00 0.  1.
       21   -1    0    0  501  502 -0.00000000000E+00 -0.00000000000E+00 -0.14244961286E+04  0.14244961286E+04  0.00000000000E+00 0. -1.
       39    2    1    2    0    0  0.00000000000E+00  0.00000000000E+00 -0.41722342673E+03  0.24317688304E+04  0.23957095518E+04 0.  0.
       25    1    3    3    0    0 -0.15324281699E+03  0.11310776099E+04 -0.55493795592E+03  0.12753042991E+04  0.12500000000E+03 0.  0.
       25    1    3    3    0    0  0.15324281699E+03 -0.11310776099E+04  0.13771452919E+03  0.11564645313E+04  0.12500000000E+03 0.  0.
<mgrwt>
<rscale>  0 0.23957096E+04</rscale>
<asrwt>0</asrwt>
<pdfrwt beam="1">  1       21 0.15496503E+00 0.23957096E+04</pdfrwt>
<pdfrwt beam="2">  1       21 0.21915325E+00 0.23957096E+04</pdfrwt>
<totfact> 0.10060551E+01</totfact>
</mgrwt>
<rwgt>
  <wgt id="1">3.0282e-12</wgt>
  <wgt id="2">2.63128e-12</wgt>
  <wgt id="3">3.52201e-12</wgt>
  <wgt id="4">3.0282e-12</wgt>
  <wgt id="5">2.63128e-12</wgt>
  <wgt id="6">3.52201e-12</wgt>
  <wgt id="7">3.0282e-12</wgt>
  <wgt id="8">2.63128e-12</wgt>
  <wgt id="9">3.52201e-12</wgt>
  <wgt id="10">3.14382e-12</wgt>
  <wgt id="11">3.14082e-12</wgt>
  <wgt id="12">3.13767e-12</wgt>
  <wgt id="13">3.13303e-12</wgt>
  <wgt id="14">3.15545e-12</wgt>
  <wgt id="15">3.14872e-12</wgt>
  <wgt id="16">3.13787e-12</wgt>
  <wgt id="17">3.14972e-12</wgt>
  <wgt id="18">3.13766e-12</wgt>
  <wgt id="19">3.15121e-12</wgt>
  <wgt id="20">3.13453e-12</wgt>
  <wgt id="21">3.12461e-12</wgt>
  <wgt id="22">3.13198e-12</wgt>
  <wgt id="23">3.11472e-12</wgt>
  <wgt id="24">3.12933e-12</wgt>
  <wgt id="25">3.13633e-12</wgt>
  <wgt id="26">3.15677e-12</wgt>
  <wgt id="27">3.14361e-12</wgt>
  <wgt id="28">3.12938e-12</wgt>
  <wgt id="29">3.14654e-12</wgt>
  <wgt id="30">3.13576e-12</wgt>
  <wgt id="31">3.15271e-12</wgt>
  <wgt id="32">3.13912e-12</wgt>
  <wgt id="33">3.1519e-12</wgt>
  <wgt id="34">3.13341e-12</wgt>
  <wgt id="35">3.14201e-12</wgt>
  <wgt id="36">3.15471e-12</wgt>
  <wgt id="37">3.13563e-12</wgt>
  <wgt id="38">3.13412e-12</wgt>
  <wgt id="39">3.17671e-12</wgt>
  <wgt id="40">3.14986e-12</wgt>
  <wgt id="41">3.14303e-12</wgt>
  <wgt id="42">3.14979e-12</wgt>
  <wgt id="43">3.14383e-12</wgt>
  <wgt id="44">3.13535e-12</wgt>
  <wgt id="45">3.15141e-12</wgt>
  <wgt id="46">3.14879e-12</wgt>
  <wgt id="47">3.13341e-12</wgt>
  <wgt id="48">3.14376e-12</wgt>
  <wgt id="49">3.14718e-12</wgt>
  <wgt id="50">3.15928e-12</wgt>
  <wgt id="51">3.15654e-12</wgt>
  <wgt id="52">3.14272e-12</wgt>
  <wgt id="53">3.12101e-12</wgt>
  <wgt id="54">3.13722e-12</wgt>
  <wgt id="55">3.14366e-12</wgt>
  <wgt id="56">3.15539e-12</wgt>
  <wgt id="57">3.15354e-12</wgt>
  <wgt id="58">3.12298e-12</wgt>
  <wgt id="59">3.13279e-12</wgt>
  <wgt id="60">3.14494e-12</wgt>
  <wgt id="61">3.13327e-12</wgt>
  <wgt id="62">3.14046e-12</wgt>
  <wgt id="63">3.14515e-12</wgt>
  <wgt id="64">3.14684e-12</wgt>
  <wgt id="65">3.14766e-12</wgt>
  <wgt id="66">3.13936e-12</wgt>
  <wgt id="67">3.13525e-12</wgt>
  <wgt id="68">3.14075e-12</wgt>
  <wgt id="69">3.14382e-12</wgt>
  <wgt id="70">3.14215e-12</wgt>
  <wgt id="71">3.14322e-12</wgt>
  <wgt id="72">3.13895e-12</wgt>
  <wgt id="73">3.14631e-12</wgt>
  <wgt id="74">3.14594e-12</wgt>
  <wgt id="75">3.14082e-12</wgt>
  <wgt id="76">3.15256e-12</wgt>
  <wgt id="77">3.14305e-12</wgt>
  <wgt id="78">3.14408e-12</wgt>
  <wgt id="79">3.15057e-12</wgt>
  <wgt id="80">3.13037e-12</wgt>
  <wgt id="81">3.14051e-12</wgt>
  <wgt id="82">3.14391e-12</wgt>
  <wgt id="83">3.13116e-12</wgt>
  <wgt id="84">3.13781e-12</wgt>
  <wgt id="85">3.13713e-12</wgt>
  <wgt id="86">3.15255e-12</wgt>
  <wgt id="87">3.12677e-12</wgt>
  <wgt id="88">3.14761e-12</wgt>
  <wgt id="89">3.14681e-12</wgt>
  <wgt id="90">3.14948e-12</wgt>
  <wgt id="91">3.14657e-12</wgt>
  <wgt id="92">3.15008e-12</wgt>
  <wgt id="93">3.14429e-12</wgt>
  <wgt id="94">3.1407e-12</wgt>
  <wgt id="95">3.14724e-12</wgt>
  <wgt id="96">3.14627e-12</wgt>
  <wgt id="97">3.13865e-12</wgt>
  <wgt id="98">3.14531e-12</wgt>
  <wgt id="99">3.14074e-12</wgt>
  <wgt id="100">3.14722e-12</wgt>
  <wgt id="101">3.14339e-12</wgt>
  <wgt id="102">3.14074e-12</wgt>
  <wgt id="103">3.14838e-12</wgt>
  <wgt id="104">3.14189e-12</wgt>
  <wgt id="105">3.1476e-12</wgt>
  <wgt id="106">3.13922e-12</wgt>
  <wgt id="107">3.15288e-12</wgt>
  <wgt id="108">3.14039e-12</wgt>
  <wgt id="109">3.14455e-12</wgt>
  <wgt id="110">3.14377e-12</wgt>
  <wgt id="111">3.17262e-12</wgt>
  <wgt id="112">3.14575e-12</wgt>
  <wgt id="113">4.27466e-12</wgt>
  <wgt id="114">4.38333e-12</wgt>
  <wgt id="115">4.3215e-12</wgt>
  <wgt id="116">6.1108e-12</wgt>
  <wgt id="117">3.51607e-12</wgt>
  <wgt id="118">3.52883e-12</wgt>
  <wgt id="119">3.50874e-12</wgt>
  <wgt id="120">3.51632e-12</wgt>
  <wgt id="121">3.51596e-12</wgt>
  <wgt id="122">3.50983e-12</wgt>
  <wgt id="123">3.52435e-12</wgt>
  <wgt id="124">3.51102e-12</wgt>
  <wgt id="125">3.51919e-12</wgt>
  <wgt id="126">3.52261e-12</wgt>
  <wgt id="127">3.51173e-12</wgt>
  <wgt id="128">3.52704e-12</wgt>
  <wgt id="129">3.50516e-12</wgt>
  <wgt id="130">3.5366e-12</wgt>
  <wgt id="131">3.49512e-12</wgt>
  <wgt id="132">3.42324e-12</wgt>
  <wgt id="133">3.62607e-12</wgt>
  <wgt id="134">3.4776e-12</wgt>
  <wgt id="135">3.54618e-12</wgt>
  <wgt id="136">3.56236e-12</wgt>
  <wgt id="137">3.45996e-12</wgt>
  <wgt id="138">3.65583e-12</wgt>
  <wgt id="139">3.38123e-12</wgt>
  <wgt id="140">3.49327e-12</wgt>
  <wgt id="141">3.53376e-12</wgt>
  <wgt id="142">3.51645e-12</wgt>
  <wgt id="143">3.52145e-12</wgt>
  <wgt id="144">3.4111e-12</wgt>
  <wgt id="145">3.61406e-12</wgt>
  <wgt id="146">3.5496e-12</wgt>
  <wgt id="147">3.48932e-12</wgt>
  <wgt id="148">3.52714e-12</wgt>
  <wgt id="149">3.51521e-12</wgt>
  <wgt id="150">3.54681e-12</wgt>
  <wgt id="151">3.50176e-12</wgt>
  <wgt id="152">3.51779e-12</wgt>
  <wgt id="153">3.51533e-12</wgt>
  <wgt id="154">3.54248e-12</wgt>
  <wgt id="155">3.4839e-12</wgt>
  <wgt id="156">3.59164e-12</wgt>
  <wgt id="157">3.43839e-12</wgt>
  <wgt id="158">4.2285e-12</wgt>
  <wgt id="159">4.24637e-12</wgt>
  <wgt id="160">4.21446e-12</wgt>
  <wgt id="161">4.21775e-12</wgt>
  <wgt id="162">4.24091e-12</wgt>
  <wgt id="163">4.22379e-12</wgt>
  <wgt id="164">4.23574e-12</wgt>
  <wgt id="165">4.23025e-12</wgt>
  <wgt id="166">4.2273e-12</wgt>
  <wgt id="167">4.2255e-12</wgt>
  <wgt id="168">4.2331e-12</wgt>
  <wgt id="169">4.21058e-12</wgt>
  <wgt id="170">4.23984e-12</wgt>
  <wgt id="171">4.2239e-12</wgt>
  <wgt id="172">4.23534e-12</wgt>
  <wgt id="173">4.22775e-12</wgt>
  <wgt id="174">4.22885e-12</wgt>
  <wgt id="175">4.10794e-12</wgt>
  <wgt id="176">4.38628e-12</wgt>
  <wgt id="177">4.25171e-12</wgt>
  <wgt id="178">4.20746e-12</wgt>
  <wgt id="179">4.41121e-12</wgt>
  <wgt id="180">3.94126e-12</wgt>
  <wgt id="181">4.10241e-12</wgt>
  <wgt id="182">4.31196e-12</wgt>
  <wgt id="183">4.15165e-12</wgt>
  <wgt id="184">4.26684e-12</wgt>
  <wgt id="185">4.19334e-12</wgt>
  <wgt id="186">4.27168e-12</wgt>
  <wgt id="187">4.18968e-12</wgt>
  <wgt id="188">4.29863e-12</wgt>
  <wgt id="189">4.20049e-12</wgt>
  <wgt id="190">4.24007e-12</wgt>
  <wgt id="191">4.24048e-12</wgt>
  <wgt id="192">4.22156e-12</wgt>
  <wgt id="193">4.29066e-12</wgt>
  <wgt id="194">4.19797e-12</wgt>
  <wgt id="195">4.11631e-12</wgt>
  <wgt id="196">4.42495e-12</wgt>
  <wgt id="197">4.25016e-12</wgt>
  <wgt id="198">4.22353e-12</wgt>
  <wgt id="199">4.2285e-12</wgt>
  <wgt id="200">4.26542e-12</wgt>
  <wgt id="201">4.25218e-12</wgt>
  <wgt id="202">4.23903e-12</wgt>
  <wgt id="203">4.21952e-12</wgt>
  <wgt id="204">4.21017e-12</wgt>
  <wgt id="205">4.20267e-12</wgt>
  <wgt id="206">4.0971e-12</wgt>
  <wgt id="207">4.12118e-12</wgt>
  <wgt id="208">4.07346e-12</wgt>
  <wgt id="209">4.11047e-12</wgt>
  <wgt id="210">4.08772e-12</wgt>
  <wgt id="211">4.09567e-12</wgt>
  <wgt id="212">4.09839e-12</wgt>
  <wgt id="213">4.09695e-12</wgt>
  <wgt id="214">4.09776e-12</wgt>
  <wgt id="215">4.1004e-12</wgt>
  <wgt id="216">4.09498e-12</wgt>
  <wgt id="217">4.10897e-12</wgt>
  <wgt id="218">4.08805e-12</wgt>
  <wgt id="219">4.09343e-12</wgt>
  <wgt id="220">4.09968e-12</wgt>
  <wgt id="221">4.09574e-12</wgt>
  <wgt id="222">4.10104e-12</wgt>
  <wgt id="223">3.87746e-12</wgt>
  <wgt id="224">4.29751e-12</wgt>
  <wgt id="225">4.04717e-12</wgt>
  <wgt id="226">4.16025e-12</wgt>
  <wgt id="227">4.05813e-12</wgt>
  <wgt id="228">4.11438e-12</wgt>
  <wgt id="229">4.03971e-12</wgt>
  <wgt id="230">4.12593e-12</wgt>
  <wgt id="231">4.2166e-12</wgt>
  <wgt id="232">3.99928e-12</wgt>
  <wgt id="233">4.07552e-12</wgt>
  <wgt id="234">4.13193e-12</wgt>
  <wgt id="235">4.00571e-12</wgt>
  <wgt id="236">4.18046e-12</wgt>
  <wgt id="237">4.03664e-12</wgt>
  <wgt id="238">4.11785e-12</wgt>
  <wgt id="239">4.07129e-12</wgt>
  <wgt id="240">4.14427e-12</wgt>
  <wgt id="241">4.0546e-12</wgt>
  <wgt id="242">4.14867e-12</wgt>
  <wgt id="243">4.15179e-12</wgt>
  <wgt id="244">4.11619e-12</wgt>
  <wgt id="245">4.09461e-12</wgt>
  <wgt id="246">4.12661e-12</wgt>
  <wgt id="247">4.0971e-12</wgt>
  <wgt id="248">4.13338e-12</wgt>
  <wgt id="249">4.11956e-12</wgt>
  <wgt id="250">4.10673e-12</wgt>
  <wgt id="251">4.08767e-12</wgt>
  <wgt id="252">4.07855e-12</wgt>
  <wgt id="253">4.07222e-12</wgt>
  <wgt id="254">4.0114e-12</wgt>
  <wgt id="255">4.0152e-12</wgt>
  <wgt id="256">4.00723e-12</wgt>
  <wgt id="257">4.01435e-12</wgt>
  <wgt id="258">4.00929e-12</wgt>
  <wgt id="259">4.03822e-12</wgt>
  <wgt id="260">3.98553e-12</wgt>
  <wgt id="261">4.01751e-12</wgt>
  <wgt id="262">4.00394e-12</wgt>
  <wgt id="263">4.00932e-12</wgt>
  <wgt id="264">4.01359e-12</wgt>
  <wgt id="265">4.00658e-12</wgt>
  <wgt id="266">4.02109e-12</wgt>
  <wgt id="267">4.01261e-12</wgt>
  <wgt id="268">4.00947e-12</wgt>
  <wgt id="269">4.02464e-12</wgt>
  <wgt id="270">4.00237e-12</wgt>
  <wgt id="271">4.00444e-12</wgt>
  <wgt id="272">4.01925e-12</wgt>
  <wgt id="273">3.99882e-12</wgt>
  <wgt id="274">4.02094e-12</wgt>
  <wgt id="275">3.99427e-12</wgt>
  <wgt id="276">4.02907e-12</wgt>
  <wgt id="277">3.98826e-12</wgt>
  <wgt id="278">4.03266e-12</wgt>
  <wgt id="279">3.9334e-12</wgt>
  <wgt id="280">4.10921e-12</wgt>
  <wgt id="281">3.99344e-12</wgt>
  <wgt id="282">4.01255e-12</wgt>
  <wgt id="283">3.89486e-12</wgt>
  <wgt id="284">4.15486e-12</wgt>
  <wgt id="285">3.81855e-12</wgt>
  <wgt id="286">4.17099e-12</wgt>
  <wgt id="287">4.02418e-12</wgt>
  <wgt id="288">3.9952e-12</wgt>
  <wgt id="289">4.03988e-12</wgt>
  <wgt id="290">3.94546e-12</wgt>
  <wgt id="291">4.00003e-12</wgt>
  <wgt id="292">4.01398e-12</wgt>
  <wgt id="293">3.98019e-12</wgt>
  <wgt id="294">4.04235e-12</wgt>
  <wgt id="295">3.93494e-12</wgt>
  <wgt id="296">4.10461e-12</wgt>
  <wgt id="297">4.0103e-12</wgt>
  <wgt id="298">4.02701e-12</wgt>
  <wgt id="299">3.99833e-12</wgt>
  <wgt id="300">4.04599e-12</wgt>
  <wgt id="301">3.95258e-12</wgt>
  <wgt id="302">4.1572e-12</wgt>
  <wgt id="303">3.9795e-12</wgt>
  <wgt id="304">4.02958e-12</wgt>
  <wgt id="305">4.02117e-12</wgt>
  <wgt id="306">4.02535e-12</wgt>
  <wgt id="307">4.01666e-12</wgt>
  <wgt id="308">4.02456e-12</wgt>
  <wgt id="309">4.019e-12</wgt>
  <wgt id="310">4.04913e-12</wgt>
  <wgt id="311">3.99522e-12</wgt>
  <wgt id="312">4.02624e-12</wgt>
  <wgt id="313">4.01598e-12</wgt>
  <wgt id="314">4.01916e-12</wgt>
  <wgt id="315">4.023e-12</wgt>
  <wgt id="316">4.01651e-12</wgt>
  <wgt id="317">4.03126e-12</wgt>
  <wgt id="318">4.02423e-12</wgt>
  <wgt id="319">4.01589e-12</wgt>
  <wgt id="320">4.03518e-12</wgt>
  <wgt id="321">4.01341e-12</wgt>
  <wgt id="322">4.01218e-12</wgt>
  <wgt id="323">4.03161e-12</wgt>
  <wgt id="324">4.01067e-12</wgt>
  <wgt id="325">4.03029e-12</wgt>
  <wgt id="326">4.00735e-12</wgt>
  <wgt id="327">4.03887e-12</wgt>
  <wgt id="328">4.00031e-12</wgt>
  <wgt id="329">4.03287e-12</wgt>
  <wgt id="330">4.14085e-12</wgt>
  <wgt id="331">3.90718e-12</wgt>
  <wgt id="332">4.00607e-12</wgt>
  <wgt id="333">4.02158e-12</wgt>
  <wgt id="334">3.92978e-12</wgt>
  <wgt id="335">4.13467e-12</wgt>
  <wgt id="336">3.88115e-12</wgt>
  <wgt id="337">4.1917e-12</wgt>
  <wgt id="338">4.06613e-12</wgt>
  <wgt id="339">3.9795e-12</wgt>
  <wgt id="340">4.04787e-12</wgt>
  <wgt id="341">3.95227e-12</wgt>
  <wgt id="342">4.01316e-12</wgt>
  <wgt id="343">4.01705e-12</wgt>
  <wgt id="344">3.99287e-12</wgt>
  <wgt id="345">4.05385e-12</wgt>
  <wgt id="346">3.94172e-12</wgt>
  <wgt id="347">4.11254e-12</wgt>
  <wgt id="348">4.02168e-12</wgt>
  <wgt id="349">4.03437e-12</wgt>
  <wgt id="350">4.00468e-12</wgt>
  <wgt id="351">4.06277e-12</wgt>
  <wgt id="352">3.95634e-12</wgt>
  <wgt id="353">4.17309e-12</wgt>
  <wgt id="354">3.97269e-12</wgt>
  <wgt id="355">4.05068e-12</wgt>
  <wgt id="356">4.0114e-12</wgt>
  <wgt id="357">4.03694e-12</wgt>
  <wgt id="358">4.02117e-12</wgt>
  <wgt id="359">4.02473e-12</wgt>
  <wgt id="360">4.04082e-12</wgt>
  <wgt id="361">4.02458e-12</wgt>
  <wgt id="362">4.09552e-12</wgt>
  <wgt id="363">4.08562e-12</wgt>
  <wgt id="364">4.07114e-12</wgt>
  <wgt id="365">4.05723e-12</wgt>
  <wgt id="366">4.04171e-12</wgt>
  <wgt id="367">4.01021e-12</wgt>
  <wgt id="368">3.99265e-12</wgt>
  <wgt id="369">3.97366e-12</wgt>
  <wgt id="370">4.02458e-12</wgt>
  <wgt id="371">4.04275e-12</wgt>
  <wgt id="372">4.03283e-12</wgt>
  <wgt id="373">4.01794e-12</wgt>
  <wgt id="374">4.01704e-12</wgt>
  <wgt id="375">4.31069e-12</wgt>
  <wgt id="376">4.31124e-12</wgt>
  <wgt id="377">4.30982e-12</wgt>
  <wgt id="378">4.3265e-12</wgt>
  <wgt id="379">4.29494e-12</wgt>
  <wgt id="380">4.32213e-12</wgt>
  <wgt id="381">4.30615e-12</wgt>
  <wgt id="382">4.33343e-12</wgt>
  <wgt id="383">4.2881e-12</wgt>
  <wgt id="384">4.31356e-12</wgt>
  <wgt id="385">4.30793e-12</wgt>
  <wgt id="386">4.32827e-12</wgt>
  <wgt id="387">4.30304e-12</wgt>
  <wgt id="388">4.30645e-12</wgt>
  <wgt id="389">4.31568e-12</wgt>
  <wgt id="390">4.32246e-12</wgt>
  <wgt id="391">4.29832e-12</wgt>
  <wgt id="392">4.27669e-12</wgt>
  <wgt id="393">4.33007e-12</wgt>
  <wgt id="394">4.31675e-12</wgt>
  <wgt id="395">4.30249e-12</wgt>
  <wgt id="396">4.31406e-12</wgt>
  <wgt id="397">4.30835e-12</wgt>
  <wgt id="398">4.29182e-12</wgt>
  <wgt id="399">4.32897e-12</wgt>
  <wgt id="400">4.30327e-12</wgt>
  <wgt id="401">4.32741e-12</wgt>
  <wgt id="402">4.27484e-12</wgt>
  <wgt id="403">4.32685e-12</wgt>
  <wgt id="404">4.41205e-12</wgt>
  <wgt id="405">4.06638e-12</wgt>
  <wgt id="406">4.23784e-12</wgt>
  <wgt id="407">4.46874e-12</wgt>
  <wgt id="408">4.34809e-12</wgt>
  <wgt id="409">4.2393e-12</wgt>
  <wgt id="410">4.19158e-12</wgt>
  <wgt id="411">4.36599e-12</wgt>
  <wgt id="412">4.30285e-12</wgt>
  <wgt id="413">4.3223e-12</wgt>
  <wgt id="414">4.2631e-12</wgt>
  <wgt id="415">4.34777e-12</wgt>
  <wgt id="416">4.42736e-12</wgt>
  <wgt id="417">4.14962e-12</wgt>
  <wgt id="418">4.31656e-12</wgt>
  <wgt id="419">4.27895e-12</wgt>
  <wgt id="420">4.37893e-12</wgt>
  <wgt id="421">4.27106e-12</wgt>
  <wgt id="422">4.3024e-12</wgt>
  <wgt id="423">4.31544e-12</wgt>
  <wgt id="424">4.40154e-12</wgt>
  <wgt id="425">4.2532e-12</wgt>
  <wgt id="426">4.31069e-12</wgt>
  <wgt id="427">4.26991e-12</wgt>
  <wgt id="428">4.42845e-12</wgt>
  <wgt id="429">4.351e-12</wgt>
  <wgt id="430">4.47424e-12</wgt>
  <wgt id="431">4.4495e-12</wgt>
  <wgt id="432">4.42631e-12</wgt>
  <wgt id="433">4.40385e-12</wgt>
  <wgt id="434">4.37646e-12</wgt>
  <wgt id="435">4.31941e-12</wgt>
  <wgt id="436">4.29022e-12</wgt>
  <wgt id="437">4.2622e-12</wgt>
  <wgt id="438">4.351e-12</wgt>
  <wgt id="439">4.36538e-12</wgt>
  <wgt id="440">4.3569e-12</wgt>
  <wgt id="441">4.34662e-12</wgt>
  <wgt id="442">4.34302e-12</wgt>
  <wgt id="443">4.19942e-12</wgt>
  <wgt id="444">4.22403e-12</wgt>
  <wgt id="445">4.18425e-12</wgt>
  <wgt id="446">4.17221e-12</wgt>
  <wgt id="447">4.18511e-12</wgt>
  <wgt id="448">4.08777e-12</wgt>
  <wgt id="449">4.26549e-12</wgt>
  <wgt id="450">4.18715e-12</wgt>
  <wgt id="451">4.19222e-12</wgt>
  <wgt id="452">4.29507e-12</wgt>
  <wgt id="453">4.24038e-12</wgt>
  <wgt id="454">4.02983e-12</wgt>
  <wgt id="455">4.20575e-12</wgt>
  <wgt id="456">4.16607e-12</wgt>
  <wgt id="457">4.21698e-12</wgt>
  <wgt id="458">4.24873e-12</wgt>
  <wgt id="459">4.22819e-12</wgt>
  <wgt id="460">4.22518e-12</wgt>
  <wgt id="461">4.11995e-12</wgt>
  <wgt id="462">4.16446e-12</wgt>
  <wgt id="463">4.15242e-12</wgt>
  <wgt id="464">4.17522e-12</wgt>
  <wgt id="465">4.24448e-12</wgt>
  <wgt id="466">4.14891e-12</wgt>
  <wgt id="467">4.15821e-12</wgt>
  <wgt id="468">4.18794e-12</wgt>
  <wgt id="469">4.18735e-12</wgt>
  <wgt id="470">4.16082e-12</wgt>
  <wgt id="471">4.16124e-12</wgt>
  <wgt id="472">4.21945e-12</wgt>
  <wgt id="473">4.06124e-12</wgt>
  <wgt id="474">3.0282e-12</wgt>
  <wgt id="475">3.20094e-12</wgt>
  <wgt id="476">2.96287e-12</wgt>
  <wgt id="477">2.92473e-12</wgt>
  <wgt id="478">3.04462e-12</wgt>
  <wgt id="479">2.96602e-12</wgt>
  <wgt id="480">3.14283e-12</wgt>
  <wgt id="481">2.97546e-12</wgt>
  <wgt id="482">2.92669e-12</wgt>
  <wgt id="483">2.94955e-12</wgt>
  <wgt id="484">3.21141e-12</wgt>
  <wgt id="485">3.01432e-12</wgt>
  <wgt id="486">3.11942e-12</wgt>
  <wgt id="487">3.08313e-12</wgt>
  <wgt id="488">3.07523e-12</wgt>
  <wgt id="489">2.91893e-12</wgt>
  <wgt id="490">2.92348e-12</wgt>
  <wgt id="491">2.99692e-12</wgt>
  <wgt id="492">2.94086e-12</wgt>
  <wgt id="493">2.91154e-12</wgt>
  <wgt id="494">2.93483e-12</wgt>
  <wgt id="495">3.09004e-12</wgt>
  <wgt id="496">2.92899e-12</wgt>
  <wgt id="497">2.90617e-12</wgt>
  <wgt id="498">3.07937e-12</wgt>
  <wgt id="499">2.96026e-12</wgt>
  <wgt id="500">2.97854e-12</wgt>
  <wgt id="501">3.16822e-12</wgt>
  <wgt id="502">2.96293e-12</wgt>
  <wgt id="503">3.02659e-12</wgt>
  <wgt id="504">3.06186e-12</wgt>
  <wgt id="505">3.01191e-12</wgt>
  <wgt id="506">3.07719e-12</wgt>
  <wgt id="507">3.00625e-12</wgt>
  <wgt id="508">3.08133e-12</wgt>
  <wgt id="509">2.93183e-12</wgt>
  <wgt id="510">3.11214e-12</wgt>
  <wgt id="511">2.96369e-12</wgt>
  <wgt id="512">3.08457e-12</wgt>
  <wgt id="513">3.16588e-12</wgt>
  <wgt id="514">3.01744e-12</wgt>
  <wgt id="515">2.99304e-12</wgt>
  <wgt id="516">3.12881e-12</wgt>
  <wgt id="517">3.09261e-12</wgt>
  <wgt id="518">3.1e-12</wgt>
  <wgt id="519">2.93893e-12</wgt>
  <wgt id="520">3.06526e-12</wgt>
  <wgt id="521">3.1259e-12</wgt>
  <wgt id="522">3.14897e-12</wgt>
  <wgt id="523">3.08419e-12</wgt>
  <wgt id="524">3.06413e-12</wgt>
  <wgt id="525">3.1241e-12</wgt>
  <wgt id="526">3.04858e-12</wgt>
  <wgt id="527">3.06924e-12</wgt>
  <wgt id="528">3.04694e-12</wgt>
  <wgt id="529">2.97456e-12</wgt>
  <wgt id="530">3.06859e-12</wgt>
  <wgt id="531">2.99319e-12</wgt>
  <wgt id="532">3.20606e-12</wgt>
  <wgt id="533">2.85754e-12</wgt>
  <wgt id="534">3.03795e-12</wgt>
  <wgt id="535">3.08138e-12</wgt>
  <wgt id="536">3.01031e-12</wgt>
  <wgt id="537">3.0337e-12</wgt>
  <wgt id="538">3.06073e-12</wgt>
  <wgt id="539">2.97276e-12</wgt>
  <wgt id="540">2.97558e-12</wgt>
  <wgt id="541">2.93896e-12</wgt>
  <wgt id="542">2.98143e-12</wgt>
  <wgt id="543">3.02074e-12</wgt>
  <wgt id="544">3.17349e-12</wgt>
  <wgt id="545">2.98498e-12</wgt>
  <wgt id="546">2.97967e-12</wgt>
  <wgt id="547">2.9387e-12</wgt>
  <wgt id="548">2.90499e-12</wgt>
  <wgt id="549">2.97484e-12</wgt>
  <wgt id="550">2.99295e-12</wgt>
  <wgt id="551">3.05961e-12</wgt>
  <wgt id="552">2.98712e-12</wgt>
  <wgt id="553">3.01379e-12</wgt>
  <wgt id="554">3.2495e-12</wgt>
  <wgt id="555">3.10567e-12</wgt>
  <wgt id="556">2.92348e-12</wgt>
  <wgt id="557">3.08445e-12</wgt>
  <wgt id="558">2.93542e-12</wgt>
  <wgt id="559">2.98349e-12</wgt>
  <wgt id="560">3.29264e-12</wgt>
  <wgt id="561">2.9759e-12</wgt>
  <wgt id="562">3.08484e-12</wgt>
  <wgt id="563">2.95709e-12</wgt>
  <wgt id="564">3.04386e-12</wgt>
  <wgt id="565">2.92096e-12</wgt>
  <wgt id="566">3.07621e-12</wgt>
  <wgt id="567">2.98957e-12</wgt>
  <wgt id="568">3.01379e-12</wgt>
  <wgt id="569">3.08426e-12</wgt>
  <wgt id="570">2.9244e-12</wgt>
  <wgt id="571">3.35771e-12</wgt>
  <wgt id="572">2.95962e-12</wgt>
  <wgt id="573">2.8992e-12</wgt>
  <wgt id="574">2.92311e-12</wgt>
  <wgt id="575">3.33921e-12</wgt>
  <wgt id="576">3.32867e-12</wgt>
  <wgt id="577">3.42768e-12</wgt>
  <wgt id="578">3.43119e-12</wgt>
  <wgt id="579">3.40387e-12</wgt>
  <wgt id="580">3.41484e-12</wgt>
  <wgt id="581">3.56479e-12</wgt>
  <wgt id="582">3.32037e-12</wgt>
  <wgt id="583">3.37553e-12</wgt>
  <wgt id="584">3.34122e-12</wgt>
  <wgt id="585">3.34464e-12</wgt>
  <wgt id="586">3.25759e-12</wgt>
  <wgt id="587">3.38813e-12</wgt>
  <wgt id="588">3.33089e-12</wgt>
  <wgt id="589">3.41729e-12</wgt>
  <wgt id="590">3.38911e-12</wgt>
  <wgt id="591">3.46309e-12</wgt>
  <wgt id="592">3.24742e-12</wgt>
  <wgt id="593">3.32117e-12</wgt>
  <wgt id="594">3.42971e-12</wgt>
  <wgt id="595">3.33406e-12</wgt>
  <wgt id="596">3.38428e-12</wgt>
  <wgt id="597">3.2482e-12</wgt>
  <wgt id="598">3.23486e-12</wgt>
  <wgt id="599">3.50459e-12</wgt>
  <wgt id="600">3.31438e-12</wgt>
  <wgt id="601">3.24391e-12</wgt>
  <wgt id="602">3.26075e-12</wgt>
  <wgt id="603">3.26833e-12</wgt>
  <wgt id="604">3.38967e-12</wgt>
  <wgt id="605">3.47043e-12</wgt>
  <wgt id="606">3.27645e-12</wgt>
  <wgt id="607">3.3064e-12</wgt>
  <wgt id="608">3.37333e-12</wgt>
  <wgt id="609">3.16681e-12</wgt>
  <wgt id="610">3.21587e-12</wgt>
  <wgt id="611">3.36179e-12</wgt>
  <wgt id="612">3.57464e-12</wgt>
  <wgt id="613">3.32303e-12</wgt>
  <wgt id="614">3.37922e-12</wgt>
  <wgt id="615">3.27654e-12</wgt>
  <wgt id="616">3.51113e-12</wgt>
  <wgt id="617">3.46518e-12</wgt>
  <wgt id="618">3.43537e-12</wgt>
  <wgt id="619">3.29716e-12</wgt>
  <wgt id="620">3.48313e-12</wgt>
  <wgt id="621">3.37754e-12</wgt>
  <wgt id="622">3.38813e-12</wgt>
  <wgt id="623">3.4324e-12</wgt>
  <wgt id="624">3.3326e-12</wgt>
  <wgt id="625">3.29375e-12</wgt>
  <wgt id="626">3.24532e-12</wgt>
  <wgt id="627">3.1989e-12</wgt>
  <wgt id="628">3.52335e-12</wgt>
  <wgt id="629">3.2676e-12</wgt>
  <wgt id="630">3.22091e-12</wgt>
  <wgt id="631">3.35902e-12</wgt>
  <wgt id="632">3.20958e-12</wgt>
  <wgt id="633">3.30508e-12</wgt>
  <wgt id="634">3.32205e-12</wgt>
  <wgt id="635">3.25137e-12</wgt>
  <wgt id="636">3.36184e-12</wgt>
  <wgt id="637">3.32977e-12</wgt>
  <wgt id="638">3.21112e-12</wgt>
  <wgt id="639">3.29011e-12</wgt>
  <wgt id="640">3.33789e-12</wgt>
  <wgt id="641">3.36952e-12</wgt>
  <wgt id="642">3.22099e-12</wgt>
  <wgt id="643">3.31667e-12</wgt>
  <wgt id="644">3.18659e-12</wgt>
  <wgt id="645">3.36872e-12</wgt>
  <wgt id="646">3.36993e-12</wgt>
  <wgt id="647">3.29933e-12</wgt>
  <wgt id="648">3.36524e-12</wgt>
  <wgt id="649">3.38713e-12</wgt>
  <wgt id="650">3.26959e-12</wgt>
  <wgt id="651">3.36659e-12</wgt>
  <wgt id="652">3.30933e-12</wgt>
  <wgt id="653">3.24358e-12</wgt>
  <wgt id="654">3.31493e-12</wgt>
  <wgt id="655">3.28531e-12</wgt>
  <wgt id="656">3.35912e-12</wgt>
  <wgt id="657">3.4763e-12</wgt>
  <wgt id="658">3.34911e-12</wgt>
  <wgt id="659">3.20757e-12</wgt>
  <wgt id="660">3.39692e-12</wgt>
  <wgt id="661">3.28327e-12</wgt>
  <wgt id="662">3.33448e-12</wgt>
  <wgt id="663">3.34273e-12</wgt>
  <wgt id="664">3.29447e-12</wgt>
  <wgt id="665">3.32939e-12</wgt>
  <wgt id="666">3.30858e-12</wgt>
  <wgt id="667">3.44743e-12</wgt>
  <wgt id="668">3.33518e-12</wgt>
  <wgt id="669">3.41664e-12</wgt>
  <wgt id="670">3.41261e-12</wgt>
  <wgt id="671">3.31279e-12</wgt>
  <wgt id="672">3.19946e-12</wgt>
  <wgt id="673">3.35749e-12</wgt>
  <wgt id="674">3.27351e-12</wgt>
  <wgt id="675">3.2923e-12</wgt>
  <wgt id="676">4.22394e-12</wgt>
  <wgt id="677">4.27063e-12</wgt>
  <wgt id="678">4.43483e-12</wgt>
  <wgt id="679">3.96239e-12</wgt>
  <wgt id="680">4.13246e-12</wgt>
  <wgt id="681">4.30699e-12</wgt>
  <wgt id="682">4.3531e-12</wgt>
  <wgt id="683">4.15744e-12</wgt>
  <wgt id="684">4.41585e-12</wgt>
  <wgt id="685">4.01379e-12</wgt>
  <wgt id="686">4.13539e-12</wgt>
  <wgt id="687">4.43248e-12</wgt>
  <wgt id="688">4.19766e-12</wgt>
  <wgt id="689">4.56203e-12</wgt>
  <wgt id="690">4.43282e-12</wgt>
  <wgt id="691">4.47169e-12</wgt>
  <wgt id="692">4.17491e-12</wgt>
  <wgt id="693">4.98592e-12</wgt>
  <wgt id="694">4.48371e-12</wgt>
  <wgt id="695">4.0896e-12</wgt>
  <wgt id="696">4.00448e-12</wgt>
  <wgt id="697">4.09375e-12</wgt>
  <wgt id="698">3.85809e-12</wgt>
  <wgt id="699">3.83187e-12</wgt>
  <wgt id="700">3.6862e-12</wgt>
  <wgt id="701">4.23831e-12</wgt>
  <wgt id="702">4.0937e-12</wgt>
  <wgt id="703">4.86372e-12</wgt>
  <wgt id="704">4.62674e-12</wgt>
  <wgt id="705">4.43292e-12</wgt>
  <wgt id="706">3.94119e-12</wgt>
  <wgt id="707">4.051e-12</wgt>
  <wgt id="708">4.16492e-12</wgt>
  <wgt id="709">4.14748e-12</wgt>
  <wgt id="710">3.80073e-12</wgt>
  <wgt id="711">4.20213e-12</wgt>
  <wgt id="712">4.14085e-12</wgt>
  <wgt id="713">4.56927e-12</wgt>
  <wgt id="714">4.13984e-12</wgt>
  <wgt id="715">4.17461e-12</wgt>
  <wgt id="716">4.06391e-12</wgt>
  <wgt id="717">4.0091e-12</wgt>
  <wgt id="718">4.22076e-12</wgt>
  <wgt id="719">3.83226e-12</wgt>
  <wgt id="720">3.98828e-12</wgt>
  <wgt id="721">3.86917e-12</wgt>
  <wgt id="722">3.72791e-12</wgt>
  <wgt id="723">4.51541e-12</wgt>
  <wgt id="724">4.43156e-12</wgt>
  <wgt id="725">4.45517e-12</wgt>
  <wgt id="726">4.26144e-12</wgt>
  <wgt id="727">4.13015e-12</wgt>
  <wgt id="728">4.12688e-12</wgt>
  <wgt id="729">3.88516e-12</wgt>
  <wgt id="730">4.56938e-12</wgt>
  <wgt id="731">4.16907e-12</wgt>
  <wgt id="732">4.65485e-12</wgt>
  <wgt id="733">4.20338e-12</wgt>
  <wgt id="734">4.3284e-12</wgt>
  <wgt id="735">4.21182e-12</wgt>
  <wgt id="736">4.13188e-12</wgt>
  <wgt id="737">4.28732e-12</wgt>
  <wgt id="738">4.01017e-12</wgt>
  <wgt id="739">4.30681e-12</wgt>
  <wgt id="740">4.70579e-12</wgt>
  <wgt id="741">3.78234e-12</wgt>
  <wgt id="742">4.16056e-12</wgt>
  <wgt id="743">4.01987e-12</wgt>
  <wgt id="744">4.13777e-12</wgt>
  <wgt id="745">4.42667e-12</wgt>
  <wgt id="746">4.50414e-12</wgt>
  <wgt id="747">3.80736e-12</wgt>
  <wgt id="748">4.16872e-12</wgt>
  <wgt id="749">4.44232e-12</wgt>
  <wgt id="750">4.3191e-12</wgt>
  <wgt id="751">4.35144e-12</wgt>
  <wgt id="752">3.86624e-12</wgt>
  <wgt id="753">4.00469e-12</wgt>
  <wgt id="754">4.41863e-12</wgt>
  <wgt id="755">4.2342e-12</wgt>
  <wgt id="756">4.24414e-12</wgt>
  <wgt id="757">3.87499e-12</wgt>
  <wgt id="758">4.25241e-12</wgt>
  <wgt id="759">4.33954e-12</wgt>
  <wgt id="760">4.2641e-12</wgt>
  <wgt id="761">4.45786e-12</wgt>
  <wgt id="762">4.48669e-12</wgt>
  <wgt id="763">4.20729e-12</wgt>
  <wgt id="764">4.39826e-12</wgt>
  <wgt id="765">4.29697e-12</wgt>
  <wgt id="766">4.22015e-12</wgt>
  <wgt id="767">4.33244e-12</wgt>
  <wgt id="768">3.97631e-12</wgt>
  <wgt id="769">4.48334e-12</wgt>
  <wgt id="770">4.10294e-12</wgt>
  <wgt id="771">5.00903e-12</wgt>
  <wgt id="772">3.99375e-12</wgt>
  <wgt id="773">4.19055e-12</wgt>
  <wgt id="774">3.72558e-12</wgt>
  <wgt id="775">4.45378e-12</wgt>
  <wgt id="776">4.62054e-12</wgt>
  <wgt id="777">3.99703e-12</wgt>
  <wgt id="778">3.08995e-12</wgt>
  <wgt id="779">2.5247e-12</wgt>
  <wgt id="780">2.01649e-12</wgt>
  <wgt id="781">3.22581e-12</wgt>
  <wgt id="782">3.29339e-12</wgt>
  <wgt id="783">2.54627e-12</wgt>
  <wgt id="784">2.66777e-12</wgt>
  <wgt id="785">3.81273e-12</wgt>
  <wgt id="786">2.35034e-12</wgt>
  <wgt id="787">3.55372e-12</wgt>
  <wgt id="788">1.86199e-12</wgt>
  <wgt id="789">2.46492e-12</wgt>
  <wgt id="790">2.3151e-12</wgt>
  <wgt id="791">2.93008e-12</wgt>
  <wgt id="792">4.04923e-12</wgt>
  <wgt id="793">3.0254e-12</wgt>
  <wgt id="794">2.30656e-12</wgt>
  <wgt id="795">3.67467e-12</wgt>
  <wgt id="796">4.09191e-12</wgt>
  <wgt id="797">3.6306e-12</wgt>
  <wgt id="798">2.81288e-12</wgt>
  <wgt id="799">3.54534e-12</wgt>
  <wgt id="800">2.49674e-12</wgt>
  <wgt id="801">2.86852e-12</wgt>
  <wgt id="802">2.31429e-12</wgt>
  <wgt id="803">4.10936e-12</wgt>
  <wgt id="804">3.64587e-12</wgt>
  <wgt id="805">3.70466e-12</wgt>
  <wgt id="806">3.44015e-12</wgt>
  <wgt id="807">2.93544e-12</wgt>
  <wgt id="808">2.99709e-12</wgt>
  <wgt id="809">2.84173e-12</wgt>
  <wgt id="810">3.5034e-12</wgt>
  <wgt id="811">3.37612e-12</wgt>
  <wgt id="812">2.29745e-12</wgt>
  <wgt id="813">2.36869e-12</wgt>
  <wgt id="814">2.61591e-12</wgt>
  <wgt id="815">2.52701e-12</wgt>
  <wgt id="816">2.22996e-12</wgt>
  <wgt id="817">3.233e-12</wgt>
  <wgt id="818">3.11844e-12</wgt>
  <wgt id="819">2.52143e-12</wgt>
  <wgt id="820">3.08439e-12</wgt>
  <wgt id="821">3.58489e-12</wgt>
  <wgt id="822">2.52466e-12</wgt>
  <wgt id="823">3.61749e-12</wgt>
  <wgt id="824">4.19688e-12</wgt>
  <wgt id="825">2.22764e-12</wgt>
  <wgt id="826">3.3085e-12</wgt>
  <wgt id="827">1.82693e-12</wgt>
  <wgt id="828">3.96361e-12</wgt>
  <wgt id="829">3.22257e-12</wgt>
  <wgt id="830">2.10848e-12</wgt>
  <wgt id="831">3.35379e-12</wgt>
  <wgt id="832">5.13358e-12</wgt>
  <wgt id="833">2.84288e-12</wgt>
  <wgt id="834">4.80969e-12</wgt>
  <wgt id="835">2.485e-12</wgt>
  <wgt id="836">3.0386e-12</wgt>
  <wgt id="837">3.53608e-12</wgt>
  <wgt id="838">2.92147e-12</wgt>
  <wgt id="839">3.32894e-12</wgt>
  <wgt id="840">2.86012e-12</wgt>
  <wgt id="841">3.86977e-12</wgt>
  <wgt id="842">2.79361e-12</wgt>
  <wgt id="843">3.06537e-12</wgt>
  <wgt id="844">3.24624e-12</wgt>
  <wgt id="845">4.43605e-12</wgt>
  <wgt id="846">2.93976e-12</wgt>
  <wgt id="847">3.14583e-12</wgt>
  <wgt id="848">2.61205e-12</wgt>
  <wgt id="849">3.18119e-12</wgt>
  <wgt id="850">4.10149e-12</wgt>
  <wgt id="851">3.41081e-12</wgt>
  <wgt id="852">2.5796e-12</wgt>
  <wgt id="853">3.42602e-12</wgt>
  <wgt id="854">3.81078e-12</wgt>
  <wgt id="855">3.62685e-12</wgt>
  <wgt id="856">2.16088e-12</wgt>
  <wgt id="857">3.07e-12</wgt>
  <wgt id="858">3.0378e-12</wgt>
  <wgt id="859">2.87329e-12</wgt>
  <wgt id="860">3.38234e-12</wgt>
  <wgt id="861">2.68683e-12</wgt>
  <wgt id="862">3.15328e-12</wgt>
  <wgt id="863">3.30088e-12</wgt>
  <wgt id="864">3.29555e-12</wgt>
  <wgt id="865">4.51131e-12</wgt>
  <wgt id="866">4.94022e-12</wgt>
  <wgt id="867">3.1684e-12</wgt>
  <wgt id="868">3.07752e-12</wgt>
  <wgt id="869">2.34991e-12</wgt>
  <wgt id="870">2.47923e-12</wgt>
  <wgt id="871">2.40267e-12</wgt>
  <wgt id="872">3.75664e-12</wgt>
  <wgt id="873">2.53006e-12</wgt>
  <wgt id="874">3.27587e-12</wgt>
  <wgt id="875">2.66572e-12</wgt>
  <wgt id="876">3.75698e-12</wgt>
  <wgt id="877">3.57299e-12</wgt>
  <wgt id="878">2.61079e-12</wgt>
  <wgt id="879">4.22394e-12</wgt>
  <wgt id="880">4.27063e-12</wgt>
  <wgt id="881">4.43483e-12</wgt>
  <wgt id="882">3.96239e-12</wgt>
  <wgt id="883">4.13246e-12</wgt>
  <wgt id="884">4.30699e-12</wgt>
  <wgt id="885">4.3531e-12</wgt>
  <wgt id="886">4.15744e-12</wgt>
  <wgt id="887">4.41585e-12</wgt>
  <wgt id="888">4.01379e-12</wgt>
  <wgt id="889">4.13539e-12</wgt>
  <wgt id="890">4.43248e-12</wgt>
  <wgt id="891">4.19766e-12</wgt>
  <wgt id="892">4.56203e-12</wgt>
  <wgt id="893">4.43282e-12</wgt>
  <wgt id="894">4.47169e-12</wgt>
  <wgt id="895">4.17491e-12</wgt>
  <wgt id="896">4.98592e-12</wgt>
  <wgt id="897">4.48371e-12</wgt>
  <wgt id="898">4.0896e-12</wgt>
  <wgt id="899">4.00448e-12</wgt>
  <wgt id="900">4.09375e-12</wgt>
  <wgt id="901">3.85809e-12</wgt>
  <wgt id="902">3.83187e-12</wgt>
  <wgt id="903">3.6862e-12</wgt>
  <wgt id="904">4.23831e-12</wgt>
  <wgt id="905">4.0937e-12</wgt>
  <wgt id="906">4.86372e-12</wgt>
  <wgt id="907">4.62674e-12</wgt>
  <wgt id="908">4.43292e-12</wgt>
  <wgt id="909">3.94119e-12</wgt>
  <wgt id="910">4.051e-12</wgt>
  <wgt id="911">4.16492e-12</wgt>
  <wgt id="912">4.14748e-12</wgt>
  <wgt id="913">3.80073e-12</wgt>
  <wgt id="914">4.20213e-12</wgt>
  <wgt id="915">4.14085e-12</wgt>
  <wgt id="916">4.56927e-12</wgt>
  <wgt id="917">4.13984e-12</wgt>
  <wgt id="918">4.17461e-12</wgt>
  <wgt id="919">4.06391e-12</wgt>
  <wgt id="920">4.0091e-12</wgt>
  <wgt id="921">4.22076e-12</wgt>
  <wgt id="922">3.83226e-12</wgt>
  <wgt id="923">3.98828e-12</wgt>
  <wgt id="924">3.86917e-12</wgt>
  <wgt id="925">3.72791e-12</wgt>
  <wgt id="926">4.51541e-12</wgt>
  <wgt id="927">4.43156e-12</wgt>
  <wgt id="928">4.45517e-12</wgt>
  <wgt id="929">4.26144e-12</wgt>
  <wgt id="930">4.13015e-12</wgt>
  <wgt id="931">4.12688e-12</wgt>
  <wgt id="932">3.88516e-12</wgt>
  <wgt id="933">4.56938e-12</wgt>
  <wgt id="934">4.16907e-12</wgt>
  <wgt id="935">4.65485e-12</wgt>
  <wgt id="936">4.20338e-12</wgt>
  <wgt id="937">4.3284e-12</wgt>
  <wgt id="938">4.21182e-12</wgt>
  <wgt id="939">4.13188e-12</wgt>
  <wgt id="940">4.28732e-12</wgt>
  <wgt id="941">4.01017e-12</wgt>
  <wgt id="942">4.30681e-12</wgt>
  <wgt id="943">4.70579e-12</wgt>
  <wgt id="944">3.78234e-12</wgt>
  <wgt id="945">4.16056e-12</wgt>
  <wgt id="946">4.01987e-12</wgt>
  <wgt id="947">4.13777e-12</wgt>
  <wgt id="948">4.42667e-12</wgt>
  <wgt id="949">4.50414e-12</wgt>
  <wgt id="950">3.80736e-12</wgt>
  <wgt id="951">4.16872e-12</wgt>
  <wgt id="952">4.44232e-12</wgt>
  <wgt id="953">4.3191e-12</wgt>
  <wgt id="954">4.35144e-12</wgt>
  <wgt id="955">3.86624e-12</wgt>
  <wgt id="956">4.00469e-12</wgt>
  <wgt id="957">4.41863e-12</wgt>
  <wgt id="958">4.2342e-12</wgt>
  <wgt id="959">4.24414e-12</wgt>
  <wgt id="960">3.87499e-12</wgt>
  <wgt id="961">4.25241e-12</wgt>
  <wgt id="962">4.33954e-12</wgt>
  <wgt id="963">4.2641e-12</wgt>
  <wgt id="964">4.45786e-12</wgt>
  <wgt id="965">4.48669e-12</wgt>
  <wgt id="966">4.20729e-12</wgt>
  <wgt id="967">4.39826e-12</wgt>
  <wgt id="968">4.29697e-12</wgt>
  <wgt id="969">4.22015e-12</wgt>
  <wgt id="970">4.33244e-12</wgt>
  <wgt id="971">3.97631e-12</wgt>
  <wgt id="972">4.48334e-12</wgt>
  <wgt id="973">4.10294e-12</wgt>
  <wgt id="974">5.00903e-12</wgt>
  <wgt id="975">3.99375e-12</wgt>
  <wgt id="976">4.19055e-12</wgt>
  <wgt id="977">3.72558e-12</wgt>
  <wgt id="978">4.45378e-12</wgt>
  <wgt id="979">4.62054e-12</wgt>
  <wgt id="980">4.22036e-12</wgt>
  <wgt id="981">4.25121e-12</wgt>
  <wgt id="982">4.10065e-12</wgt>
</rwgt>
</event>
<event>
 5   1  0.3028200E-11  0.2381413E+04  0.7818608E-02  0.7683795E-01
       21   -1    0    0  502  501  0.00000000000E+00  0.00000000000E+00  0.60633756312E+03  0.60633756312E+03  0.00000000000E+00 0. -1.
       21   -1    0    0  501  502 -0.00000000000E+00 -0.00000000000E+00 -0.23382723836E+04  0.23382723836E+04  0.00000000000E+00 0.  1.
       39    2    1    2    0    0  0.00000000000E+00  0.00000000000E+00 -0.17319348204E+04  0.29446099467E+04  0.23814133442E+04 0.  0.
       25    1    3    3    0    0 -0.65630906232E+03 -0.87149500777E+03 -0.29675938016E+03  0.11375131927E+04  0.12500000000E+03 0.  0.
       25    1    3    3    0    0  0.65630906232E+03  0.87149500777E+03 -0.14351754403E+04  0.18070967540E+04  0.12500000000E+03 0.  0.
<mgrwt>
<rscale>  0 0.23814133E+04</rscale>
<asrwt>0</asrwt>
<pdfrwt beam="1">  1       21 0.93282702E-01 0.23814133E+04</pdfrwt>
<pdfrwt beam="2">  1       21 0.35973421E+00 0.23814133E+04</pdfrwt>
<totfact> 0.48782043E+00</totfact>
</mgrwt>
<rwgt>
  <wgt id="1">3.0282e-12</wgt>
  <wgt id="2">2.59929e-12</wgt>
  <wgt id="3">3.56974e-12</wgt>
  <wgt id="4">3.0282e-12</wgt>
  <wgt id="5">2.59929e-12</wgt>
  <wgt id="6">3.56974e-12</wgt>
  <wgt id="7">3.0282e-12</wgt>
  <wgt id="8">2.59929e-12</wgt>
  <wgt id="9">3.56974e-12</wgt>
  <wgt id="10">3.21727e-12</wgt>
  <wgt id="11">3.21772e-12</wgt>
  <wgt id="12">3.20754e-12</wgt>
  <wgt id="13">3.21255e-12</wgt>
  <wgt id="14">3.22472e-12</wgt>
  <wgt id="15">3.22202e-12</wgt>
  <wgt id="16">3.2053e-12</wgt>
  <wgt id="17">3.24021e-12</wgt>
  <wgt id="18">3.21629e-12</wgt>
  <wgt id="19">3.23364e-12</wgt>
  <wgt id="20">3.21929e-12</wgt>
  <wgt id="21">3.18868e-12</wgt>
  <wgt id="22">3.19043e-12</wgt>
  <wgt id="23">3.16024e-12</wgt>
  <wgt id="24">3.18836e-12</wgt>
  <wgt id="25">3.20518e-12</wgt>
  <wgt id="26">3.22469e-12</wgt>
  <wgt id="27">3.20924e-12</wgt>
  <wgt id="28">3.19472e-12</wgt>
  <wgt id="29">3.21774e-12</wgt>
  <wgt id="30">3.18451e-12</wgt>
  <wgt id="31">3.23178e-12</wgt>
  <wgt id="32">3.18333e-12</wgt>
  <wgt id="33">3.21994e-12</wgt>
  <wgt id="34">3.19128e-12</wgt>
  <wgt id="35">3.18457e-12</wgt>
  <wgt id="36">3.23395e-12</wgt>
  <wgt id="37">3.20585e-12</wgt>
  <wgt id="38">3.20127e-12</wgt>
  <wgt id="39">3.2857e-12</wgt>
  <wgt id="40">3.22407e-12</wgt>
  <wgt id="41">3.21457e-12</wgt>
  <wgt id="42">3.22621e-12</wgt>
  <wgt id="43">3.22303e-12</wgt>
  <wgt id="44">3.24043e-12</wgt>
  <wgt id="45">3.22097e-12</wgt>
  <wgt id="46">3.19643e-12</wgt>
  <wgt id="47">3.26539e-12</wgt>
  <wgt id="48">3.24801e-12</wgt>
  <wgt id="49">3.19942e-12</wgt>
  <wgt id="50">3.1779e-12</wgt>
  <wgt id="51">3.1877e-12</wgt>
  <wgt id="52">3.22282e-12</wgt>
  <wgt id="53">3.2759e-12</wgt>
  <wgt id="54">3.24203e-12</wgt>
  <wgt id="55">3.21103e-12</wgt>
  <wgt id="56">3.17901e-12</wgt>
  <wgt id="57">3.18139e-12</wgt>
  <wgt id="58">3.21729e-12</wgt>
  <wgt id="59">3.22971e-12</wgt>
  <wgt id="60">3.17344e-12</wgt>
  <wgt id="61">3.20698e-12</wgt>
  <wgt id="62">3.2215e-12</wgt>
  <wgt id="63">3.2142e-12</wgt>
  <wgt id="64">3.21246e-12</wgt>
  <wgt id="65">3.19351e-12</wgt>
  <wgt id="66">3.22966e-12</wgt>
  <wgt id="67">3.23004e-12</wgt>
  <wgt id="68">3.21552e-12</wgt>
  <wgt id="69">3.20915e-12</wgt>
  <wgt id="70">3.19657e-12</wgt>
  <wgt id="71">3.22494e-12</wgt>
  <wgt id="72">3.2086e-12</wgt>
  <wgt id="73">3.22245e-12</wgt>
  <wgt id="74">3.23734e-12</wgt>
  <wgt id="75">3.20267e-12</wgt>
  <wgt id="76">3.24303e-12</wgt>
  <wgt id="77">3.20917e-12</wgt>
  <wgt id="78">3.21443e-12</wgt>
  <wgt id="79">3.22515e-12</wgt>
  <wgt id="80">3.18665e-12</wgt>
  <wgt id="81">3.2135e-12</wgt>
  <wgt id="82">3.22089e-12</wgt>
  <wgt id="83">3.19026e-12</wgt>
  <wgt id="84">3.19905e-12</wgt>
  <wgt id="85">3.19755e-12</wgt>
  <wgt id="86">3.24009e-12</wgt>
  <wgt id="87">3.17509e-12</wgt>
  <wgt id="88">3.23113e-12</wgt>
  <wgt id="89">3.22755e-12</wgt>
  <wgt id="90">3.23259e-12</wgt>
  <wgt id="91">3.22174e-12</wgt>
  <wgt id="92">3.23076e-12</wgt>
  <wgt id="93">3.22076e-12</wgt>
  <wgt id="94">3.20346e-12</wgt>
  <wgt id="95">3.22973e-12</wgt>
  <wgt id="96">3.23031e-12</wgt>
  <wgt id="97">3.19828e-12</wgt>
  <wgt id="98">3.2179e-12</wgt>
  <wgt id="99">3.21517e-12</wgt>
  <wgt id="100">3.22382e-12</wgt>
  <wgt id="101">3.20826e-12</wgt>
  <wgt id="102">3.20811e-12</wgt>
  <wgt id="103">3.23221e-12</wgt>
  <wgt id="104">3.21157e-12</wgt>
  <wgt id="105">3.23074e-12</wgt>
  <wgt id="106">3.20484e-12</wgt>
  <wgt id="107">3.24288e-12</wgt>
  <wgt id="108">3.20944e-12</wgt>
  <wgt id="109">3.21608e-12</wgt>
  <wgt id="110">3.21795e-12</wgt>
  <wgt id="111">3.20123e-12</wgt>
  <wgt id="112">3.27109e-12</wgt>
  <wgt id="113">4.79022e-12</wgt>
  <wgt id="114">4.23452e-12</wgt>
  <wgt id="115">4.15232e-12</wgt>
  <wgt id="116">5.76832e-12</wgt>
  <wgt id="117">3.54538e-12</wgt>
  <wgt id="118">3.55929e-12</wgt>
  <wgt id="119">3.53745e-12</wgt>
  <wgt id="120">3.54531e-12</wgt>
  <wgt id="121">3.54534e-12</wgt>
  <wgt id="122">3.54007e-12</wgt>
  <wgt id="123">3.55274e-12</wgt>
  <wgt id="124">3.54087e-12</wgt>
  <wgt id="125">3.54822e-12</wgt>
  <wgt id="126">3.55021e-12</wgt>
  <wgt id="127">3.54215e-12</wgt>
  <wgt id="128">3.55603e-12</wgt>
  <wgt id="129">3.53485e-12</wgt>
  <wgt id="130">3.56176e-12</wgt>
  <wgt id="131">3.52833e-12</wgt>
  <wgt id="132">3.44326e-12</wgt>
  <wgt id="133">3.66739e-12</wgt>
  <wgt id="134">3.50688e-12</wgt>
  <wgt id="135">3.57567e-12</wgt>
  <wgt id="136">3.60453e-12</wgt>
  <wgt id="137">3.47438e-12</wgt>
  <wgt id="138">3.71991e-12</wgt>
  <wgt id="139">3.38121e-12</wgt>
  <wgt id="140">3.53135e-12</wgt>
  <wgt id="141">3.55563e-12</wgt>
  <wgt id="142">3.54399e-12</wgt>
  <wgt id="143">3.55871e-12</wgt>
  <wgt id="144">3.37529e-12</wgt>
  <wgt id="145">3.7141e-12</wgt>
  <wgt id="146">3.6012e-12</wgt>
  <wgt id="147">3.49929e-12</wgt>
  <wgt id="148">3.55912e-12</wgt>
  <wgt id="149">3.54434e-12</wgt>
  <wgt id="150">3.5752e-12</wgt>
  <wgt id="151">3.53145e-12</wgt>
  <wgt id="152">3.54607e-12</wgt>
  <wgt id="153">3.54505e-12</wgt>
  <wgt id="154">3.54441e-12</wgt>
  <wgt id="155">3.53698e-12</wgt>
  <wgt id="156">3.69083e-12</wgt>
  <wgt id="157">3.41833e-12</wgt>
  <wgt id="158">4.23547e-12</wgt>
  <wgt id="159">4.25375e-12</wgt>
  <wgt id="160">4.22079e-12</wgt>
  <wgt id="161">4.22428e-12</wgt>
  <wgt id="162">4.24804e-12</wgt>
  <wgt id="163">4.23048e-12</wgt>
  <wgt id="164">4.2429e-12</wgt>
  <wgt id="165">4.23689e-12</wgt>
  <wgt id="166">4.23438e-12</wgt>
  <wgt id="167">4.23268e-12</wgt>
  <wgt id="168">4.23946e-12</wgt>
  <wgt id="169">4.2187e-12</wgt>
  <wgt id="170">4.24603e-12</wgt>
  <wgt id="171">4.23278e-12</wgt>
  <wgt id="172">4.23933e-12</wgt>
  <wgt id="173">4.22476e-12</wgt>
  <wgt id="174">4.23923e-12</wgt>
  <wgt id="175">4.10752e-12</wgt>
  <wgt id="176">4.40358e-12</wgt>
  <wgt id="177">4.25407e-12</wgt>
  <wgt id="178">4.21878e-12</wgt>
  <wgt id="179">4.472e-12</wgt>
  <wgt id="180">3.87509e-12</wgt>
  <wgt id="181">4.08359e-12</wgt>
  <wgt id="182">4.33733e-12</wgt>
  <wgt id="183">4.14348e-12</wgt>
  <wgt id="184">4.28128e-12</wgt>
  <wgt id="185">4.18285e-12</wgt>
  <wgt id="186">4.29914e-12</wgt>
  <wgt id="187">4.18299e-12</wgt>
  <wgt id="188">4.32761e-12</wgt>
  <wgt id="189">4.19931e-12</wgt>
  <wgt id="190">4.25025e-12</wgt>
  <wgt id="191">4.25231e-12</wgt>
  <wgt id="192">4.22545e-12</wgt>
  <wgt id="193">4.31279e-12</wgt>
  <wgt id="194">4.19638e-12</wgt>
  <wgt id="195">4.05648e-12</wgt>
  <wgt id="196">4.52291e-12</wgt>
  <wgt id="197">4.25916e-12</wgt>
  <wgt id="198">4.22972e-12</wgt>
  <wgt id="199">4.23547e-12</wgt>
  <wgt id="200">4.27924e-12</wgt>
  <wgt id="201">4.26489e-12</wgt>
  <wgt id="202">4.2506e-12</wgt>
  <wgt id="203">4.23091e-12</wgt>
  <wgt id="204">4.22058e-12</wgt>
  <wgt id="205">4.21223e-12</wgt>
  <wgt id="206">4.15362e-12</wgt>
  <wgt id="207">4.17882e-12</wgt>
  <wgt id="208">4.12842e-12</wgt>
  <wgt id="209">4.16647e-12</wgt>
  <wgt id="210">4.14411e-12</wgt>
  <wgt id="211">4.15204e-12</wgt>
  <wgt id="212">4.15477e-12</wgt>
  <wgt id="213">4.15312e-12</wgt>
  <wgt id="214">4.154e-12</wgt>
  <wgt id="215">4.15687e-12</wgt>
  <wgt id="216">4.15128e-12</wgt>
  <wgt id="217">4.16232e-12</wgt>
  <wgt id="218">4.14658e-12</wgt>
  <wgt id="219">4.14859e-12</wgt>
  <wgt id="220">4.1566e-12</wgt>
  <wgt id="221">4.15624e-12</wgt>
  <wgt id="222">4.14583e-12</wgt>
  <wgt id="223">3.9033e-12</wgt>
  <wgt id="224">4.38371e-12</wgt>
  <wgt id="225">4.10021e-12</wgt>
  <wgt id="226">4.22168e-12</wgt>
  <wgt id="227">4.11238e-12</wgt>
  <wgt id="228">4.1717e-12</wgt>
  <wgt id="229">4.09135e-12</wgt>
  <wgt id="230">4.18441e-12</wgt>
  <wgt id="231">4.30756e-12</wgt>
  <wgt id="232">4.02808e-12</wgt>
  <wgt id="233">4.12421e-12</wgt>
  <wgt id="234">4.20334e-12</wgt>
  <wgt id="235">3.9417e-12</wgt>
  <wgt id="236">4.32418e-12</wgt>
  <wgt id="237">4.03315e-12</wgt>
  <wgt id="238">4.1935e-12</wgt>
  <wgt id="239">4.10573e-12</wgt>
  <wgt id="240">4.23928e-12</wgt>
  <wgt id="241">4.09784e-12</wgt>
  <wgt id="242">4.21902e-12</wgt>
  <wgt id="243">4.2391e-12</wgt>
  <wgt id="244">4.14571e-12</wgt>
  <wgt id="245">4.15255e-12</wgt>
  <wgt id="246">4.17418e-12</wgt>
  <wgt id="247">4.15362e-12</wgt>
  <wgt id="248">4.20228e-12</wgt>
  <wgt id="249">4.18607e-12</wgt>
  <wgt id="250">4.16814e-12</wgt>
  <wgt id="251">4.14509e-12</wgt>
  <wgt id="252">4.13275e-12</wgt>
  <wgt id="253">4.12464e-12</wgt>
  <wgt id="254">3.98079e-12</wgt>
  <wgt id="255">3.98424e-12</wgt>
  <wgt id="256">3.97699e-12</wgt>
  <wgt id="257">3.98386e-12</wgt>
  <wgt id="258">3.97853e-12</wgt>
  <wgt id="259">4.00769e-12</wgt>
  <wgt id="260">3.9549e-12</wgt>
  <wgt id="261">3.98792e-12</wgt>
  <wgt id="262">3.97235e-12</wgt>
  <wgt id="263">3.97733e-12</wgt>
  <wgt id="264">3.9847e-12</wgt>
  <wgt id="265">3.97574e-12</wgt>
  <wgt id="266">3.99099e-12</wgt>
  <wgt id="267">3.98219e-12</wgt>
  <wgt id="268">3.97884e-12</wgt>
  <wgt id="269">3.99332e-12</wgt>
  <wgt id="270">3.97223e-12</wgt>
  <wgt id="271">3.96836e-12</wgt>
  <wgt id="272">3.99482e-12</wgt>
  <wgt id="273">3.97047e-12</wgt>
  <wgt id="274">3.98871e-12</wgt>
  <wgt id="275">3.95299e-12</wgt>
  <wgt id="276">4.00974e-12</wgt>
  <wgt id="277">3.95771e-12</wgt>
  <wgt id="278">4.00177e-12</wgt>
  <wgt id="279">3.90456e-12</wgt>
  <wgt id="280">4.07702e-12</wgt>
  <wgt id="281">3.95976e-12</wgt>
  <wgt id="282">3.98979e-12</wgt>
  <wgt id="283">3.83954e-12</wgt>
  <wgt id="284">4.1584e-12</wgt>
  <wgt id="285">3.74914e-12</wgt>
  <wgt id="286">4.17893e-12</wgt>
  <wgt id="287">3.99586e-12</wgt>
  <wgt id="288">3.96161e-12</wgt>
  <wgt id="289">4.01582e-12</wgt>
  <wgt id="290">3.90506e-12</wgt>
  <wgt id="291">3.96379e-12</wgt>
  <wgt id="292">3.97918e-12</wgt>
  <wgt id="293">3.94294e-12</wgt>
  <wgt id="294">4.01847e-12</wgt>
  <wgt id="295">3.88949e-12</wgt>
  <wgt id="296">4.09287e-12</wgt>
  <wgt id="297">3.96559e-12</wgt>
  <wgt id="298">4.00425e-12</wgt>
  <wgt id="299">3.96643e-12</wgt>
  <wgt id="300">4.01906e-12</wgt>
  <wgt id="301">3.88365e-12</wgt>
  <wgt id="302">4.19924e-12</wgt>
  <wgt id="303">3.92824e-12</wgt>
  <wgt id="304">4.00996e-12</wgt>
  <wgt id="305">3.92232e-12</wgt>
  <wgt id="306">3.92591e-12</wgt>
  <wgt id="307">3.91843e-12</wgt>
  <wgt id="308">3.92566e-12</wgt>
  <wgt id="309">3.92013e-12</wgt>
  <wgt id="310">3.94947e-12</wgt>
  <wgt id="311">3.89737e-12</wgt>
  <wgt id="312">3.92908e-12</wgt>
  <wgt id="313">3.91509e-12</wgt>
  <wgt id="314">3.91873e-12</wgt>
  <wgt id="315">3.92575e-12</wgt>
  <wgt id="316">3.91726e-12</wgt>
  <wgt id="317">3.9337e-12</wgt>
  <wgt id="318">3.9255e-12</wgt>
  <wgt id="319">3.91689e-12</wgt>
  <wgt id="320">3.93596e-12</wgt>
  <wgt id="321">3.91482e-12</wgt>
  <wgt id="322">3.90931e-12</wgt>
  <wgt id="323">3.93771e-12</wgt>
  <wgt id="324">3.91522e-12</wgt>
  <wgt id="325">3.92854e-12</wgt>
  <wgt id="326">3.89931e-12</wgt>
  <wgt id="327">3.95197e-12</wgt>
  <wgt id="328">3.9028e-12</wgt>
  <wgt id="329">3.93304e-12</wgt>
  <wgt id="330">4.03675e-12</wgt>
  <wgt id="331">3.81394e-12</wgt>
  <wgt id="332">3.90487e-12</wgt>
  <wgt id="333">3.92847e-12</wgt>
  <wgt id="334">3.81649e-12</wgt>
  <wgt id="335">4.05589e-12</wgt>
  <wgt id="336">3.76031e-12</wgt>
  <wgt id="337">4.12526e-12</wgt>
  <wgt id="338">3.97425e-12</wgt>
  <wgt id="339">3.87488e-12</wgt>
  <wgt id="340">3.95311e-12</wgt>
  <wgt id="341">3.84781e-12</wgt>
  <wgt id="342">3.91058e-12</wgt>
  <wgt id="343">3.91167e-12</wgt>
  <wgt id="344">3.88986e-12</wgt>
  <wgt id="345">3.96024e-12</wgt>
  <wgt id="346">3.83005e-12</wgt>
  <wgt id="347">4.02797e-12</wgt>
  <wgt id="348">3.90753e-12</wgt>
  <wgt id="349">3.94403e-12</wgt>
  <wgt id="350">3.90488e-12</wgt>
  <wgt id="351">3.96699e-12</wgt>
  <wgt id="352">3.82582e-12</wgt>
  <wgt id="353">4.13003e-12</wgt>
  <wgt id="354">3.84955e-12</wgt>
  <wgt id="355">3.96512e-12</wgt>
  <wgt id="356">3.98079e-12</wgt>
  <wgt id="357">3.91925e-12</wgt>
  <wgt id="358">3.92232e-12</wgt>
  <wgt id="359">3.97279e-12</wgt>
  <wgt id="360">4.07177e-12</wgt>
  <wgt id="361">4.00582e-12</wgt>
  <wgt id="362">4.09388e-12</wgt>
  <wgt id="363">4.08263e-12</wgt>
  <wgt id="364">4.05894e-12</wgt>
  <wgt id="365">4.04203e-12</wgt>
  <wgt id="366">4.0254e-12</wgt>
  <wgt id="367">3.99479e-12</wgt>
  <wgt id="368">3.97422e-12</wgt>
  <wgt id="369">3.95206e-12</wgt>
  <wgt id="370">4.00582e-12</wgt>
  <wgt id="371">4.02195e-12</wgt>
  <wgt id="372">4.0128e-12</wgt>
  <wgt id="373">4.0001e-12</wgt>
  <wgt id="374">4.00813e-12</wgt>
  <wgt id="375">4.75162e-12</wgt>
  <wgt id="376">4.7519e-12</wgt>
  <wgt id="377">4.75125e-12</wgt>
  <wgt id="378">4.77035e-12</wgt>
  <wgt id="379">4.73303e-12</wgt>
  <wgt id="380">4.76557e-12</wgt>
  <wgt id="381">4.74606e-12</wgt>
  <wgt id="382">4.77324e-12</wgt>
  <wgt id="383">4.7303e-12</wgt>
  <wgt id="384">4.75481e-12</wgt>
  <wgt id="385">4.74871e-12</wgt>
  <wgt id="386">4.7657e-12</wgt>
  <wgt id="387">4.74564e-12</wgt>
  <wgt id="388">4.74765e-12</wgt>
  <wgt id="389">4.75651e-12</wgt>
  <wgt id="390">4.7617e-12</wgt>
  <wgt id="391">4.74103e-12</wgt>
  <wgt id="392">4.70512e-12</wgt>
  <wgt id="393">4.77789e-12</wgt>
  <wgt id="394">4.75373e-12</wgt>
  <wgt id="395">4.74854e-12</wgt>
  <wgt id="396">4.76226e-12</wgt>
  <wgt id="397">4.74418e-12</wgt>
  <wgt id="398">4.7461e-12</wgt>
  <wgt id="399">4.75693e-12</wgt>
  <wgt id="400">4.74364e-12</wgt>
  <wgt id="401">4.76956e-12</wgt>
  <wgt id="402">4.70215e-12</wgt>
  <wgt id="403">4.7873e-12</wgt>
  <wgt id="404">4.9084e-12</wgt>
  <wgt id="405">4.38173e-12</wgt>
  <wgt id="406">4.63861e-12</wgt>
  <wgt id="407">5.00487e-12</wgt>
  <wgt id="408">4.8108e-12</wgt>
  <wgt id="409">4.64348e-12</wgt>
  <wgt id="410">4.56979e-12</wgt>
  <wgt id="411">4.84036e-12</wgt>
  <wgt id="412">4.7392e-12</wgt>
  <wgt id="413">4.76963e-12</wgt>
  <wgt id="414">4.67957e-12</wgt>
  <wgt id="415">4.80769e-12</wgt>
  <wgt id="416">4.9401e-12</wgt>
  <wgt id="417">4.49493e-12</wgt>
  <wgt id="418">4.76312e-12</wgt>
  <wgt id="419">4.69002e-12</wgt>
  <wgt id="420">4.89829e-12</wgt>
  <wgt id="421">4.65147e-12</wgt>
  <wgt id="422">4.70905e-12</wgt>
  <wgt id="423">4.77099e-12</wgt>
  <wgt id="424">4.92523e-12</wgt>
  <wgt id="425">4.63208e-12</wgt>
  <wgt id="426">4.75162e-12</wgt>
  <wgt id="427">4.62583e-12</wgt>
  <wgt id="428">5.0267e-12</wgt>
  <wgt id="429">4.83061e-12</wgt>
  <wgt id="430">5.01048e-12</wgt>
  <wgt id="431">4.97331e-12</wgt>
  <wgt id="432">4.94041e-12</wgt>
  <wgt id="433">4.90808e-12</wgt>
  <wgt id="434">4.8659e-12</wgt>
  <wgt id="435">4.78677e-12</wgt>
  <wgt id="436">4.74737e-12</wgt>
  <wgt id="437">4.7083e-12</wgt>
  <wgt id="438">4.83061e-12</wgt>
  <wgt id="439">4.84505e-12</wgt>
  <wgt id="440">4.83573e-12</wgt>
  <wgt id="441">4.82744e-12</wgt>
  <wgt id="442">4.82503e-12</wgt>
  <wgt id="443">4.16413e-12</wgt>
  <wgt id="444">4.21833e-12</wgt>
  <wgt id="445">4.23131e-12</wgt>
  <wgt id="446">4.13414e-12</wgt>
  <wgt id="447">4.16456e-12</wgt>
  <wgt id="448">4.06521e-12</wgt>
  <wgt id="449">4.27001e-12</wgt>
  <wgt id="450">4.24109e-12</wgt>
  <wgt id="451">4.15095e-12</wgt>
  <wgt id="452">4.25719e-12</wgt>
  <wgt id="453">4.23439e-12</wgt>
  <wgt id="454">3.91809e-12</wgt>
  <wgt id="455">4.21257e-12</wgt>
  <wgt id="456">4.27211e-12</wgt>
  <wgt id="457">4.17809e-12</wgt>
  <wgt id="458">4.24921e-12</wgt>
  <wgt id="459">4.20398e-12</wgt>
  <wgt id="460">4.27744e-12</wgt>
  <wgt id="461">4.04971e-12</wgt>
  <wgt id="462">4.13137e-12</wgt>
  <wgt id="463">4.08781e-12</wgt>
  <wgt id="464">4.14318e-12</wgt>
  <wgt id="465">4.21013e-12</wgt>
  <wgt id="466">4.02964e-12</wgt>
  <wgt id="467">4.13449e-12</wgt>
  <wgt id="468">4.1663e-12</wgt>
  <wgt id="469">4.14965e-12</wgt>
  <wgt id="470">4.0841e-12</wgt>
  <wgt id="471">4.09997e-12</wgt>
  <wgt id="472">4.20073e-12</wgt>
  <wgt id="473">4.01309e-12</wgt>
  <wgt id="474">3.0282e-12</wgt>
  <wgt id="475">3.03171e-12</wgt>
  <wgt id="476">3.04575e-12</wgt>
  <wgt id="477">3.14981e-12</wgt>
  <wgt id="478">3.1103e-12</wgt>
  <wgt id="479">2.80635e-12</wgt>
  <wgt id="480">3.23064e-12</wgt>
  <wgt id="481">3.06318e-12</wgt>
  <wgt id="482">3.08384e-12</wgt>
  <wgt id="483">3.16757e-12</wgt>
  <wgt id="484">3.18678e-12</wgt>
  <wgt id="485">2.69219e-12</wgt>
  <wgt id="486">3.18766e-12</wgt>
  <wgt id="487">2.8866e-12</wgt>
  <wgt id="488">3.01688e-12</wgt>
  <wgt id="489">2.60247e-12</wgt>
  <wgt id="490">3.02404e-12</wgt>
  <wgt id="491">2.9695e-12</wgt>
  <wgt id="492">2.97693e-12</wgt>
  <wgt id="493">2.7087e-12</wgt>
  <wgt id="494">2.70362e-12</wgt>
  <wgt id="495">3.07612e-12</wgt>
  <wgt id="496">2.80308e-12</wgt>
  <wgt id="497">2.78807e-12</wgt>
  <wgt id="498">3.10974e-12</wgt>
  <wgt id="499">3.09655e-12</wgt>
  <wgt id="500">3.08362e-12</wgt>
  <wgt id="501">3.18084e-12</wgt>
  <wgt id="502">3.27214e-12</wgt>
  <wgt id="503">2.93908e-12</wgt>
  <wgt id="504">3.14722e-12</wgt>
  <wgt id="505">3.22353e-12</wgt>
  <wgt id="506">2.6805e-12</wgt>
  <wgt id="507">2.87991e-12</wgt>
  <wgt id="508">3.2226e-12</wgt>
  <wgt id="509">2.96553e-12</wgt>
  <wgt id="510">3.01082e-12</wgt>
  <wgt id="511">2.83646e-12</wgt>
  <wgt id="512">3.32105e-12</wgt>
  <wgt id="513">3.21306e-12</wgt>
  <wgt id="514">3.30845e-12</wgt>
  <wgt id="515">3.21711e-12</wgt>
  <wgt id="516">3.45253e-12</wgt>
  <wgt id="517">3.11041e-12</wgt>
  <wgt id="518">3.19936e-12</wgt>
  <wgt id="519">2.90434e-12</wgt>
  <wgt id="520">3.01925e-12</wgt>
  <wgt id="521">2.87212e-12</wgt>
  <wgt id="522">3.12817e-12</wgt>
  <wgt id="523">2.85029e-12</wgt>
  <wgt id="524">3.17333e-12</wgt>
  <wgt id="525">2.88203e-12</wgt>
  <wgt id="526">3.2757e-12</wgt>
  <wgt id="527">2.97748e-12</wgt>
  <wgt id="528">2.97055e-12</wgt>
  <wgt id="529">2.77923e-12</wgt>
  <wgt id="530">3.24126e-12</wgt>
  <wgt id="531">2.85745e-12</wgt>
  <wgt id="532">3.32314e-12</wgt>
  <wgt id="533">3.09863e-12</wgt>
  <wgt id="534">2.82329e-12</wgt>
  <wgt id="535">3.1361e-12</wgt>
  <wgt id="536">3.19846e-12</wgt>
  <wgt id="537">2.78375e-12</wgt>
  <wgt id="538">2.98711e-12</wgt>
  <wgt id="539">2.94765e-12</wgt>
  <wgt id="540">3.17185e-12</wgt>
  <wgt id="541">3.01367e-12</wgt>
  <wgt id="542">2.90126e-12</wgt>
  <wgt id="543">2.84836e-12</wgt>
  <wgt id="544">3.02825e-12</wgt>
  <wgt id="545">2.79431e-12</wgt>
  <wgt id="546">2.7153e-12</wgt>
  <wgt id="547">2.87473e-12</wgt>
  <wgt id="548">2.9724e-12</wgt>
  <wgt id="549">2.96768e-12</wgt>
  <wgt id="550">2.83253e-12</wgt>
  <wgt id="551">2.99668e-12</wgt>
  <wgt id="552">2.79671e-12</wgt>
  <wgt id="553">2.73079e-12</wgt>
  <wgt id="554">3.14939e-12</wgt>
  <wgt id="555">3.09176e-12</wgt>
  <wgt id="556">3.02404e-12</wgt>
  <wgt id="557">3.04989e-12</wgt>
  <wgt id="558">3.0186e-12</wgt>
  <wgt id="559">3.11496e-12</wgt>
  <wgt id="560">3.35719e-12</wgt>
  <wgt id="561">3.20835e-12</wgt>
  <wgt id="562">3.15821e-12</wgt>
  <wgt id="563">3.35846e-12</wgt>
  <wgt id="564">3.27315e-12</wgt>
  <wgt id="565">3.28938e-12</wgt>
  <wgt id="566">2.80627e-12</wgt>
  <wgt id="567">3.06258e-12</wgt>
  <wgt id="568">2.83574e-12</wgt>
  <wgt id="569">3.07918e-12</wgt>
  <wgt id="570">3.17105e-12</wgt>
  <wgt id="571">3.38739e-12</wgt>
  <wgt id="572">2.86508e-12</wgt>
  <wgt id="573">2.94487e-12</wgt>
  <wgt id="574">2.98529e-12</wgt>
  <wgt id="575">3.34145e-12</wgt>
  <wgt id="576">3.78001e-12</wgt>
  <wgt id="577">3.43039e-12</wgt>
  <wgt id="578">3.28861e-12</wgt>
  <wgt id="579">3.48045e-12</wgt>
  <wgt id="580">3.55762e-12</wgt>
  <wgt id="581">3.71454e-12</wgt>
  <wgt id="582">3.66491e-12</wgt>
  <wgt id="583">3.47253e-12</wgt>
  <wgt id="584">3.30754e-12</wgt>
  <wgt id="585">3.00505e-12</wgt>
  <wgt id="586">3.09233e-12</wgt>
  <wgt id="587">3.41701e-12</wgt>
  <wgt id="588">3.8943e-12</wgt>
  <wgt id="589">3.80699e-12</wgt>
  <wgt id="590">3.34628e-12</wgt>
  <wgt id="591">3.44055e-12</wgt>
  <wgt id="592">3.16914e-12</wgt>
  <wgt id="593">3.19789e-12</wgt>
  <wgt id="594">3.15833e-12</wgt>
  <wgt id="595">3.65469e-12</wgt>
  <wgt id="596">4.01667e-12</wgt>
  <wgt id="597">3.42908e-12</wgt>
  <wgt id="598">3.50261e-12</wgt>
  <wgt id="599">3.64267e-12</wgt>
  <wgt id="600">3.79488e-12</wgt>
  <wgt id="601">3.17582e-12</wgt>
  <wgt id="602">3.16888e-12</wgt>
  <wgt id="603">3.03376e-12</wgt>
  <wgt id="604">3.48709e-12</wgt>
  <wgt id="605">3.30371e-12</wgt>
  <wgt id="606">3.36723e-12</wgt>
  <wgt id="607">3.60998e-12</wgt>
  <wgt id="608">3.47774e-12</wgt>
  <wgt id="609">3.30081e-12</wgt>
  <wgt id="610">3.13529e-12</wgt>
  <wgt id="611">3.09923e-12</wgt>
  <wgt id="612">3.37888e-12</wgt>
  <wgt id="613">3.11581e-12</wgt>
  <wgt id="614">3.31857e-12</wgt>
  <wgt id="615">3.49548e-12</wgt>
  <wgt id="616">3.02147e-12</wgt>
  <wgt id="617">3.50301e-12</wgt>
  <wgt id="618">3.71083e-12</wgt>
  <wgt id="619">3.27384e-12</wgt>
  <wgt id="620">3.41965e-12</wgt>
  <wgt id="621">3.27897e-12</wgt>
  <wgt id="622">3.41701e-12</wgt>
  <wgt id="623">3.29874e-12</wgt>
  <wgt id="624">3.33284e-12</wgt>
  <wgt id="625">3.13239e-12</wgt>
  <wgt id="626">2.7391e-12</wgt>
  <wgt id="627">2.91072e-12</wgt>
  <wgt id="628">3.29573e-12</wgt>
  <wgt id="629">3.70112e-12</wgt>
  <wgt id="630">3.26302e-12</wgt>
  <wgt id="631">3.50498e-12</wgt>
  <wgt id="632">2.99648e-12</wgt>
  <wgt id="633">3.31259e-12</wgt>
  <wgt id="634">3.13662e-12</wgt>
  <wgt id="635">3.0648e-12</wgt>
  <wgt id="636">3.3339e-12</wgt>
  <wgt id="637">3.35741e-12</wgt>
  <wgt id="638">3.13944e-12</wgt>
  <wgt id="639">3.11429e-12</wgt>
  <wgt id="640">3.18244e-12</wgt>
  <wgt id="641">3.56323e-12</wgt>
  <wgt id="642">2.86164e-12</wgt>
  <wgt id="643">3.20843e-12</wgt>
  <wgt id="644">3.00374e-12</wgt>
  <wgt id="645">3.34026e-12</wgt>
  <wgt id="646">2.88835e-12</wgt>
  <wgt id="647">3.47607e-12</wgt>
  <wgt id="648">3.59543e-12</wgt>
  <wgt id="649">3.3748e-12</wgt>
  <wgt id="650">3.22389e-12</wgt>
  <wgt id="651">3.59214e-12</wgt>
  <wgt id="652">3.1423e-12</wgt>
  <wgt id="653">3.1768e-12</wgt>
  <wgt id="654">3.43209e-12</wgt>
  <wgt id="655">3.09499e-12</wgt>
  <wgt id="656">3.37726e-12</wgt>
  <wgt id="657">3.72521e-12</wgt>
  <wgt id="658">3.29788e-12</wgt>
  <wgt id="659">3.20186e-12</wgt>
  <wgt id="660">3.11231e-12</wgt>
  <wgt id="661">3.21233e-12</wgt>
  <wgt id="662">3.28714e-12</wgt>
  <wgt id="663">3.44491e-12</wgt>
  <wgt id="664">3.46675e-12</wgt>
  <wgt id="665">3.25303e-12</wgt>
  <wgt id="666">3.23255e-12</wgt>
  <wgt id="667">3.55966e-12</wgt>
  <wgt id="668">3.25442e-12</wgt>
  <wgt id="669">3.26577e-12</wgt>
  <wgt id="670">3.5578e-12</wgt>
  <wgt id="671">3.41934e-12</wgt>
  <wgt id="672">3.36809e-12</wgt>
  <wgt id="673">3.68071e-12</wgt>
  <wgt id="674">3.20363e-12</wgt>
  <wgt id="675">3.13334e-12</wgt>
  <wgt id="676">4.39406e-12</wgt>
  <wgt id="677">4.41696e-12</wgt>
  <wgt id="678">4.97573e-12</wgt>
  <wgt id="679">4.81104e-12</wgt>
  <wgt id="680">4.46385e-12</wgt>
  <wgt id="681">4.20754e-12</wgt>
  <wgt id="682">4.67208e-12</wgt>
  <wgt id="683">3.84081e-12</wgt>
  <wgt id="684">4.73396e-12</wgt>
  <wgt id="685">4.465e-12</wgt>
  <wgt id="686">4.66619e-12</wgt>
  <wgt id="687">4.48192e-12</wgt>
  <wgt id="688">4.2452e-12</wgt>
  <wgt id="689">4.66995e-12</wgt>
  <wgt id="690">4.54325e-12</wgt>
  <wgt id="691">4.48712e-12</wgt>
  <wgt id="692">4.22921e-12</wgt>
  <wgt id="693">6.33617e-12</wgt>
  <wgt id="694">4.98126e-12</wgt>
  <wgt id="695">3.95913e-12</wgt>
  <wgt id="696">4.09769e-12</wgt>
  <wgt id="697">3.74727e-12</wgt>
  <wgt id="698">3.38347e-12</wgt>
  <wgt id="699">3.60381e-12</wgt>
  <wgt id="700">3.85376e-12</wgt>
  <wgt id="701">4.39314e-12</wgt>
  <wgt id="702">4.08786e-12</wgt>
  <wgt id="703">5.83644e-12</wgt>
  <wgt id="704">5.0389e-12</wgt>
  <wgt id="705">5.0194e-12</wgt>
  <wgt id="706">3.96141e-12</wgt>
  <wgt id="707">4.02514e-12</wgt>
  <wgt id="708">4.04477e-12</wgt>
  <wgt id="709">4.18292e-12</wgt>
  <wgt id="710">3.28207e-12</wgt>
  <wgt id="711">4.92416e-12</wgt>
  <wgt id="712">4.04401e-12</wgt>
  <wgt id="713">4.74706e-12</wgt>
  <wgt id="714">3.7475e-12</wgt>
  <wgt id="715">4.07182e-12</wgt>
  <wgt id="716">4.17839e-12</wgt>
  <wgt id="717">3.57941e-12</wgt>
  <wgt id="718">4.50717e-12</wgt>
  <wgt id="719">4.02942e-12</wgt>
  <wgt id="720">4.67197e-12</wgt>
  <wgt id="721">3.66485e-12</wgt>
  <wgt id="722">3.11581e-12</wgt>
  <wgt id="723">5.17469e-12</wgt>
  <wgt id="724">4.88697e-12</wgt>
  <wgt id="725">4.64054e-12</wgt>
  <wgt id="726">4.34975e-12</wgt>
  <wgt id="727">4.47952e-12</wgt>
  <wgt id="728">4.45968e-12</wgt>
  <wgt id="729">3.71268e-12</wgt>
  <wgt id="730">5.01546e-12</wgt>
  <wgt id="731">4.35291e-12</wgt>
  <wgt id="732">5.2983e-12</wgt>
  <wgt id="733">3.9512e-12</wgt>
  <wgt id="734">4.59928e-12</wgt>
  <wgt id="735">4.28547e-12</wgt>
  <wgt id="736">3.93947e-12</wgt>
  <wgt id="737">3.67899e-12</wgt>
  <wgt id="738">4.13469e-12</wgt>
  <wgt id="739">4.57255e-12</wgt>
  <wgt id="740">5.5025e-12</wgt>
  <wgt id="741">4.91761e-12</wgt>
  <wgt id="742">3.97296e-12</wgt>
  <wgt id="743">3.92447e-12</wgt>
  <wgt id="744">4.26197e-12</wgt>
  <wgt id="745">5.00928e-12</wgt>
  <wgt id="746">5.16518e-12</wgt>
  <wgt id="747">3.48934e-12</wgt>
  <wgt id="748">4.14453e-12</wgt>
  <wgt id="749">4.64609e-12</wgt>
  <wgt id="750">4.82899e-12</wgt>
  <wgt id="751">4.45169e-12</wgt>
  <wgt id="752">3.87003e-12</wgt>
  <wgt id="753">3.79507e-12</wgt>
  <wgt id="754">4.60209e-12</wgt>
  <wgt id="755">4.21064e-12</wgt>
  <wgt id="756">4.17852e-12</wgt>
  <wgt id="757">3.6184e-12</wgt>
  <wgt id="758">4.24261e-12</wgt>
  <wgt id="759">4.81232e-12</wgt>
  <wgt id="760">4.07117e-12</wgt>
  <wgt id="761">5.08975e-12</wgt>
  <wgt id="762">5.12196e-12</wgt>
  <wgt id="763">4.70914e-12</wgt>
  <wgt id="764">4.84793e-12</wgt>
  <wgt id="765">4.4829e-12</wgt>
  <wgt id="766">4.53597e-12</wgt>
  <wgt id="767">4.5254e-12</wgt>
  <wgt id="768">3.88068e-12</wgt>
  <wgt id="769">4.59711e-12</wgt>
  <wgt id="770">3.88383e-12</wgt>
  <wgt id="771">5.66806e-12</wgt>
  <wgt id="772">4.25026e-12</wgt>
  <wgt id="773">4.49966e-12</wgt>
  <wgt id="774">3.32051e-12</wgt>
  <wgt id="775">4.64588e-12</wgt>
  <wgt id="776">5.45508e-12</wgt>
  <wgt id="777">3.61823e-12</wgt>
  <wgt id="778">2.57321e-12</wgt>
  <wgt id="779">1.16746e-12</wgt>
  <wgt id="780">2.76822e-13</wgt>
  <wgt id="781">2.82837e-12</wgt>
  <wgt id="782">3.28131e-12</wgt>
  <wgt id="783">7.47185e-13</wgt>
  <wgt id="784">1.35109e-12</wgt>
  <wgt id="785">4.27497e-12</wgt>
  <wgt id="786">6.43813e-13</wgt>
  <wgt id="787">3.76036e-12</wgt>
  <wgt id="788">1.24858e-20</wgt>
  <wgt id="789">1.28999e-12</wgt>
  <wgt id="790">8.35288e-13</wgt>
  <wgt id="791">3.22236e-12</wgt>
  <wgt id="792">3.63194e-12</wgt>
  <wgt id="793">2.15459e-12</wgt>
  <wgt id="794">6.39894e-13</wgt>
  <wgt id="795">4.09027e-12</wgt>
  <wgt id="796">4.08679e-12</wgt>
  <wgt id="797">3.5506e-12</wgt>
  <wgt id="798">1.63869e-12</wgt>
  <wgt id="799">3.76929e-12</wgt>
  <wgt id="800">1.68822e-12</wgt>
  <wgt id="801">2.89939e-12</wgt>
  <wgt id="802">6.2345e-13</wgt>
  <wgt id="803">4.50236e-12</wgt>
  <wgt id="804">4.13329e-12</wgt>
  <wgt id="805">3.96165e-12</wgt>
  <wgt id="806">3.06143e-12</wgt>
  <wgt id="807">2.62825e-12</wgt>
  <wgt id="808">2.60384e-12</wgt>
  <wgt id="809">2.17831e-12</wgt>
  <wgt id="810">4.06288e-12</wgt>
  <wgt id="811">2.78815e-12</wgt>
  <wgt id="812">8.38742e-13</wgt>
  <wgt id="813">9.95141e-13</wgt>
  <wgt id="814">1.4418e-12</wgt>
  <wgt id="815">8.48922e-13</wgt>
  <wgt id="816">1.22796e-12</wgt>
  <wgt id="817">2.73739e-12</wgt>
  <wgt id="818">4.04538e-12</wgt>
  <wgt id="819">1.10801e-12</wgt>
  <wgt id="820">2.2841e-12</wgt>
  <wgt id="821">3.42692e-12</wgt>
  <wgt id="822">1.92494e-12</wgt>
  <wgt id="823">3.75505e-12</wgt>
  <wgt id="824">4.13512e-12</wgt>
  <wgt id="825">3.59914e-13</wgt>
  <wgt id="826">3.84525e-12</wgt>
  <wgt id="827">4.50229e-13</wgt>
  <wgt id="828">3.52529e-12</wgt>
  <wgt id="829">2.72432e-12</wgt>
  <wgt id="830">3.90445e-13</wgt>
  <wgt id="831">3.42472e-12</wgt>
  <wgt id="832">5.33393e-12</wgt>
  <wgt id="833">1.80555e-12</wgt>
  <wgt id="834">5.31837e-12</wgt>
  <wgt id="835">1.34683e-12</wgt>
  <wgt id="836">1.72857e-12</wgt>
  <wgt id="837">3.322e-12</wgt>
  <wgt id="838">1.67925e-12</wgt>
  <wgt id="839">3.50078e-12</wgt>
  <wgt id="840">2.08278e-12</wgt>
  <wgt id="841">4.08684e-12</wgt>
  <wgt id="842">2.80644e-12</wgt>
  <wgt id="843">2.82252e-12</wgt>
  <wgt id="844">3.1822e-12</wgt>
  <wgt id="845">5.5177e-12</wgt>
  <wgt id="846">2.22516e-12</wgt>
  <wgt id="847">2.97267e-12</wgt>
  <wgt id="848">8.7326e-13</wgt>
  <wgt id="849">3.14134e-12</wgt>
  <wgt id="850">4.78336e-12</wgt>
  <wgt id="851">3.40756e-12</wgt>
  <wgt id="852">4.41111e-13</wgt>
  <wgt id="853">3.61396e-12</wgt>
  <wgt id="854">4.2812e-12</wgt>
  <wgt id="855">3.49373e-12</wgt>
  <wgt id="856">3.7457e-13</wgt>
  <wgt id="857">1.92767e-12</wgt>
  <wgt id="858">2.61705e-12</wgt>
  <wgt id="859">2.51812e-12</wgt>
  <wgt id="860">3.65132e-12</wgt>
  <wgt id="861">1.85501e-12</wgt>
  <wgt id="862">2.80284e-12</wgt>
  <wgt id="863">3.32182e-12</wgt>
  <wgt id="864">2.64593e-12</wgt>
  <wgt id="865">4.93151e-12</wgt>
  <wgt id="866">5.36346e-12</wgt>
  <wgt id="867">2.6261e-12</wgt>
  <wgt id="868">2.98474e-12</wgt>
  <wgt id="869">8.08102e-13</wgt>
  <wgt id="870">1.42546e-12</wgt>
  <wgt id="871">1.68002e-12</wgt>
  <wgt id="872">4.55775e-12</wgt>
  <wgt id="873">1.83429e-12</wgt>
  <wgt id="874">3.13783e-12</wgt>
  <wgt id="875">1.61157e-12</wgt>
  <wgt id="876">4.2275e-12</wgt>
  <wgt id="877">3.18082e-12</wgt>
  <wgt id="878">1.95203e-12</wgt>
  <wgt id="879">4.39406e-12</wgt>
  <wgt id="880">4.41696e-12</wgt>
  <wgt id="881">4.97573e-12</wgt>
  <wgt id="882">4.81104e-12</wgt>
  <wgt id="883">4.46385e-12</wgt>
  <wgt id="884">4.20754e-12</wgt>
  <wgt id="885">4.67208e-12</wgt>
  <wgt id="886">3.84081e-12</wgt>
  <wgt id="887">4.73396e-12</wgt>
  <wgt id="888">4.465e-12</wgt>
  <wgt id="889">4.66619e-12</wgt>
  <wgt id="890">4.48192e-12</wgt>
  <wgt id="891">4.2452e-12</wgt>
  <wgt id="892">4.66995e-12</wgt>
  <wgt id="893">4.54325e-12</wgt>
  <wgt id="894">4.48712e-12</wgt>
  <wgt id="895">4.22921e-12</wgt>
  <wgt id="896">6.33617e-12</wgt>
  <wgt id="897">4.98126e-12</wgt>
  <wgt id="898">3.95913e-12</wgt>
  <wgt id="899">4.09769e-12</wgt>
  <wgt id="900">3.74727e-12</wgt>
  <wgt id="901">3.38347e-12</wgt>
  <wgt id="902">3.60381e-12</wgt>
  <wgt id="903">3.85376e-12</wgt>
  <wgt id="904">4.39314e-12</wgt>
  <wgt id="905">4.08786e-12</wgt>
  <wgt id="906">5.83644e-12</wgt>
  <wgt id="907">5.0389e-12</wgt>
  <wgt id="908">5.0194e-12</wgt>
  <wgt id="909">3.96141e-12</wgt>
  <wgt id="910">4.02514e-12</wgt>
  <wgt id="911">4.04477e-12</wgt>
  <wgt id="912">4.18292e-12</wgt>
  <wgt id="913">3.28207e-12</wgt>
  <wgt id="914">4.92416e-12</wgt>
  <wgt id="915">4.04401e-12</wgt>
  <wgt id="916">4.74706e-12</wgt>
  <wgt id="917">3.7475e-12</wgt>
  <wgt id="918">4.07182e-12</wgt>
  <wgt id="919">4.17839e-12</wgt>
  <wgt id="920">3.57941e-12</wgt>
  <wgt id="921">4.50717e-12</wgt>
  <wgt id="922">4.02942e-12</wgt>
  <wgt id="923">4.67197e-12</wgt>
  <wgt id="924">3.66485e-12</wgt>
  <wgt id="925">3.11581e-12</wgt>
  <wgt id="926">5.17469e-12</wgt>
  <wgt id="927">4.88697e-12</wgt>
  <wgt id="928">4.64054e-12</wgt>
  <wgt id="929">4.34975e-12</wgt>
  <wgt id="930">4.47952e-12</wgt>
  <wgt id="931">4.45968e-12</wgt>
  <wgt id="932">3.71268e-12</wgt>
  <wgt id="933">5.01546e-12</wgt>
  <wgt id="934">4.35291e-12</wgt>
  <wgt id="935">5.2983e-12</wgt>
  <wgt id="936">3.9512e-12</wgt>
  <wgt id="937">4.59928e-12</wgt>
  <wgt id="938">4.28547e-12</wgt>
  <wgt id="939">3.93947e-12</wgt>
  <wgt id="940">3.67899e-12</wgt>
  <wgt id="941">4.13469e-12</wgt>
  <wgt id="942">4.57255e-12</wgt>
  <wgt id="943">5.5025e-12</wgt>
  <wgt id="944">4.91761e-12</wgt>
  <wgt id="945">3.97296e-12</wgt>
  <wgt id="946">3.92447e-12</wgt>
  <wgt id="947">4.26197e-12</wgt>
  <wgt id="948">5.00928e-12</wgt>
  <wgt id="949">5.16518e-12</wgt>
  <wgt id="950">3.48934e-12</wgt>
  <wgt id="951">4.14453e-12</wgt>
  <wgt id="952">4.64609e-12</wgt>
  <wgt id="953">4.82899e-12</wgt>
  <wgt id="954">4.45169e-12</wgt>
  <wgt id="955">3.87003e-12</wgt>
  <wgt id="956">3.79507e-12</wgt>
  <wgt id="957">4.60209e-12</wgt>
  <wgt id="958">4.21064e-12</wgt>
  <wgt id="959">4.17852e-12</wgt>
  <wgt id="960">3.6184e-12</wgt>
  <wgt id="961">4.24261e-12</wgt>
  <wgt id="962">4.81232e-12</wgt>
  <wgt id="963">4.07117e-12</wgt>
  <wgt id="964">5.08975e-12</wgt>
  <wgt id="965">5.12196e-12</wgt>
  <wgt id="966">4.70914e-12</wgt>
  <wgt id="967">4.84793e-12</wgt>
  <wgt id="968">4.4829e-12</wgt>
  <wgt id="969">4.53597e-12</wgt>
  <wgt id="970">4.5254e-12</wgt>
  <wgt id="971">3.88068e-12</wgt>
  <wgt id="972">4.59711e-12</wgt>
  <wgt id="973">3.88383e-12</wgt>
  <wgt id="974">5.66806e-12</wgt>
  <wgt id="975">4.25026e-12</wgt>
  <wgt id="976">4.49966e-12</wgt>
  <wgt id="977">3.32051e-12</wgt>
  <wgt id="978">4.64588e-12</wgt>
  <wgt id="979">5.45508e-12</wgt>
  <wgt id="980">4.3559e-12</wgt>
  <wgt id="981">4.5594e-12</wgt>
  <wgt id="982">4.28167e-12</wgt>
</rwgt>
</event>
<event>
 5   1  0.3028200E-11  0.2495696E+04  0.7818608E-02  0.7645838E-01
       21   -1    0    0  502  501  0.00000000000E+00  0.00000000000E+00  0.14344546846E+04  0.14344546846E+04  0.00000000000E+00 0. -1.
       21   -1    0    0  501  502 -0.00000000000E+00 -0.00000000000E+00 -0.10855167183E+04  0.10855167183E+04  0.00000000000E+00 0.  1.
       39    2    1    2    0    0  0.00000000000E+00  0.00000000000E+00  0.34893796634E+03  0.25199714029E+04  0.24956959284E+04 0.  0.
       25    1    3    3    0    0 -0.97734630977E+03 -0.68056208860E+03 -0.17984156016E+03  0.12109246684E+04  0.12500000000E+03 0.  0.
       25    1    3    3    0    0  0.97734630977E+03  0.68056208860E+03  0.52877952650E+03  0.13090467346E+04  0.12500000000E+03 0.  0.
<mgrwt>
<rscale>  0 0.24956959E+04</rscale>
<asrwt>0</asrwt>
<pdfrwt beam="1">  1       21 0.22068534E+00 0.24956959E+04</pdfrwt>
<pdfrwt beam="2">  1       21 0.16700257E+00 0.24956959E+04</pdfrwt>
<totfact> 0.76406777E+00</totfact>
</mgrwt>
<rwgt>
  <wgt id="1">3.0282e-12</wgt>
  <wgt id="2">2.62583e-12</wgt>
  <wgt id="3">3.53002e-12</wgt>
  <wgt id="4">3.0282e-12</wgt>
  <wgt id="5">2.62583e-12</wgt>
  <wgt id="6">3.53002e-12</wgt>
  <wgt id="7">3.0282e-12</wgt>
  <wgt id="8">2.62583e-12</wgt>
  <wgt id="9">3.53002e-12</wgt>
  <wgt id="10">3.15463e-12</wgt>
  <wgt id="11">3.15147e-12</wgt>
  <wgt id="12">3.14833e-12</wgt>
  <wgt id="13">3.14367e-12</wgt>
  <wgt id="14">3.16653e-12</wgt>
  <wgt id="15">3.15962e-12</wgt>
  <wgt id="16">3.14882e-12</wgt>
  <wgt id="17">3.16026e-12</wgt>
  <wgt id="18">3.14758e-12</wgt>
  <wgt id="19">3.1625e-12</wgt>
  <wgt id="20">3.14506e-12</wgt>
  <wgt id="21">3.13485e-12</wgt>
  <wgt id="22">3.14248e-12</wgt>
  <wgt id="23">3.12496e-12</wgt>
  <wgt id="24">3.14011e-12</wgt>
  <wgt id="25">3.14732e-12</wgt>
  <wgt id="26">3.16804e-12</wgt>
  <wgt id="27">3.1547e-12</wgt>
  <wgt id="28">3.1404e-12</wgt>
  <wgt id="29">3.15722e-12</wgt>
  <wgt id="30">3.14733e-12</wgt>
  <wgt id="31">3.16327e-12</wgt>
  <wgt id="32">3.15123e-12</wgt>
  <wgt id="33">3.16343e-12</wgt>
  <wgt id="34">3.14413e-12</wgt>
  <wgt id="35">3.15434e-12</wgt>
  <wgt id="36">3.1669e-12</wgt>
  <wgt id="37">3.14641e-12</wgt>
  <wgt id="38">3.14401e-12</wgt>
  <wgt id="39">3.18719e-12</wgt>
  <wgt id="40">3.16035e-12</wgt>
  <wgt id="41">3.15399e-12</wgt>
  <wgt id="42">3.15925e-12</wgt>
  <wgt id="43">3.15371e-12</wgt>
  <wgt id="44">3.14723e-12</wgt>
  <wgt id="45">3.16353e-12</wgt>
  <wgt id="46">3.16082e-12</wgt>
  <wgt id="47">3.14421e-12</wgt>
  <wgt id="48">3.15427e-12</wgt>
  <wgt id="49">3.15604e-12</wgt>
  <wgt id="50">3.17019e-12</wgt>
  <wgt id="51">3.16872e-12</wgt>
  <wgt id="52">3.15661e-12</wgt>
  <wgt id="53">3.1287e-12</wgt>
  <wgt id="54">3.1473e-12</wgt>
  <wgt id="55">3.15473e-12</wgt>
  <wgt id="56">3.16687e-12</wgt>
  <wgt id="57">3.1644e-12</wgt>
  <wgt id="58">3.13279e-12</wgt>
  <wgt id="59">3.14282e-12</wgt>
  <wgt id="60">3.15565e-12</wgt>
  <wgt id="61">3.14234e-12</wgt>
  <wgt id="62">3.15092e-12</wgt>
  <wgt id="63">3.15581e-12</wgt>
  <wgt id="64">3.15771e-12</wgt>
  <wgt id="65">3.15867e-12</wgt>
  <wgt id="66">3.14981e-12</wgt>
  <wgt id="67">3.14534e-12</wgt>
  <wgt id="68">3.15132e-12</wgt>
  <wgt id="69">3.15486e-12</wgt>
  <wgt id="70">3.1526e-12</wgt>
  <wgt id="71">3.1546e-12</wgt>
  <wgt id="72">3.14973e-12</wgt>
  <wgt id="73">3.15703e-12</wgt>
  <wgt id="74">3.15724e-12</wgt>
  <wgt id="75">3.15089e-12</wgt>
  <wgt id="76">3.16419e-12</wgt>
  <wgt id="77">3.15383e-12</wgt>
  <wgt id="78">3.15485e-12</wgt>
  <wgt id="79">3.16176e-12</wgt>
  <wgt id="80">3.14025e-12</wgt>
  <wgt id="81">3.15108e-12</wgt>
  <wgt id="82">3.15468e-12</wgt>
  <wgt id="83">3.14091e-12</wgt>
  <wgt id="84">3.14796e-12</wgt>
  <wgt id="85">3.14739e-12</wgt>
  <wgt id="86">3.16403e-12</wgt>
  <wgt id="87">3.13615e-12</wgt>
  <wgt id="88">3.15887e-12</wgt>
  <wgt id="89">3.15783e-12</wgt>
  <wgt id="90">3.16055e-12</wgt>
  <wgt id="91">3.15745e-12</wgt>
  <wgt id="92">3.16133e-12</wgt>
  <wgt id="93">3.15492e-12</wgt>
  <wgt id="94">3.15116e-12</wgt>
  <wgt id="95">3.15815e-12</wgt>
  <wgt id="96">3.15739e-12</wgt>
  <wgt id="97">3.14917e-12</wgt>
  <wgt id="98">3.15614e-12</wgt>
  <wgt id="99">3.15175e-12</wgt>
  <wgt id="100">3.1582e-12</wgt>
  <wgt id="101">3.15384e-12</wgt>
  <wgt id="102">3.15113e-12</wgt>
  <wgt id="103">3.15969e-12</wgt>
  <wgt id="104">3.15232e-12</wgt>
  <wgt id="105">3.15854e-12</wgt>
  <wgt id="106">3.14976e-12</wgt>
  <wgt id="107">3.16418e-12</wgt>
  <wgt id="108">3.15106e-12</wgt>
  <wgt id="109">3.15544e-12</wgt>
  <wgt id="110">3.15451e-12</wgt>
  <wgt id="111">3.18067e-12</wgt>
  <wgt id="112">3.15834e-12</wgt>
  <wgt id="113">4.33916e-12</wgt>
  <wgt id="114">4.43298e-12</wgt>
  <wgt id="115">4.37038e-12</wgt>
  <wgt id="116">6.2727e-12</wgt>
  <wgt id="117">3.55483e-12</wgt>
  <wgt id="118">3.5683e-12</wgt>
  <wgt id="119">3.54709e-12</wgt>
  <wgt id="120">3.55504e-12</wgt>
  <wgt id="121">3.55468e-12</wgt>
  <wgt id="122">3.54866e-12</wgt>
  <wgt id="123">3.5631e-12</wgt>
  <wgt id="124">3.54984e-12</wgt>
  <wgt id="125">3.55796e-12</wgt>
  <wgt id="126">3.56176e-12</wgt>
  <wgt id="127">3.55017e-12</wgt>
  <wgt id="128">3.56595e-12</wgt>
  <wgt id="129">3.54375e-12</wgt>
  <wgt id="130">3.57573e-12</wgt>
  <wgt id="131">3.53346e-12</wgt>
  <wgt id="132">3.45925e-12</wgt>
  <wgt id="133">3.66829e-12</wgt>
  <wgt id="134">3.51498e-12</wgt>
  <wgt id="135">3.58607e-12</wgt>
  <wgt id="136">3.60313e-12</wgt>
  <wgt id="137">3.49632e-12</wgt>
  <wgt id="138">3.70048e-12</wgt>
  <wgt id="139">3.41459e-12</wgt>
  <wgt id="140">3.53218e-12</wgt>
  <wgt id="141">3.57244e-12</wgt>
  <wgt id="142">3.55518e-12</wgt>
  <wgt id="143">3.56068e-12</wgt>
  <wgt id="144">3.44141e-12</wgt>
  <wgt id="145">3.66134e-12</wgt>
  <wgt id="146">3.59116e-12</wgt>
  <wgt id="147">3.52573e-12</wgt>
  <wgt id="148">3.56651e-12</wgt>
  <wgt id="149">3.554e-12</wgt>
  <wgt id="150">3.58644e-12</wgt>
  <wgt id="151">3.54012e-12</wgt>
  <wgt id="152">3.55667e-12</wgt>
  <wgt id="153">3.55403e-12</wgt>
  <wgt id="154">3.58002e-12</wgt>
  <wgt id="155">3.52373e-12</wgt>
  <wgt id="156">3.63798e-12</wgt>
  <wgt id="157">3.47132e-12</wgt>
  <wgt id="158">4.27424e-12</wgt>
  <wgt id="159">4.29232e-12</wgt>
  <wgt id="160">4.26004e-12</wgt>
  <wgt id="161">4.26299e-12</wgt>
  <wgt id="162">4.28738e-12</wgt>
  <wgt id="163">4.26931e-12</wgt>
  <wgt id="164">4.28188e-12</wgt>
  <wgt id="165">4.27602e-12</wgt>
  <wgt id="166">4.27313e-12</wgt>
  <wgt id="167">4.27124e-12</wgt>
  <wgt id="168">4.27887e-12</wgt>
  <wgt id="169">4.2563e-12</wgt>
  <wgt id="170">4.28571e-12</wgt>
  <wgt id="171">4.2694e-12</wgt>
  <wgt id="172">4.28143e-12</wgt>
  <wgt id="173">4.27301e-12</wgt>
  <wgt id="174">4.2748e-12</wgt>
  <wgt id="175">4.14958e-12</wgt>
  <wgt id="176">4.43763e-12</wgt>
  <wgt id="177">4.29859e-12</wgt>
  <wgt id="178">4.25228e-12</wgt>
  <wgt id="179">4.46547e-12</wgt>
  <wgt id="180">3.97463e-12</wgt>
  <wgt id="181">4.1429e-12</wgt>
  <wgt id="182">4.36125e-12</wgt>
  <wgt id="183">4.19433e-12</wgt>
  <wgt id="184">4.31425e-12</wgt>
  <wgt id="185">4.23777e-12</wgt>
  <wgt id="186">4.31967e-12</wgt>
  <wgt id="187">4.23421e-12</wgt>
  <wgt id="188">4.34677e-12</wgt>
  <wgt id="189">4.24491e-12</wgt>
  <wgt id="190">4.28638e-12</wgt>
  <wgt id="191">4.28684e-12</wgt>
  <wgt id="192">4.26698e-12</wgt>
  <wgt id="193">4.33946e-12</wgt>
  <wgt id="194">4.24227e-12</wgt>
  <wgt id="195">4.15079e-12</wgt>
  <wgt id="196">4.48588e-12</wgt>
  <wgt id="197">4.29679e-12</wgt>
  <wgt id="198">4.26914e-12</wgt>
  <wgt id="199">4.27424e-12</wgt>
  <wgt id="200">4.31252e-12</wgt>
  <wgt id="201">4.29889e-12</wgt>
  <wgt id="202">4.28537e-12</wgt>
  <wgt id="203">4.26528e-12</wgt>
  <wgt id="204">4.25565e-12</wgt>
  <wgt id="205">4.24797e-12</wgt>
  <wgt id="206">4.13227e-12</wgt>
  <wgt id="207">4.15671e-12</wgt>
  <wgt id="208">4.10829e-12</wgt>
  <wgt id="209">4.14661e-12</wgt>
  <wgt id="210">4.12219e-12</wgt>
  <wgt id="211">4.13068e-12</wgt>
  <wgt id="212">4.13376e-12</wgt>
  <wgt id="213">4.13208e-12</wgt>
  <wgt id="214">4.1329e-12</wgt>
  <wgt id="215">4.13581e-12</wgt>
  <wgt id="216">4.13001e-12</wgt>
  <wgt id="217">4.1446e-12</wgt>
  <wgt id="218">4.1229e-12</wgt>
  <wgt id="219">4.12914e-12</wgt>
  <wgt id="220">4.13451e-12</wgt>
  <wgt id="221">4.13101e-12</wgt>
  <wgt id="222">4.13593e-12</wgt>
  <wgt id="223">3.90579e-12</wgt>
  <wgt id="224">4.33931e-12</wgt>
  <wgt id="225">4.08034e-12</wgt>
  <wgt id="226">4.19806e-12</wgt>
  <wgt id="227">4.09213e-12</wgt>
  <wgt id="228">4.15003e-12</wgt>
  <wgt id="229">4.07321e-12</wgt>
  <wgt id="230">4.16196e-12</wgt>
  <wgt id="231">4.25599e-12</wgt>
  <wgt id="232">4.03113e-12</wgt>
  <wgt id="233">4.10975e-12</wgt>
  <wgt id="234">4.16895e-12</wgt>
  <wgt id="235">4.03112e-12</wgt>
  <wgt id="236">4.22243e-12</wgt>
  <wgt id="237">4.06671e-12</wgt>
  <wgt id="238">4.15473e-12</wgt>
  <wgt id="239">4.10458e-12</wgt>
  <wgt id="240">4.18276e-12</wgt>
  <wgt id="241">4.08805e-12</wgt>
  <wgt id="242">4.18612e-12</wgt>
  <wgt id="243">4.19345e-12</wgt>
  <wgt id="244">4.1486e-12</wgt>
  <wgt id="245">4.13016e-12</wgt>
  <wgt id="246">4.16115e-12</wgt>
  <wgt id="247">4.13227e-12</wgt>
  <wgt id="248">4.16968e-12</wgt>
  <wgt id="249">4.15545e-12</wgt>
  <wgt id="250">4.14234e-12</wgt>
  <wgt id="251">4.12275e-12</wgt>
  <wgt id="252">4.1134e-12</wgt>
  <wgt id="253">4.10693e-12</wgt>
  <wgt id="254">4.04614e-12</wgt>
  <wgt id="255">4.04995e-12</wgt>
  <wgt id="256">4.04189e-12</wgt>
  <wgt id="257">4.04896e-12</wgt>
  <wgt id="258">4.04404e-12</wgt>
  <wgt id="259">4.07325e-12</wgt>
  <wgt id="260">4.01994e-12</wgt>
  <wgt id="261">4.05299e-12</wgt>
  <wgt id="262">4.03772e-12</wgt>
  <wgt id="263">4.04386e-12</wgt>
  <wgt id="264">4.0486e-12</wgt>
  <wgt id="265">4.04096e-12</wgt>
  <wgt id="266">4.05643e-12</wgt>
  <wgt id="267">4.04739e-12</wgt>
  <wgt id="268">4.04412e-12</wgt>
  <wgt id="269">4.06006e-12</wgt>
  <wgt id="270">4.03661e-12</wgt>
  <wgt id="271">4.03905e-12</wgt>
  <wgt id="272">4.05421e-12</wgt>
  <wgt id="273">4.03313e-12</wgt>
  <wgt id="274">4.05595e-12</wgt>
  <wgt id="275">4.02801e-12</wgt>
  <wgt id="276">4.0648e-12</wgt>
  <wgt id="277">4.02226e-12</wgt>
  <wgt id="278">4.06796e-12</wgt>
  <wgt id="279">3.96537e-12</wgt>
  <wgt id="280">4.14747e-12</wgt>
  <wgt id="281">4.02735e-12</wgt>
  <wgt id="282">4.04754e-12</wgt>
  <wgt id="283">3.92501e-12</wgt>
  <wgt id="284">4.1955e-12</wgt>
  <wgt id="285">3.84611e-12</wgt>
  <wgt id="286">4.21207e-12</wgt>
  <wgt id="287">4.05927e-12</wgt>
  <wgt id="288">4.0293e-12</wgt>
  <wgt id="289">4.07568e-12</wgt>
  <wgt id="290">3.978e-12</wgt>
  <wgt id="291">4.03389e-12</wgt>
  <wgt id="292">4.04874e-12</wgt>
  <wgt id="293">4.01359e-12</wgt>
  <wgt id="294">4.07837e-12</wgt>
  <wgt id="295">3.96692e-12</wgt>
  <wgt id="296">4.14278e-12</wgt>
  <wgt id="297">4.0439e-12</wgt>
  <wgt id="298">4.06318e-12</wgt>
  <wgt id="299">4.03241e-12</wgt>
  <wgt id="300">4.08218e-12</wgt>
  <wgt id="301">3.98071e-12</wgt>
  <wgt id="302">4.20399e-12</wgt>
  <wgt id="303">4.01134e-12</wgt>
  <wgt id="304">4.06591e-12</wgt>
  <wgt id="305">4.05211e-12</wgt>
  <wgt id="306">4.05638e-12</wgt>
  <wgt id="307">4.04757e-12</wgt>
  <wgt id="308">4.05549e-12</wgt>
  <wgt id="309">4.05002e-12</wgt>
  <wgt id="310">4.08039e-12</wgt>
  <wgt id="311">4.02602e-12</wgt>
  <wgt id="312">4.05811e-12</wgt>
  <wgt id="313">4.04602e-12</wgt>
  <wgt id="314">4.04997e-12</wgt>
  <wgt id="315">4.05416e-12</wgt>
  <wgt id="316">4.04711e-12</wgt>
  <wgt id="317">4.06299e-12</wgt>
  <wgt id="318">4.05537e-12</wgt>
  <wgt id="319">4.0466e-12</wgt>
  <wgt id="320">4.06695e-12</wgt>
  <wgt id="321">4.04391e-12</wgt>
  <wgt id="322">4.04299e-12</wgt>
  <wgt id="323">4.06272e-12</wgt>
  <wgt id="324">4.04134e-12</wgt>
  <wgt id="325">4.06155e-12</wgt>
  <wgt id="326">4.03759e-12</wgt>
  <wgt id="327">4.0708e-12</wgt>
  <wgt id="328">4.03083e-12</wgt>
  <wgt id="329">4.06404e-12</wgt>
  <wgt id="330">4.17543e-12</wgt>
  <wgt id="331">3.93485e-12</wgt>
  <wgt id="332">4.03631e-12</wgt>
  <wgt id="333">4.05279e-12</wgt>
  <wgt id="334">3.95731e-12</wgt>
  <wgt id="335">4.17009e-12</wgt>
  <wgt id="336">3.90721e-12</wgt>
  <wgt id="337">4.22912e-12</wgt>
  <wgt id="338">4.09873e-12</wgt>
  <wgt id="339">4.00912e-12</wgt>
  <wgt id="340">4.07979e-12</wgt>
  <wgt id="341">3.98118e-12</wgt>
  <wgt id="342">4.04348e-12</wgt>
  <wgt id="343">4.0479e-12</wgt>
  <wgt id="344">4.02289e-12</wgt>
  <wgt id="345">4.08607e-12</wgt>
  <wgt id="346">3.97e-12</wgt>
  <wgt id="347">4.14683e-12</wgt>
  <wgt id="348">4.05134e-12</wgt>
  <wgt id="349">4.06686e-12</wgt>
  <wgt id="350">4.03507e-12</wgt>
  <wgt id="351">4.0954e-12</wgt>
  <wgt id="352">3.9804e-12</wgt>
  <wgt id="353">4.21581e-12</wgt>
  <wgt id="354">3.99943e-12</wgt>
  <wgt id="355">4.08407e-12</wgt>
  <wgt id="356">4.04614e-12</wgt>
  <wgt id="357">4.06706e-12</wgt>
  <wgt id="358">4.05211e-12</wgt>
  <wgt id="359">4.05853e-12</wgt>
  <wgt id="360">4.07966e-12</wgt>
  <wgt id="361">4.06032e-12</wgt>
  <wgt id="362">4.13435e-12</wgt>
  <wgt id="363">4.12394e-12</wgt>
  <wgt id="364">4.10859e-12</wgt>
  <wgt id="365">4.09401e-12</wgt>
  <wgt id="366">4.07799e-12</wgt>
  <wgt id="367">4.04565e-12</wgt>
  <wgt id="368">4.02756e-12</wgt>
  <wgt id="369">4.00791e-12</wgt>
  <wgt id="370">4.06032e-12</wgt>
  <wgt id="371">4.0788e-12</wgt>
  <wgt id="372">4.06872e-12</wgt>
  <wgt id="373">4.0536e-12</wgt>
  <wgt id="374">4.05317e-12</wgt>
  <wgt id="375">4.36961e-12</wgt>
  <wgt id="376">4.37023e-12</wgt>
  <wgt id="377">4.36867e-12</wgt>
  <wgt id="378">4.38567e-12</wgt>
  <wgt id="379">4.35354e-12</wgt>
  <wgt id="380">4.38113e-12</wgt>
  <wgt id="381">4.36498e-12</wgt>
  <wgt id="382">4.39343e-12</wgt>
  <wgt id="383">4.34589e-12</wgt>
  <wgt id="384">4.37248e-12</wgt>
  <wgt id="385">4.36675e-12</wgt>
  <wgt id="386">4.38811e-12</wgt>
  <wgt id="387">4.36154e-12</wgt>
  <wgt id="388">4.36515e-12</wgt>
  <wgt id="389">4.37476e-12</wgt>
  <wgt id="390">4.3819e-12</wgt>
  <wgt id="391">4.35664e-12</wgt>
  <wgt id="392">4.3332e-12</wgt>
  <wgt id="393">4.39028e-12</wgt>
  <wgt id="394">4.37565e-12</wgt>
  <wgt id="395">4.36125e-12</wgt>
  <wgt id="396">4.37378e-12</wgt>
  <wgt id="397">4.36664e-12</wgt>
  <wgt id="398">4.34962e-12</wgt>
  <wgt id="399">4.38897e-12</wgt>
  <wgt id="400">4.36173e-12</wgt>
  <wgt id="401">4.38738e-12</wgt>
  <wgt id="402">4.33186e-12</wgt>
  <wgt id="403">4.38707e-12</wgt>
  <wgt id="404">4.47616e-12</wgt>
  <wgt id="405">4.11315e-12</wgt>
  <wgt id="406">4.29316e-12</wgt>
  <wgt id="407">4.5359e-12</wgt>
  <wgt id="408">4.4089e-12</wgt>
  <wgt id="409">4.29476e-12</wgt>
  <wgt id="410">4.24482e-12</wgt>
  <wgt id="411">4.42779e-12</wgt>
  <wgt id="412">4.36133e-12</wgt>
  <wgt id="413">4.38207e-12</wgt>
  <wgt id="414">4.31971e-12</wgt>
  <wgt id="415">4.40845e-12</wgt>
  <wgt id="416">4.49371e-12</wgt>
  <wgt id="417">4.19843e-12</wgt>
  <wgt id="418">4.37574e-12</wgt>
  <wgt id="419">4.33625e-12</wgt>
  <wgt id="420">4.44608e-12</wgt>
  <wgt id="421">4.32394e-12</wgt>
  <wgt id="422">4.35852e-12</wgt>
  <wgt id="423">4.37548e-12</wgt>
  <wgt id="424">4.4688e-12</wgt>
  <wgt id="425">4.30619e-12</wgt>
  <wgt id="426">4.36961e-12</wgt>
  <wgt id="427">4.32445e-12</wgt>
  <wgt id="428">4.49814e-12</wgt>
  <wgt id="429">4.41331e-12</wgt>
  <wgt id="430">4.54224e-12</wgt>
  <wgt id="431">4.51635e-12</wgt>
  <wgt id="432">4.49212e-12</wgt>
  <wgt id="433">4.46857e-12</wgt>
  <wgt id="434">4.43981e-12</wgt>
  <wgt id="435">4.3804e-12</wgt>
  <wgt id="436">4.35005e-12</wgt>
  <wgt id="437">4.32098e-12</wgt>
  <wgt id="438">4.41331e-12</wgt>
  <wgt id="439">4.42789e-12</wgt>
  <wgt id="440">4.41933e-12</wgt>
  <wgt id="441">4.40896e-12</wgt>
  <wgt id="442">4.40531e-12</wgt>
  <wgt id="443">4.23958e-12</wgt>
  <wgt id="444">4.26644e-12</wgt>
  <wgt id="445">4.22271e-12</wgt>
  <wgt id="446">4.21142e-12</wgt>
  <wgt id="447">4.2243e-12</wgt>
  <wgt id="448">4.12291e-12</wgt>
  <wgt id="449">4.30881e-12</wgt>
  <wgt id="450">4.22729e-12</wgt>
  <wgt id="451">4.23186e-12</wgt>
  <wgt id="452">4.34072e-12</wgt>
  <wgt id="453">4.28455e-12</wgt>
  <wgt id="454">4.06462e-12</wgt>
  <wgt id="455">4.24577e-12</wgt>
  <wgt id="456">4.21283e-12</wgt>
  <wgt id="457">4.25863e-12</wgt>
  <wgt id="458">4.2909e-12</wgt>
  <wgt id="459">4.26956e-12</wgt>
  <wgt id="460">4.26552e-12</wgt>
  <wgt id="461">4.15449e-12</wgt>
  <wgt id="462">4.20154e-12</wgt>
  <wgt id="463">4.18987e-12</wgt>
  <wgt id="464">4.21299e-12</wgt>
  <wgt id="465">4.2882e-12</wgt>
  <wgt id="466">4.1858e-12</wgt>
  <wgt id="467">4.19524e-12</wgt>
  <wgt id="468">4.22726e-12</wgt>
  <wgt id="469">4.22607e-12</wgt>
  <wgt id="470">4.19934e-12</wgt>
  <wgt id="471">4.19852e-12</wgt>
  <wgt id="472">4.26127e-12</wgt>
  <wgt id="473">4.0904e-12</wgt>
  <wgt id="474">3.0282e-12</wgt>
  <wgt id="475">3.2032e-12</wgt>
  <wgt id="476">2.95753e-12</wgt>
  <wgt id="477">2.90659e-12</wgt>
  <wgt id="478">3.043e-12</wgt>
  <wgt id="479">2.9564e-12</wgt>
  <wgt id="480">3.15082e-12</wgt>
  <wgt id="481">2.9791e-12</wgt>
  <wgt id="482">2.92811e-12</wgt>
  <wgt id="483">2.94772e-12</wgt>
  <wgt id="484">3.21218e-12</wgt>
  <wgt id="485">3.01181e-12</wgt>
  <wgt id="486">3.13118e-12</wgt>
  <wgt id="487">3.09244e-12</wgt>
  <wgt id="488">3.07772e-12</wgt>
  <wgt id="489">2.92439e-12</wgt>
  <wgt id="490">2.92129e-12</wgt>
  <wgt id="491">2.99498e-12</wgt>
  <wgt id="492">2.93933e-12</wgt>
  <wgt id="493">2.90671e-12</wgt>
  <wgt id="494">2.93371e-12</wgt>
  <wgt id="495">3.09921e-12</wgt>
  <wgt id="496">2.92936e-12</wgt>
  <wgt id="497">2.9005e-12</wgt>
  <wgt id="498">3.08165e-12</wgt>
  <wgt id="499">2.95937e-12</wgt>
  <wgt id="500">2.98164e-12</wgt>
  <wgt id="501">3.17418e-12</wgt>
  <wgt id="502">2.96381e-12</wgt>
  <wgt id="503">3.02899e-12</wgt>
  <wgt id="504">3.07048e-12</wgt>
  <wgt id="505">2.99928e-12</wgt>
  <wgt id="506">3.09284e-12</wgt>
  <wgt id="507">3.00725e-12</wgt>
  <wgt id="508">3.07712e-12</wgt>
  <wgt id="509">2.91867e-12</wgt>
  <wgt id="510">3.11784e-12</wgt>
  <wgt id="511">2.96655e-12</wgt>
  <wgt id="512">3.08834e-12</wgt>
  <wgt id="513">3.18e-12</wgt>
  <wgt id="514">3.0167e-12</wgt>
  <wgt id="515">2.99038e-12</wgt>
  <wgt id="516">3.12969e-12</wgt>
  <wgt id="517">3.09024e-12</wgt>
  <wgt id="518">3.09559e-12</wgt>
  <wgt id="519">2.93065e-12</wgt>
  <wgt id="520">3.07077e-12</wgt>
  <wgt id="521">3.1242e-12</wgt>
  <wgt id="522">3.15002e-12</wgt>
  <wgt id="523">3.09287e-12</wgt>
  <wgt id="524">3.06231e-12</wgt>
  <wgt id="525">3.13382e-12</wgt>
  <wgt id="526">3.05432e-12</wgt>
  <wgt id="527">3.06553e-12</wgt>
  <wgt id="528">3.05458e-12</wgt>
  <wgt id="529">2.96601e-12</wgt>
  <wgt id="530">3.07285e-12</wgt>
  <wgt id="531">2.99689e-12</wgt>
  <wgt id="532">3.21182e-12</wgt>
  <wgt id="533">2.85553e-12</wgt>
  <wgt id="534">3.04321e-12</wgt>
  <wgt id="535">3.08969e-12</wgt>
  <wgt id="536">3.00423e-12</wgt>
  <wgt id="537">3.03394e-12</wgt>
  <wgt id="538">3.05356e-12</wgt>
  <wgt id="539">2.9775e-12</wgt>
  <wgt id="540">2.96263e-12</wgt>
  <wgt id="541">2.92616e-12</wgt>
  <wgt id="542">2.98667e-12</wgt>
  <wgt id="543">3.02105e-12</wgt>
  <wgt id="544">3.17521e-12</wgt>
  <wgt id="545">2.98601e-12</wgt>
  <wgt id="546">2.978e-12</wgt>
  <wgt id="547">2.93594e-12</wgt>
  <wgt id="548">2.90429e-12</wgt>
  <wgt id="549">2.97109e-12</wgt>
  <wgt id="550">2.98307e-12</wgt>
  <wgt id="551">3.05554e-12</wgt>
  <wgt id="552">2.98997e-12</wgt>
  <wgt id="553">3.01367e-12</wgt>
  <wgt id="554">3.24893e-12</wgt>
  <wgt id="555">3.10179e-12</wgt>
  <wgt id="556">2.92129e-12</wgt>
  <wgt id="557">3.08528e-12</wgt>
  <wgt id="558">2.93392e-12</wgt>
  <wgt id="559">2.98283e-12</wgt>
  <wgt id="560">3.29774e-12</wgt>
  <wgt id="561">2.97958e-12</wgt>
  <wgt id="562">3.08759e-12</wgt>
  <wgt id="563">2.94837e-12</wgt>
  <wgt id="564">3.04215e-12</wgt>
  <wgt id="565">2.91105e-12</wgt>
  <wgt id="566">3.08412e-12</wgt>
  <wgt id="567">2.99018e-12</wgt>
  <wgt id="568">3.00756e-12</wgt>
  <wgt id="569">3.09943e-12</wgt>
  <wgt id="570">2.91516e-12</wgt>
  <wgt id="571">3.36226e-12</wgt>
  <wgt id="572">2.95606e-12</wgt>
  <wgt id="573">2.89746e-12</wgt>
  <wgt id="574">2.92098e-12</wgt>
  <wgt id="575">3.3475e-12</wgt>
  <wgt id="576">3.34478e-12</wgt>
  <wgt id="577">3.42462e-12</wgt>
  <wgt id="578">3.45078e-12</wgt>
  <wgt id="579">3.42212e-12</wgt>
  <wgt id="580">3.42802e-12</wgt>
  <wgt id="581">3.58098e-12</wgt>
  <wgt id="582">3.33665e-12</wgt>
  <wgt id="583">3.3868e-12</wgt>
  <wgt id="584">3.35131e-12</wgt>
  <wgt id="585">3.35673e-12</wgt>
  <wgt id="586">3.26756e-12</wgt>
  <wgt id="587">3.40148e-12</wgt>
  <wgt id="588">3.34042e-12</wgt>
  <wgt id="589">3.43626e-12</wgt>
  <wgt id="590">3.40238e-12</wgt>
  <wgt id="591">3.46923e-12</wgt>
  <wgt id="592">3.25403e-12</wgt>
  <wgt id="593">3.33091e-12</wgt>
  <wgt id="594">3.42432e-12</wgt>
  <wgt id="595">3.34569e-12</wgt>
  <wgt id="596">3.38311e-12</wgt>
  <wgt id="597">3.2631e-12</wgt>
  <wgt id="598">3.22116e-12</wgt>
  <wgt id="599">3.52676e-12</wgt>
  <wgt id="600">3.3207e-12</wgt>
  <wgt id="601">3.25274e-12</wgt>
  <wgt id="602">3.26596e-12</wgt>
  <wgt id="603">3.26887e-12</wgt>
  <wgt id="604">3.40104e-12</wgt>
  <wgt id="605">3.47983e-12</wgt>
  <wgt id="606">3.28506e-12</wgt>
  <wgt id="607">3.3149e-12</wgt>
  <wgt id="608">3.39572e-12</wgt>
  <wgt id="609">3.17858e-12</wgt>
  <wgt id="610">3.22458e-12</wgt>
  <wgt id="611">3.36262e-12</wgt>
  <wgt id="612">3.57238e-12</wgt>
  <wgt id="613">3.3274e-12</wgt>
  <wgt id="614">3.39105e-12</wgt>
  <wgt id="615">3.28266e-12</wgt>
  <wgt id="616">3.5092e-12</wgt>
  <wgt id="617">3.47981e-12</wgt>
  <wgt id="618">3.45876e-12</wgt>
  <wgt id="619">3.29626e-12</wgt>
  <wgt id="620">3.50854e-12</wgt>
  <wgt id="621">3.38773e-12</wgt>
  <wgt id="622">3.40148e-12</wgt>
  <wgt id="623">3.44682e-12</wgt>
  <wgt id="624">3.3452e-12</wgt>
  <wgt id="625">3.30277e-12</wgt>
  <wgt id="626">3.25e-12</wgt>
  <wgt id="627">3.20093e-12</wgt>
  <wgt id="628">3.54311e-12</wgt>
  <wgt id="629">3.27113e-12</wgt>
  <wgt id="630">3.2121e-12</wgt>
  <wgt id="631">3.37422e-12</wgt>
  <wgt id="632">3.20977e-12</wgt>
  <wgt id="633">3.31462e-12</wgt>
  <wgt id="634">3.32162e-12</wgt>
  <wgt id="635">3.24545e-12</wgt>
  <wgt id="636">3.36882e-12</wgt>
  <wgt id="637">3.32673e-12</wgt>
  <wgt id="638">3.21188e-12</wgt>
  <wgt id="639">3.294e-12</wgt>
  <wgt id="640">3.34349e-12</wgt>
  <wgt id="641">3.38237e-12</wgt>
  <wgt id="642">3.18858e-12</wgt>
  <wgt id="643">3.32125e-12</wgt>
  <wgt id="644">3.19009e-12</wgt>
  <wgt id="645">3.38294e-12</wgt>
  <wgt id="646">3.37295e-12</wgt>
  <wgt id="647">3.31268e-12</wgt>
  <wgt id="648">3.37465e-12</wgt>
  <wgt id="649">3.39717e-12</wgt>
  <wgt id="650">3.27776e-12</wgt>
  <wgt id="651">3.36354e-12</wgt>
  <wgt id="652">3.31057e-12</wgt>
  <wgt id="653">3.2483e-12</wgt>
  <wgt id="654">3.32309e-12</wgt>
  <wgt id="655">3.30079e-12</wgt>
  <wgt id="656">3.38037e-12</wgt>
  <wgt id="657">3.50227e-12</wgt>
  <wgt id="658">3.34078e-12</wgt>
  <wgt id="659">3.21092e-12</wgt>
  <wgt id="660">3.408e-12</wgt>
  <wgt id="661">3.2877e-12</wgt>
  <wgt id="662">3.35036e-12</wgt>
  <wgt id="663">3.35468e-12</wgt>
  <wgt id="664">3.30386e-12</wgt>
  <wgt id="665">3.33787e-12</wgt>
  <wgt id="666">3.309e-12</wgt>
  <wgt id="667">3.4554e-12</wgt>
  <wgt id="668">3.3485e-12</wgt>
  <wgt id="669">3.42475e-12</wgt>
  <wgt id="670">3.43155e-12</wgt>
  <wgt id="671">3.3303e-12</wgt>
  <wgt id="672">3.20715e-12</wgt>
  <wgt id="673">3.37275e-12</wgt>
  <wgt id="674">3.28405e-12</wgt>
  <wgt id="675">3.31055e-12</wgt>
  <wgt id="676">4.26261e-12</wgt>
  <wgt id="677">4.30457e-12</wgt>
  <wgt id="678">4.47958e-12</wgt>
  <wgt id="679">3.96818e-12</wgt>
  <wgt id="680">4.18622e-12</wgt>
  <wgt id="681">4.3375e-12</wgt>
  <wgt id="682">4.41907e-12</wgt>
  <wgt id="683">4.18718e-12</wgt>
  <wgt id="684">4.46249e-12</wgt>
  <wgt id="685">4.04392e-12</wgt>
  <wgt id="686">4.14e-12</wgt>
  <wgt id="687">4.48658e-12</wgt>
  <wgt id="688">4.24581e-12</wgt>
  <wgt id="689">4.63214e-12</wgt>
  <wgt id="690">4.46802e-12</wgt>
  <wgt id="691">4.53462e-12</wgt>
  <wgt id="692">4.19972e-12</wgt>
  <wgt id="693">5.07392e-12</wgt>
  <wgt id="694">4.53067e-12</wgt>
  <wgt id="695">4.12909e-12</wgt>
  <wgt id="696">4.02384e-12</wgt>
  <wgt id="697">4.14424e-12</wgt>
  <wgt id="698">3.86025e-12</wgt>
  <wgt id="699">3.84114e-12</wgt>
  <wgt id="700">3.68612e-12</wgt>
  <wgt id="701">4.28078e-12</wgt>
  <wgt id="702">4.1406e-12</wgt>
  <wgt id="703">4.93962e-12</wgt>
  <wgt id="704">4.6969e-12</wgt>
  <wgt id="705">4.48065e-12</wgt>
  <wgt id="706">3.96744e-12</wgt>
  <wgt id="707">4.08337e-12</wgt>
  <wgt id="708">4.20146e-12</wgt>
  <wgt id="709">4.18365e-12</wgt>
  <wgt id="710">3.82566e-12</wgt>
  <wgt id="711">4.23236e-12</wgt>
  <wgt id="712">4.1734e-12</wgt>
  <wgt id="713">4.64283e-12</wgt>
  <wgt id="714">4.16179e-12</wgt>
  <wgt id="715">4.21413e-12</wgt>
  <wgt id="716">4.09431e-12</wgt>
  <wgt id="717">4.03557e-12</wgt>
  <wgt id="718">4.27928e-12</wgt>
  <wgt id="719">3.85085e-12</wgt>
  <wgt id="720">4.00623e-12</wgt>
  <wgt id="721">3.86058e-12</wgt>
  <wgt id="722">3.72978e-12</wgt>
  <wgt id="723">4.57577e-12</wgt>
  <wgt id="724">4.48651e-12</wgt>
  <wgt id="725">4.49684e-12</wgt>
  <wgt id="726">4.29968e-12</wgt>
  <wgt id="727">4.16491e-12</wgt>
  <wgt id="728">4.14581e-12</wgt>
  <wgt id="729">3.90238e-12</wgt>
  <wgt id="730">4.64753e-12</wgt>
  <wgt id="731">4.20341e-12</wgt>
  <wgt id="732">4.71511e-12</wgt>
  <wgt id="733">4.24676e-12</wgt>
  <wgt id="734">4.37136e-12</wgt>
  <wgt id="735">4.2477e-12</wgt>
  <wgt id="736">4.16027e-12</wgt>
  <wgt id="737">4.32867e-12</wgt>
  <wgt id="738">4.02119e-12</wgt>
  <wgt id="739">4.37159e-12</wgt>
  <wgt id="740">4.76316e-12</wgt>
  <wgt id="741">3.81073e-12</wgt>
  <wgt id="742">4.19409e-12</wgt>
  <wgt id="743">4.03036e-12</wgt>
  <wgt id="744">4.17421e-12</wgt>
  <wgt id="745">4.48525e-12</wgt>
  <wgt id="746">4.57196e-12</wgt>
  <wgt id="747">3.81263e-12</wgt>
  <wgt id="748">4.21342e-12</wgt>
  <wgt id="749">4.48147e-12</wgt>
  <wgt id="750">4.38297e-12</wgt>
  <wgt id="751">4.38833e-12</wgt>
  <wgt id="752">3.88428e-12</wgt>
  <wgt id="753">4.03961e-12</wgt>
  <wgt id="754">4.49949e-12</wgt>
  <wgt id="755">4.26951e-12</wgt>
  <wgt id="756">4.28878e-12</wgt>
  <wgt id="757">3.89041e-12</wgt>
  <wgt id="758">4.28747e-12</wgt>
  <wgt id="759">4.40713e-12</wgt>
  <wgt id="760">4.29479e-12</wgt>
  <wgt id="761">4.50066e-12</wgt>
  <wgt id="762">4.54176e-12</wgt>
  <wgt id="763">4.23482e-12</wgt>
  <wgt id="764">4.44898e-12</wgt>
  <wgt id="765">4.36147e-12</wgt>
  <wgt id="766">4.26207e-12</wgt>
  <wgt id="767">4.38101e-12</wgt>
  <wgt id="768">3.99769e-12</wgt>
  <wgt id="769">4.53481e-12</wgt>
  <wgt id="770">4.12794e-12</wgt>
  <wgt id="771">5.08847e-12</wgt>
  <wgt id="772">4.03034e-12</wgt>
  <wgt id="773">4.22253e-12</wgt>
  <wgt id="774">3.73306e-12</wgt>
  <wgt id="775">4.51925e-12</wgt>
  <wgt id="776">4.66954e-12</wgt>
  <wgt id="777">4.00024e-12</wgt>
  <wgt id="778">3.08909e-12</wgt>
  <wgt id="779">2.49432e-12</wgt>
  <wgt id="780">1.95388e-12</wgt>
  <wgt id="781">3.23802e-12</wgt>
  <wgt id="782">3.29474e-12</wgt>
  <wgt id="783">2.50708e-12</wgt>
  <wgt id="784">2.64195e-12</wgt>
  <wgt id="785">3.84234e-12</wgt>
  <wgt id="786">2.32813e-12</wgt>
  <wgt id="787">3.5891e-12</wgt>
  <wgt id="788">1.80285e-12</wgt>
  <wgt id="789">2.43468e-12</wgt>
  <wgt id="790">2.28356e-12</wgt>
  <wgt id="791">2.93218e-12</wgt>
  <wgt id="792">4.07046e-12</wgt>
  <wgt id="793">3.03191e-12</wgt>
  <wgt id="794">2.25892e-12</wgt>
  <wgt id="795">3.7291e-12</wgt>
  <wgt id="796">4.13052e-12</wgt>
  <wgt id="797">3.66871e-12</wgt>
  <wgt id="798">2.79392e-12</wgt>
  <wgt id="799">3.57471e-12</wgt>
  <wgt id="800">2.47067e-12</wgt>
  <wgt id="801">2.85044e-12</wgt>
  <wgt id="802">2.26422e-12</wgt>
  <wgt id="803">4.10904e-12</wgt>
  <wgt id="804">3.69653e-12</wgt>
  <wgt id="805">3.75805e-12</wgt>
  <wgt id="806">3.43573e-12</wgt>
  <wgt id="807">2.92019e-12</wgt>
  <wgt id="808">2.99115e-12</wgt>
  <wgt id="809">2.8326e-12</wgt>
  <wgt id="810">3.50545e-12</wgt>
  <wgt id="811">3.39205e-12</wgt>
  <wgt id="812">2.24887e-12</wgt>
  <wgt id="813">2.33088e-12</wgt>
  <wgt id="814">2.63083e-12</wgt>
  <wgt id="815">2.4946e-12</wgt>
  <wgt id="816">2.18124e-12</wgt>
  <wgt id="817">3.23088e-12</wgt>
  <wgt id="818">3.14092e-12</wgt>
  <wgt id="819">2.48473e-12</wgt>
  <wgt id="820">3.08142e-12</wgt>
  <wgt id="821">3.62359e-12</wgt>
  <wgt id="822">2.47434e-12</wgt>
  <wgt id="823">3.66312e-12</wgt>
  <wgt id="824">4.23502e-12</wgt>
  <wgt id="825">2.18315e-12</wgt>
  <wgt id="826">3.34026e-12</wgt>
  <wgt id="827">1.76841e-12</wgt>
  <wgt id="828">3.9746e-12</wgt>
  <wgt id="829">3.24081e-12</wgt>
  <wgt id="830">2.0627e-12</wgt>
  <wgt id="831">3.37545e-12</wgt>
  <wgt id="832">5.22097e-12</wgt>
  <wgt id="833">2.81686e-12</wgt>
  <wgt id="834">4.87579e-12</wgt>
  <wgt id="835">2.46225e-12</wgt>
  <wgt id="836">3.0242e-12</wgt>
  <wgt id="837">3.57272e-12</wgt>
  <wgt id="838">2.91551e-12</wgt>
  <wgt id="839">3.34624e-12</wgt>
  <wgt id="840">2.8362e-12</wgt>
  <wgt id="841">3.93318e-12</wgt>
  <wgt id="842">2.76645e-12</wgt>
  <wgt id="843">3.07969e-12</wgt>
  <wgt id="844">3.26563e-12</wgt>
  <wgt id="845">4.51724e-12</wgt>
  <wgt id="846">2.92952e-12</wgt>
  <wgt id="847">3.17753e-12</wgt>
  <wgt id="848">2.57309e-12</wgt>
  <wgt id="849">3.18844e-12</wgt>
  <wgt id="850">4.17104e-12</wgt>
  <wgt id="851">3.42784e-12</wgt>
  <wgt id="852">2.54958e-12</wgt>
  <wgt id="853">3.45185e-12</wgt>
  <wgt id="854">3.85036e-12</wgt>
  <wgt id="855">3.67928e-12</wgt>
  <wgt id="856">2.11641e-12</wgt>
  <wgt id="857">3.05805e-12</wgt>
  <wgt id="858">3.04553e-12</wgt>
  <wgt id="859">2.86154e-12</wgt>
  <wgt id="860">3.42119e-12</wgt>
  <wgt id="861">2.64929e-12</wgt>
  <wgt id="862">3.16239e-12</wgt>
  <wgt id="863">3.3252e-12</wgt>
  <wgt id="864">3.32231e-12</wgt>
  <wgt id="865">4.60061e-12</wgt>
  <wgt id="866">5.03685e-12</wgt>
  <wgt id="867">3.19196e-12</wgt>
  <wgt id="868">3.0938e-12</wgt>
  <wgt id="869">2.31333e-12</wgt>
  <wgt id="870">2.44079e-12</wgt>
  <wgt id="871">2.36231e-12</wgt>
  <wgt id="872">3.81337e-12</wgt>
  <wgt id="873">2.49791e-12</wgt>
  <wgt id="874">3.29617e-12</wgt>
  <wgt id="875">2.65194e-12</wgt>
  <wgt id="876">3.81765e-12</wgt>
  <wgt id="877">3.61732e-12</wgt>
  <wgt id="878">2.57402e-12</wgt>
  <wgt id="879">4.26261e-12</wgt>
  <wgt id="880">4.30457e-12</wgt>
  <wgt id="881">4.47958e-12</wgt>
  <wgt id="882">3.96818e-12</wgt>
  <wgt id="883">4.18622e-12</wgt>
  <wgt id="884">4.3375e-12</wgt>
  <wgt id="885">4.41907e-12</wgt>
  <wgt id="886">4.18718e-12</wgt>
  <wgt id="887">4.46249e-12</wgt>
  <wgt id="888">4.04392e-12</wgt>
  <wgt id="889">4.14e-12</wgt>
  <wgt id="890">4.48658e-12</wgt>
  <wgt id="891">4.24581e-12</wgt>
  <wgt id="892">4.63214e-12</wgt>
  <wgt id="893">4.46802e-12</wgt>
  <wgt id="894">4.53462e-12</wgt>
  <wgt id="895">4.19972e-12</wgt>
  <wgt id="896">5.07392e-12</wgt>
  <wgt id="897">4.53067e-12</wgt>
  <wgt id="898">4.12909e-12</wgt>
  <wgt id="899">4.02384e-12</wgt>
  <wgt id="900">4.14424e-12</wgt>
  <wgt id="901">3.86025e-12</wgt>
  <wgt id="902">3.84114e-12</wgt>
  <wgt id="903">3.68612e-12</wgt>
  <wgt id="904">4.28078e-12</wgt>
  <wgt id="905">4.1406e-12</wgt>
  <wgt id="906">4.93962e-12</wgt>
  <wgt id="907">4.6969e-12</wgt>
  <wgt id="908">4.48065e-12</wgt>
  <wgt id="909">3.96744e-12</wgt>
  <wgt id="910">4.08337e-12</wgt>
  <wgt id="911">4.20146e-12</wgt>
  <wgt id="912">4.18365e-12</wgt>
  <wgt id="913">3.82566e-12</wgt>
  <wgt id="914">4.23236e-12</wgt>
  <wgt id="915">4.1734e-12</wgt>
  <wgt id="916">4.64283e-12</wgt>
  <wgt id="917">4.16179e-12</wgt>
  <wgt id="918">4.21413e-12</wgt>
  <wgt id="919">4.09431e-12</wgt>
  <wgt id="920">4.03557e-12</wgt>
  <wgt id="921">4.27928e-12</wgt>
  <wgt id="922">3.85085e-12</wgt>
  <wgt id="923">4.00623e-12</wgt>
  <wgt id="924">3.86058e-12</wgt>
  <wgt id="925">3.72978e-12</wgt>
  <wgt id="926">4.57577e-12</wgt>
  <wgt id="927">4.48651e-12</wgt>
  <wgt id="928">4.49684e-12</wgt>
  <wgt id="929">4.29968e-12</wgt>
  <wgt id="930">4.16491e-12</wgt>
  <wgt id="931">4.14581e-12</wgt>
  <wgt id="932">3.90238e-12</wgt>
  <wgt id="933">4.64753e-12</wgt>
  <wgt id="934">4.20341e-12</wgt>
  <wgt id="935">4.71511e-12</wgt>
  <wgt id="936">4.24676e-12</wgt>
  <wgt id="937">4.37136e-12</wgt>
  <wgt id="938">4.2477e-12</wgt>
  <wgt id="939">4.16027e-12</wgt>
  <wgt id="940">4.32867e-12</wgt>
  <wgt id="941">4.02119e-12</wgt>
  <wgt id="942">4.37159e-12</wgt>
  <wgt id="943">4.76316e-12</wgt>
  <wgt id="944">3.81073e-12</wgt>
  <wgt id="945">4.19409e-12</wgt>
  <wgt id="946">4.03036e-12</wgt>
  <wgt id="947">4.17421e-12</wgt>
  <wgt id="948">4.48525e-12</wgt>
  <wgt id="949">4.57196e-12</wgt>
  <wgt id="950">3.81263e-12</wgt>
  <wgt id="951">4.21342e-12</wgt>
  <wgt id="952">4.48147e-12</wgt>
  <wgt id="953">4.38297e-12</wgt>
  <wgt id="954">4.38833e-12</wgt>
  <wgt id="955">3.88428e-12</wgt>
  <wgt id="956">4.03961e-12</wgt>
  <wgt id="957">4.49949e-12</wgt>
  <wgt id="958">4.26951e-12</wgt>
  <wgt id="959">4.28878e-12</wgt>
  <wgt id="960">3.89041e-12</wgt>
  <wgt id="961">4.28747e-12</wgt>
  <wgt id="962">4.40713e-12</wgt>
  <wgt id="963">4.29479e-12</wgt>
  <wgt id="964">4.50066e-12</wgt>
  <wgt id="965">4.54176e-12</wgt>
  <wgt id="966">4.23482e-12</wgt>
  <wgt id="967">4.44898e-12</wgt>
  <wgt id="968">4.36147e-12</wgt>
  <wgt id="969">4.26207e-12</wgt>
  <wgt id="970">4.38101e-12</wgt>
  <wgt id="971">3.99769e-12</wgt>
  <wgt id="972">4.53481e-12</wgt>
  <wgt id="973">4.12794e-12</wgt>
  <wgt id="974">5.08847e-12</wgt>
  <wgt id="975">4.03034e-12</wgt>
  <wgt id="976">4.22253e-12</wgt>
  <wgt id="977">3.73306e-12</wgt>
  <wgt id="978">4.51925e-12</wgt>
  <wgt id="979">4.66954e-12</wgt>
  <wgt id="980">4.25524e-12</wgt>
  <wgt id="981">4.29524e-12</wgt>
  <wgt id="982">4.13624e-12</wgt>
</rwgt>
</event>
<event>
 5   1  0.3028200E-11  0.2374463E+04  0.7818608E-02  0.7686175E-01
       21   -1    0    0  502  501  0.00000000000E+00  0.00000000000E+00  0.20125908256E+04  0.20125908256E+04  0.00000000000E+00 0. -1.
       21   -1    0    0  501  502 -0.00000000000E+00 -0.00000000000E+00 -0.70035011425E+03  0.70035011425E+03  0.00000000000E+00 0.  1.
       39    2    1    2    0    0  0.00000000000E+00  0.00000000000E+00  0.13122407114E+04  0.27129409399E+04  0.23744626463E+04 0.  0.
       25    1    3    3    0    0 -0.75136752280E+03 -0.90944145514E+03  0.71039205515E+03  0.13827215145E+04  0.12500000000E+03 0.  0.
       25    1    3    3    0    0  0.75136752280E+03  0.90944145514E+03  0.60184865624E+03  0.13302194254E+04  0.12500000000E+03 0.  0.
<mgrwt>
<rscale>  0 0.23744626E+04</rscale>
<asrwt>0</asrwt>
<pdfrwt beam="1">  1       21 0.30962936E+00 0.23744626E+04</pdfrwt>
<pdfrwt beam="2">  1       21 0.10774617E+00 0.23744626E+04</pdfrwt>
<totfact> 0.69870084E+00</totfact>
</mgrwt>
<rwgt>
  <wgt id="1">3.0282e-12</wgt>
  <wgt id="2">2.61607e-12</wgt>
  <wgt id="3">3.54406e-12</wgt>
  <wgt id="4">3.0282e-12</wgt>
  <wgt id="5">2.61607e-12</wgt>
  <wgt id="6">3.54406e-12</wgt>
  <wgt id="7">3.0282e-12</wgt>
  <wgt id="8">2.61607e-12</wgt>
  <wgt id="9">3.54406e-12</wgt>
  <wgt id="10">3.18395e-12</wgt>
  <wgt id="11">3.18258e-12</wgt>
  <wgt id="12">3.17691e-12</wgt>
  <wgt id="13">3.17665e-12</wgt>
  <wgt id="14">3.19478e-12</wgt>
  <wgt id="15">3.18932e-12</wgt>
  <wgt id="16">3.17714e-12</wgt>
  <wgt id="17">3.19961e-12</wgt>
  <wgt id="18">3.18035e-12</wgt>
  <wgt id="19">3.19574e-12</wgt>
  <wgt id="20">3.18155e-12</wgt>
  <wgt id="21">3.15851e-12</wgt>
  <wgt id="22">3.16167e-12</wgt>
  <wgt id="23">3.13669e-12</wgt>
  <wgt id="24">3.16021e-12</wgt>
  <wgt id="25">3.17162e-12</wgt>
  <wgt id="26">3.19331e-12</wgt>
  <wgt id="27">3.17821e-12</wgt>
  <wgt id="28">3.16345e-12</wgt>
  <wgt id="29">3.18521e-12</wgt>
  <wgt id="30">3.15894e-12</wgt>
  <wgt id="31">3.19851e-12</wgt>
  <wgt id="32">3.16185e-12</wgt>
  <wgt id="33">3.18861e-12</wgt>
  <wgt id="34">3.16377e-12</wgt>
  <wgt id="35">3.1644e-12</wgt>
  <wgt id="36">3.19883e-12</wgt>
  <wgt id="37">3.17323e-12</wgt>
  <wgt id="38">3.17087e-12</wgt>
  <wgt id="39">3.23904e-12</wgt>
  <wgt id="40">3.18739e-12</wgt>
  <wgt id="41">3.18167e-12</wgt>
  <wgt id="42">3.1911e-12</wgt>
  <wgt id="43">3.18593e-12</wgt>
  <wgt id="44">3.19647e-12</wgt>
  <wgt id="45">3.18814e-12</wgt>
  <wgt id="46">3.17291e-12</wgt>
  <wgt id="47">3.20843e-12</wgt>
  <wgt id="48">3.19903e-12</wgt>
  <wgt id="49">3.16848e-12</wgt>
  <wgt id="50">3.16181e-12</wgt>
  <wgt id="51">3.16721e-12</wgt>
  <wgt id="52">3.19099e-12</wgt>
  <wgt id="53">3.20537e-12</wgt>
  <wgt id="54">3.19704e-12</wgt>
  <wgt id="55">3.18299e-12</wgt>
  <wgt id="56">3.17526e-12</wgt>
  <wgt id="57">3.17013e-12</wgt>
  <wgt id="58">3.18007e-12</wgt>
  <wgt id="59">3.18691e-12</wgt>
  <wgt id="60">3.16414e-12</wgt>
  <wgt id="61">3.16493e-12</wgt>
  <wgt id="62">3.17515e-12</wgt>
  <wgt id="63">3.18055e-12</wgt>
  <wgt id="64">3.18183e-12</wgt>
  <wgt id="65">3.17484e-12</wgt>
  <wgt id="66">3.18527e-12</wgt>
  <wgt id="67">3.17584e-12</wgt>
  <wgt id="68">3.18319e-12</wgt>
  <wgt id="69">3.17926e-12</wgt>
  <wgt id="70">3.17732e-12</wgt>
  <wgt id="71">3.18114e-12</wgt>
  <wgt id="72">3.16602e-12</wgt>
  <wgt id="73">3.19653e-12</wgt>
  <wgt id="74">3.19355e-12</wgt>
  <wgt id="75">3.18407e-12</wgt>
  <wgt id="76">3.2032e-12</wgt>
  <wgt id="77">3.17867e-12</wgt>
  <wgt id="78">3.18101e-12</wgt>
  <wgt id="79">3.19258e-12</wgt>
  <wgt id="80">3.15926e-12</wgt>
  <wgt id="81">3.18356e-12</wgt>
  <wgt id="82">3.18654e-12</wgt>
  <wgt id="83">3.1655e-12</wgt>
  <wgt id="84">3.17546e-12</wgt>
  <wgt id="85">3.17237e-12</wgt>
  <wgt id="86">3.1954e-12</wgt>
  <wgt id="87">3.1568e-12</wgt>
  <wgt id="88">3.19159e-12</wgt>
  <wgt id="89">3.1885e-12</wgt>
  <wgt id="90">3.19497e-12</wgt>
  <wgt id="91">3.18782e-12</wgt>
  <wgt id="92">3.19218e-12</wgt>
  <wgt id="93">3.18816e-12</wgt>
  <wgt id="94">3.17655e-12</wgt>
  <wgt id="95">3.19486e-12</wgt>
  <wgt id="96">3.19099e-12</wgt>
  <wgt id="97">3.17242e-12</wgt>
  <wgt id="98">3.1838e-12</wgt>
  <wgt id="99">3.17797e-12</wgt>
  <wgt id="100">3.19168e-12</wgt>
  <wgt id="101">3.18144e-12</wgt>
  <wgt id="102">3.17943e-12</wgt>
  <wgt id="103">3.19466e-12</wgt>
  <wgt id="104">3.17813e-12</wgt>
  <wgt id="105">3.1902e-12</wgt>
  <wgt id="106">3.1762e-12</wgt>
  <wgt id="107">3.20156e-12</wgt>
  <wgt id="108">3.17808e-12</wgt>
  <wgt id="109">3.18746e-12</wgt>
  <wgt id="110">3.18241e-12</wgt>
  <wgt id="111">3.19398e-12</wgt>
  <wgt id="112">3.21882e-12</wgt>
  <wgt id="113">4.54387e-12</wgt>
  <wgt id="114">4.3105e-12</wgt>
  <wgt id="115">4.2333e-12</wgt>
  <wgt id="116">5.90965e-12</wgt>
  <wgt id="117">3.52918e-12</wgt>
  <wgt id="118">3.54254e-12</wgt>
  <wgt id="119">3.52158e-12</wgt>
  <wgt id="120">3.52931e-12</wgt>
  <wgt id="121">3.5291e-12</wgt>
  <wgt id="122">3.52356e-12</wgt>
  <wgt id="123">3.537e-12</wgt>
  <wgt id="124">3.52447e-12</wgt>
  <wgt id="125">3.53224e-12</wgt>
  <wgt id="126">3.53479e-12</wgt>
  <wgt id="127">3.52544e-12</wgt>
  <wgt id="128">3.54e-12</wgt>
  <wgt id="129">3.51841e-12</wgt>
  <wgt id="130">3.54742e-12</wgt>
  <wgt id="131">3.51032e-12</wgt>
  <wgt id="132">3.43164e-12</wgt>
  <wgt id="133">3.64539e-12</wgt>
  <wgt id="134">3.49064e-12</wgt>
  <wgt id="135">3.55942e-12</wgt>
  <wgt id="136">3.58232e-12</wgt>
  <wgt id="137">3.46528e-12</wgt>
  <wgt id="138">3.68727e-12</wgt>
  <wgt id="139">3.37885e-12</wgt>
  <wgt id="140">3.5111e-12</wgt>
  <wgt id="141">3.54296e-12</wgt>
  <wgt id="142">3.52854e-12</wgt>
  <wgt id="143">3.53925e-12</wgt>
  <wgt id="144">3.38886e-12</wgt>
  <wgt id="145">3.66481e-12</wgt>
  <wgt id="146">3.57416e-12</wgt>
  <wgt id="147">3.49257e-12</wgt>
  <wgt id="148">3.542e-12</wgt>
  <wgt id="149">3.52826e-12</wgt>
  <wgt id="150">3.55939e-12</wgt>
  <wgt id="151">3.51506e-12</wgt>
  <wgt id="152">3.53037e-12</wgt>
  <wgt id="153">3.52877e-12</wgt>
  <wgt id="154">3.54092e-12</wgt>
  <wgt id="155">3.50971e-12</wgt>
  <wgt id="156">3.64178e-12</wgt>
  <wgt id="157">3.42497e-12</wgt>
  <wgt id="158">4.23193e-12</wgt>
  <wgt id="159">4.24991e-12</wgt>
  <wgt id="160">4.21745e-12</wgt>
  <wgt id="161">4.22088e-12</wgt>
  <wgt id="162">4.24423e-12</wgt>
  <wgt id="163">4.22701e-12</wgt>
  <wgt id="164">4.23916e-12</wgt>
  <wgt id="165">4.23354e-12</wgt>
  <wgt id="166">4.23065e-12</wgt>
  <wgt id="167">4.22893e-12</wgt>
  <wgt id="168">4.23603e-12</wgt>
  <wgt id="169">4.21456e-12</wgt>
  <wgt id="170">4.24273e-12</wgt>
  <wgt id="171">4.22825e-12</wgt>
  <wgt id="172">4.23707e-12</wgt>
  <wgt id="173">4.22553e-12</wgt>
  <wgt id="174">4.23404e-12</wgt>
  <wgt id="175">4.10758e-12</wgt>
  <wgt id="176">4.39493e-12</wgt>
  <wgt id="177">4.25277e-12</wgt>
  <wgt id="178">4.21294e-12</wgt>
  <wgt id="179">4.44317e-12</wgt>
  <wgt id="180">3.90538e-12</wgt>
  <wgt id="181">4.09193e-12</wgt>
  <wgt id="182">4.32516e-12</wgt>
  <wgt id="183">4.14695e-12</wgt>
  <wgt id="184">4.27412e-12</wgt>
  <wgt id="185">4.18671e-12</wgt>
  <wgt id="186">4.28672e-12</wgt>
  <wgt id="187">4.18576e-12</wgt>
  <wgt id="188">4.31362e-12</wgt>
  <wgt id="189">4.19931e-12</wgt>
  <wgt id="190">4.24512e-12</wgt>
  <wgt id="191">4.24655e-12</wgt>
  <wgt id="192">4.2233e-12</wgt>
  <wgt id="193">4.30217e-12</wgt>
  <wgt id="194">4.19668e-12</wgt>
  <wgt id="195">4.08429e-12</wgt>
  <wgt id="196">4.47567e-12</wgt>
  <wgt id="197">4.25481e-12</wgt>
  <wgt id="198">4.22643e-12</wgt>
  <wgt id="199">4.23193e-12</wgt>
  <wgt id="200">4.27263e-12</wgt>
  <wgt id="201">4.25861e-12</wgt>
  <wgt id="202">4.24504e-12</wgt>
  <wgt id="203">4.22535e-12</wgt>
  <wgt id="204">4.21551e-12</wgt>
  <wgt id="205">4.20749e-12</wgt>
  <wgt id="206">4.12841e-12</wgt>
  <wgt id="207">4.15318e-12</wgt>
  <wgt id="208">4.10394e-12</wgt>
  <wgt id="209">4.1414e-12</wgt>
  <wgt id="210">4.11892e-12</wgt>
  <wgt id="211">4.12686e-12</wgt>
  <wgt id="212">4.12962e-12</wgt>
  <wgt id="213">4.12805e-12</wgt>
  <wgt id="214">4.12897e-12</wgt>
  <wgt id="215">4.13162e-12</wgt>
  <wgt id="216">4.12612e-12</wgt>
  <wgt id="217">4.13864e-12</wgt>
  <wgt id="218">4.12055e-12</wgt>
  <wgt id="219">4.12383e-12</wgt>
  <wgt id="220">4.13118e-12</wgt>
  <wgt id="221">4.12923e-12</wgt>
  <wgt id="222">4.12564e-12</wgt>
  <wgt id="223">3.89332e-12</wgt>
  <wgt id="224">4.34394e-12</wgt>
  <wgt id="225">4.07651e-12</wgt>
  <wgt id="226">4.1943e-12</wgt>
  <wgt id="227">4.08819e-12</wgt>
  <wgt id="228">4.14604e-12</wgt>
  <wgt id="229">4.06867e-12</wgt>
  <wgt id="230">4.1581e-12</wgt>
  <wgt id="231">4.2661e-12</wgt>
  <wgt id="232">4.01584e-12</wgt>
  <wgt id="233">4.10295e-12</wgt>
  <wgt id="234">4.17073e-12</wgt>
  <wgt id="235">3.97241e-12</wgt>
  <wgt id="236">4.2574e-12</wgt>
  <wgt id="237">4.03594e-12</wgt>
  <wgt id="238">4.15928e-12</wgt>
  <wgt id="239">4.09076e-12</wgt>
  <wgt id="240">4.19591e-12</wgt>
  <wgt id="241">4.07892e-12</wgt>
  <wgt id="242">4.18729e-12</wgt>
  <wgt id="243">4.19872e-12</wgt>
  <wgt id="244">4.13248e-12</wgt>
  <wgt id="245">4.12653e-12</wgt>
  <wgt id="246">4.15302e-12</wgt>
  <wgt id="247">4.12841e-12</wgt>
  <wgt id="248">4.17163e-12</wgt>
  <wgt id="249">4.15655e-12</wgt>
  <wgt id="250">4.14099e-12</wgt>
  <wgt id="251">4.11973e-12</wgt>
  <wgt id="252">4.10895e-12</wgt>
  <wgt id="253">4.10149e-12</wgt>
  <wgt id="254">3.99295e-12</wgt>
  <wgt id="255">3.99659e-12</wgt>
  <wgt id="256">3.98904e-12</wgt>
  <wgt id="257">3.99605e-12</wgt>
  <wgt id="258">3.99069e-12</wgt>
  <wgt id="259">4.01977e-12</wgt>
  <wgt id="260">3.96707e-12</wgt>
  <wgt id="261">3.9996e-12</wgt>
  <wgt id="262">3.9851e-12</wgt>
  <wgt id="263">3.99015e-12</wgt>
  <wgt id="264">3.99626e-12</wgt>
  <wgt id="265">3.988e-12</wgt>
  <wgt id="266">4.00293e-12</wgt>
  <wgt id="267">3.99431e-12</wgt>
  <wgt id="268">3.99098e-12</wgt>
  <wgt id="269">4.0058e-12</wgt>
  <wgt id="270">3.98425e-12</wgt>
  <wgt id="271">3.98289e-12</wgt>
  <wgt id="272">4.00417e-12</wgt>
  <wgt id="273">3.98175e-12</wgt>
  <wgt id="274">4.0015e-12</wgt>
  <wgt id="275">3.96987e-12</wgt>
  <wgt id="276">4.01684e-12</wgt>
  <wgt id="277">3.96952e-12</wgt>
  <wgt id="278">4.01436e-12</wgt>
  <wgt id="279">3.91656e-12</wgt>
  <wgt id="280">4.08919e-12</wgt>
  <wgt id="281">3.97394e-12</wgt>
  <wgt id="282">3.99754e-12</wgt>
  <wgt id="283">3.86354e-12</wgt>
  <wgt id="284">4.15426e-12</wgt>
  <wgt id="285">3.77962e-12</wgt>
  <wgt id="286">4.17283e-12</wgt>
  <wgt id="287">4.00699e-12</wgt>
  <wgt id="288">3.975e-12</wgt>
  <wgt id="289">4.02497e-12</wgt>
  <wgt id="290">3.92172e-12</wgt>
  <wgt id="291">3.97807e-12</wgt>
  <wgt id="292">3.99381e-12</wgt>
  <wgt id="293">3.95813e-12</wgt>
  <wgt id="294">4.02757e-12</wgt>
  <wgt id="295">3.90876e-12</wgt>
  <wgt id="296">4.09615e-12</wgt>
  <wgt id="297">3.98456e-12</wgt>
  <wgt id="298">4.01288e-12</wgt>
  <wgt id="299">3.97923e-12</wgt>
  <wgt id="300">4.02943e-12</wgt>
  <wgt id="301">3.9141e-12</wgt>
  <wgt id="302">4.17622e-12</wgt>
  <wgt id="303">3.95024e-12</wgt>
  <wgt id="304">4.01694e-12</wgt>
  <wgt id="305">3.96561e-12</wgt>
  <wgt id="306">3.96939e-12</wgt>
  <wgt id="307">3.96156e-12</wgt>
  <wgt id="308">3.96898e-12</wgt>
  <wgt id="309">3.96333e-12</wgt>
  <wgt id="310">3.99302e-12</wgt>
  <wgt id="311">3.94025e-12</wgt>
  <wgt id="312">3.97151e-12</wgt>
  <wgt id="313">3.95934e-12</wgt>
  <wgt id="314">3.96267e-12</wgt>
  <wgt id="315">3.96836e-12</wgt>
  <wgt id="316">3.96063e-12</wgt>
  <wgt id="317">3.97636e-12</wgt>
  <wgt id="318">3.96861e-12</wgt>
  <wgt id="319">3.96029e-12</wgt>
  <wgt id="320">3.97935e-12</wgt>
  <wgt id="321">3.95792e-12</wgt>
  <wgt id="322">3.95431e-12</wgt>
  <wgt id="323">3.97871e-12</wgt>
  <wgt id="324">3.95704e-12</wgt>
  <wgt id="325">3.97306e-12</wgt>
  <wgt id="326">3.94669e-12</wgt>
  <wgt id="327">3.98984e-12</wgt>
  <wgt id="328">3.94485e-12</wgt>
  <wgt id="329">3.9772e-12</wgt>
  <wgt id="330">4.08166e-12</wgt>
  <wgt id="331">3.85526e-12</wgt>
  <wgt id="332">3.94979e-12</wgt>
  <wgt id="333">3.96839e-12</wgt>
  <wgt id="334">3.86659e-12</wgt>
  <wgt id="335">4.08971e-12</wgt>
  <wgt id="336">3.8138e-12</wgt>
  <wgt id="337">4.15344e-12</wgt>
  <wgt id="338">4.01446e-12</wgt>
  <wgt id="339">3.92055e-12</wgt>
  <wgt id="340">3.99472e-12</wgt>
  <wgt id="341">3.89349e-12</wgt>
  <wgt id="342">3.9549e-12</wgt>
  <wgt id="343">3.9587e-12</wgt>
  <wgt id="344">3.935e-12</wgt>
  <wgt id="345">4.0012e-12</wgt>
  <wgt id="346">3.8793e-12</wgt>
  <wgt id="347">4.06471e-12</wgt>
  <wgt id="348">3.958e-12</wgt>
  <wgt id="349">3.98337e-12</wgt>
  <wgt id="350">3.94862e-12</wgt>
  <wgt id="351">4.00873e-12</wgt>
  <wgt id="352">3.88432e-12</wgt>
  <wgt id="353">4.14658e-12</wgt>
  <wgt id="354">3.90422e-12</wgt>
  <wgt id="355">4.0022e-12</wgt>
  <wgt id="356">3.99295e-12</wgt>
  <wgt id="357">3.97092e-12</wgt>
  <wgt id="358">3.96561e-12</wgt>
  <wgt id="359">3.99488e-12</wgt>
  <wgt id="360">4.05551e-12</wgt>
  <wgt id="361">4.01259e-12</wgt>
  <wgt id="362">4.09229e-12</wgt>
  <wgt id="363">4.08175e-12</wgt>
  <wgt id="364">4.06244e-12</wgt>
  <wgt id="365">4.047e-12</wgt>
  <wgt id="366">4.03098e-12</wgt>
  <wgt id="367">4.00023e-12</wgt>
  <wgt id="368">3.98111e-12</wgt>
  <wgt id="369">3.9605e-12</wgt>
  <wgt id="370">4.01259e-12</wgt>
  <wgt id="371">4.02968e-12</wgt>
  <wgt id="372">4.02009e-12</wgt>
  <wgt id="373">4.00653e-12</wgt>
  <wgt id="374">4.01047e-12</wgt>
  <wgt id="375">4.53252e-12</wgt>
  <wgt id="376">4.53297e-12</wgt>
  <wgt id="377">4.532e-12</wgt>
  <wgt id="378">4.54971e-12</wgt>
  <wgt id="379">4.51554e-12</wgt>
  <wgt id="380">4.54542e-12</wgt>
  <wgt id="381">4.52741e-12</wgt>
  <wgt id="382">4.55465e-12</wgt>
  <wgt id="383">4.51069e-12</wgt>
  <wgt id="384">4.5355e-12</wgt>
  <wgt id="385">4.52976e-12</wgt>
  <wgt id="386">4.54852e-12</wgt>
  <wgt id="387">4.52569e-12</wgt>
  <wgt id="388">4.52848e-12</wgt>
  <wgt id="389">4.53761e-12</wgt>
  <wgt id="390">4.54348e-12</wgt>
  <wgt id="391">4.5209e-12</wgt>
  <wgt id="392">4.49196e-12</wgt>
  <wgt id="393">4.55557e-12</wgt>
  <wgt id="394">4.53643e-12</wgt>
  <wgt id="395">4.52707e-12</wgt>
  <wgt id="396">4.53998e-12</wgt>
  <wgt id="397">4.52722e-12</wgt>
  <wgt id="398">4.52148e-12</wgt>
  <wgt id="399">4.54328e-12</wgt>
  <wgt id="400">4.52519e-12</wgt>
  <wgt id="401">4.54908e-12</wgt>
  <wgt id="402">4.49065e-12</wgt>
  <wgt id="403">4.55769e-12</wgt>
  <wgt id="404">4.66138e-12</wgt>
  <wgt id="405">4.22612e-12</wgt>
  <wgt id="406">4.44003e-12</wgt>
  <wgt id="407">4.73768e-12</wgt>
  <wgt id="408">4.5809e-12</wgt>
  <wgt id="409">4.44309e-12</wgt>
  <wgt id="410">4.3824e-12</wgt>
  <wgt id="411">4.60461e-12</wgt>
  <wgt id="412">4.52221e-12</wgt>
  <wgt id="413">4.548e-12</wgt>
  <wgt id="414">4.47265e-12</wgt>
  <wgt id="415">4.57914e-12</wgt>
  <wgt id="416">4.68458e-12</wgt>
  <wgt id="417">4.32392e-12</wgt>
  <wgt id="418">4.54132e-12</wgt>
  <wgt id="419">4.48548e-12</wgt>
  <wgt id="420">4.63924e-12</wgt>
  <wgt id="421">4.46284e-12</wgt>
  <wgt id="422">4.5076e-12</wgt>
  <wgt id="423">4.5444e-12</wgt>
  <wgt id="424">4.6638e-12</wgt>
  <wgt id="425">4.44439e-12</wgt>
  <wgt id="426">4.53252e-12</wgt>
  <wgt id="427">4.4496e-12</wgt>
  <wgt id="428">4.7279e-12</wgt>
  <wgt id="429">4.59214e-12</wgt>
  <wgt id="430">4.74202e-12</wgt>
  <wgt id="431">4.71157e-12</wgt>
  <wgt id="432">4.68385e-12</wgt>
  <wgt id="433">4.65669e-12</wgt>
  <wgt id="434">4.6222e-12</wgt>
  <wgt id="435">4.55449e-12</wgt>
  <wgt id="436">4.52023e-12</wgt>
  <wgt id="437">4.48699e-12</wgt>
  <wgt id="438">4.59214e-12</wgt>
  <wgt id="439">4.60638e-12</wgt>
  <wgt id="440">4.5976e-12</wgt>
  <wgt id="441">4.58827e-12</wgt>
  <wgt id="442">4.58521e-12</wgt>
  <wgt id="443">4.1929e-12</wgt>
  <wgt id="444">4.23441e-12</wgt>
  <wgt id="445">4.22522e-12</wgt>
  <wgt id="446">4.16214e-12</wgt>
  <wgt id="447">4.19135e-12</wgt>
  <wgt id="448">4.08665e-12</wgt>
  <wgt id="449">4.2783e-12</wgt>
  <wgt id="450">4.23574e-12</wgt>
  <wgt id="451">4.18138e-12</wgt>
  <wgt id="452">4.28874e-12</wgt>
  <wgt id="453">4.24464e-12</wgt>
  <wgt id="454">3.97919e-12</wgt>
  <wgt id="455">4.22313e-12</wgt>
  <wgt id="456">4.25383e-12</wgt>
  <wgt id="457">4.20808e-12</wgt>
  <wgt id="458">4.26473e-12</wgt>
  <wgt id="459">4.23073e-12</wgt>
  <wgt id="460">4.26816e-12</wgt>
  <wgt id="461">4.09212e-12</wgt>
  <wgt id="462">4.16053e-12</wgt>
  <wgt id="463">4.127e-12</wgt>
  <wgt id="464">4.17096e-12</wgt>
  <wgt id="465">4.24011e-12</wgt>
  <wgt id="466">4.09883e-12</wgt>
  <wgt id="467">4.15687e-12</wgt>
  <wgt id="468">4.18747e-12</wgt>
  <wgt id="469">4.18137e-12</wgt>
  <wgt id="470">4.13009e-12</wgt>
  <wgt id="471">4.14101e-12</wgt>
  <wgt id="472">4.22132e-12</wgt>
  <wgt id="473">4.04942e-12</wgt>
  <wgt id="474">3.0282e-12</wgt>
  <wgt id="475">3.04083e-12</wgt>
  <wgt id="476">3.00544e-12</wgt>
  <wgt id="477">3.06578e-12</wgt>
  <wgt id="478">3.06392e-12</wgt>
  <wgt id="479">2.89349e-12</wgt>
  <wgt id="480">3.18164e-12</wgt>
  <wgt id="481">3.04105e-12</wgt>
  <wgt id="482">3.01969e-12</wgt>
  <wgt id="483">3.01867e-12</wgt>
  <wgt id="484">3.15919e-12</wgt>
  <wgt id="485">2.80848e-12</wgt>
  <wgt id="486">3.17974e-12</wgt>
  <wgt id="487">2.96285e-12</wgt>
  <wgt id="488">3.06494e-12</wgt>
  <wgt id="489">2.74884e-12</wgt>
  <wgt id="490">2.96229e-12</wgt>
  <wgt id="491">2.99158e-12</wgt>
  <wgt id="492">2.97558e-12</wgt>
  <wgt id="493">2.8169e-12</wgt>
  <wgt id="494">2.83372e-12</wgt>
  <wgt id="495">3.03729e-12</wgt>
  <wgt id="496">2.88438e-12</wgt>
  <wgt id="497">2.83935e-12</wgt>
  <wgt id="498">3.11705e-12</wgt>
  <wgt id="499">3.04021e-12</wgt>
  <wgt id="500">2.97587e-12</wgt>
  <wgt id="501">3.15255e-12</wgt>
  <wgt id="502">3.11937e-12</wgt>
  <wgt id="503">2.98394e-12</wgt>
  <wgt id="504">3.12428e-12</wgt>
  <wgt id="505">3.12627e-12</wgt>
  <wgt id="506">2.85208e-12</wgt>
  <wgt id="507">2.99339e-12</wgt>
  <wgt id="508">3.18082e-12</wgt>
  <wgt id="509">2.90009e-12</wgt>
  <wgt id="510">3.06509e-12</wgt>
  <wgt id="511">2.88053e-12</wgt>
  <wgt id="512">3.21574e-12</wgt>
  <wgt id="513">3.15364e-12</wgt>
  <wgt id="514">3.17007e-12</wgt>
  <wgt id="515">3.08967e-12</wgt>
  <wgt id="516">3.31987e-12</wgt>
  <wgt id="517">3.10193e-12</wgt>
  <wgt id="518">3.13464e-12</wgt>
  <wgt id="519">2.90791e-12</wgt>
  <wgt id="520">3.08142e-12</wgt>
  <wgt id="521">2.98814e-12</wgt>
  <wgt id="522">3.15616e-12</wgt>
  <wgt id="523">2.8997e-12</wgt>
  <wgt id="524">3.07139e-12</wgt>
  <wgt id="525">2.99859e-12</wgt>
  <wgt id="526">3.1636e-12</wgt>
  <wgt id="527">3.00075e-12</wgt>
  <wgt id="528">3.02751e-12</wgt>
  <wgt id="529">2.91072e-12</wgt>
  <wgt id="530">3.17007e-12</wgt>
  <wgt id="531">2.91344e-12</wgt>
  <wgt id="532">3.27789e-12</wgt>
  <wgt id="533">2.98835e-12</wgt>
  <wgt id="534">2.93015e-12</wgt>
  <wgt id="535">3.05174e-12</wgt>
  <wgt id="536">3.11442e-12</wgt>
  <wgt id="537">2.90189e-12</wgt>
  <wgt id="538">3.01403e-12</wgt>
  <wgt id="539">2.95733e-12</wgt>
  <wgt id="540">3.18439e-12</wgt>
  <wgt id="541">3.01168e-12</wgt>
  <wgt id="542">2.97201e-12</wgt>
  <wgt id="543">2.93875e-12</wgt>
  <wgt id="544">3.07418e-12</wgt>
  <wgt id="545">2.88203e-12</wgt>
  <wgt id="546">2.81498e-12</wgt>
  <wgt id="547">2.92785e-12</wgt>
  <wgt id="548">2.9171e-12</wgt>
  <wgt id="549">2.96905e-12</wgt>
  <wgt id="550">2.95608e-12</wgt>
  <wgt id="551">3.04828e-12</wgt>
  <wgt id="552">2.80408e-12</wgt>
  <wgt id="553">2.8699e-12</wgt>
  <wgt id="554">3.19643e-12</wgt>
  <wgt id="555">3.10445e-12</wgt>
  <wgt id="556">2.96229e-12</wgt>
  <wgt id="557">3.10044e-12</wgt>
  <wgt id="558">2.98835e-12</wgt>
  <wgt id="559">3.03905e-12</wgt>
  <wgt id="560">3.35395e-12</wgt>
  <wgt id="561">3.08242e-12</wgt>
  <wgt id="562">3.13897e-12</wgt>
  <wgt id="563">3.30366e-12</wgt>
  <wgt id="564">3.18948e-12</wgt>
  <wgt id="565">3.09577e-12</wgt>
  <wgt id="566">2.9609e-12</wgt>
  <wgt id="567">3.02123e-12</wgt>
  <wgt id="568">2.9357e-12</wgt>
  <wgt id="569">3.05491e-12</wgt>
  <wgt id="570">2.98329e-12</wgt>
  <wgt id="571">3.35714e-12</wgt>
  <wgt id="572">2.93406e-12</wgt>
  <wgt id="573">2.93716e-12</wgt>
  <wgt id="574">2.95172e-12</wgt>
  <wgt id="575">3.35058e-12</wgt>
  <wgt id="576">3.60954e-12</wgt>
  <wgt id="577">3.49555e-12</wgt>
  <wgt id="578">3.41151e-12</wgt>
  <wgt id="579">3.47884e-12</wgt>
  <wgt id="580">3.55896e-12</wgt>
  <wgt id="581">3.6897e-12</wgt>
  <wgt id="582">3.55252e-12</wgt>
  <wgt id="583">3.40896e-12</wgt>
  <wgt id="584">3.31695e-12</wgt>
  <wgt id="585">3.13111e-12</wgt>
  <wgt id="586">3.16271e-12</wgt>
  <wgt id="587">3.41357e-12</wgt>
  <wgt id="588">3.61288e-12</wgt>
  <wgt id="589">3.63216e-12</wgt>
  <wgt id="590">3.32725e-12</wgt>
  <wgt id="591">3.4497e-12</wgt>
  <wgt id="592">3.11786e-12</wgt>
  <wgt id="593">3.25901e-12</wgt>
  <wgt id="594">3.29881e-12</wgt>
  <wgt id="595">3.49415e-12</wgt>
  <wgt id="596">3.89515e-12</wgt>
  <wgt id="597">3.38346e-12</wgt>
  <wgt id="598">3.37855e-12</wgt>
  <wgt id="599">3.55853e-12</wgt>
  <wgt id="600">3.53797e-12</wgt>
  <wgt id="601">3.21551e-12</wgt>
  <wgt id="602">3.24801e-12</wgt>
  <wgt id="603">3.15464e-12</wgt>
  <wgt id="604">3.43166e-12</wgt>
  <wgt id="605">3.39776e-12</wgt>
  <wgt id="606">3.40387e-12</wgt>
  <wgt id="607">3.47946e-12</wgt>
  <wgt id="608">3.47216e-12</wgt>
  <wgt id="609">3.29401e-12</wgt>
  <wgt id="610">3.20633e-12</wgt>
  <wgt id="611">3.21827e-12</wgt>
  <wgt id="612">3.48049e-12</wgt>
  <wgt id="613">3.2086e-12</wgt>
  <wgt id="614">3.32504e-12</wgt>
  <wgt id="615">3.39085e-12</wgt>
  <wgt id="616">3.25598e-12</wgt>
  <wgt id="617">3.47759e-12</wgt>
  <wgt id="618">3.67091e-12</wgt>
  <wgt id="619">3.28433e-12</wgt>
  <wgt id="620">3.4631e-12</wgt>
  <wgt id="621">3.31614e-12</wgt>
  <wgt id="622">3.41357e-12</wgt>
  <wgt id="623">3.37309e-12</wgt>
  <wgt id="624">3.36997e-12</wgt>
  <wgt id="625">3.20293e-12</wgt>
  <wgt id="626">3.01739e-12</wgt>
  <wgt id="627">3.05087e-12</wgt>
  <wgt id="628">3.34488e-12</wgt>
  <wgt id="629">3.38809e-12</wgt>
  <wgt id="630">3.25539e-12</wgt>
  <wgt id="631">3.42786e-12</wgt>
  <wgt id="632">3.07277e-12</wgt>
  <wgt id="633">3.33076e-12</wgt>
  <wgt id="634">3.21664e-12</wgt>
  <wgt id="635">3.09682e-12</wgt>
  <wgt id="636">3.3914e-12</wgt>
  <wgt id="637">3.33778e-12</wgt>
  <wgt id="638">3.19781e-12</wgt>
  <wgt id="639">3.216e-12</wgt>
  <wgt id="640">3.27922e-12</wgt>
  <wgt id="641">3.50122e-12</wgt>
  <wgt id="642">3.08918e-12</wgt>
  <wgt id="643">3.26993e-12</wgt>
  <wgt id="644">3.0088e-12</wgt>
  <wgt id="645">3.34779e-12</wgt>
  <wgt id="646">3.1111e-12</wgt>
  <wgt id="647">3.37832e-12</wgt>
  <wgt id="648">3.49484e-12</wgt>
  <wgt id="649">3.36838e-12</wgt>
  <wgt id="650">3.20089e-12</wgt>
  <wgt id="651">3.57621e-12</wgt>
  <wgt id="652">3.22004e-12</wgt>
  <wgt id="653">3.22005e-12</wgt>
  <wgt id="654">3.37383e-12</wgt>
  <wgt id="655">3.22445e-12</wgt>
  <wgt id="656">3.35694e-12</wgt>
  <wgt id="657">3.6593e-12</wgt>
  <wgt id="658">3.37e-12</wgt>
  <wgt id="659">3.20563e-12</wgt>
  <wgt id="660">3.26183e-12</wgt>
  <wgt id="661">3.26682e-12</wgt>
  <wgt id="662">3.2965e-12</wgt>
  <wgt id="663">3.4053e-12</wgt>
  <wgt id="664">3.38131e-12</wgt>
  <wgt id="665">3.31707e-12</wgt>
  <wgt id="666">3.27552e-12</wgt>
  <wgt id="667">3.52862e-12</wgt>
  <wgt id="668">3.31188e-12</wgt>
  <wgt id="669">3.35465e-12</wgt>
  <wgt id="670">3.5093e-12</wgt>
  <wgt id="671">3.38014e-12</wgt>
  <wgt id="672">3.25052e-12</wgt>
  <wgt id="673">3.54151e-12</wgt>
  <wgt id="674">3.24771e-12</wgt>
  <wgt id="675">3.23634e-12</wgt>
  <wgt id="676">4.34559e-12</wgt>
  <wgt id="677">4.39174e-12</wgt>
  <wgt id="678">4.74667e-12</wgt>
  <wgt id="679">4.39578e-12</wgt>
  <wgt id="680">4.36893e-12</wgt>
  <wgt id="681">4.26085e-12</wgt>
  <wgt id="682">4.55412e-12</wgt>
  <wgt id="683">4.0358e-12</wgt>
  <wgt id="684">4.57735e-12</wgt>
  <wgt id="685">4.30983e-12</wgt>
  <wgt id="686">4.39252e-12</wgt>
  <wgt id="687">4.50263e-12</wgt>
  <wgt id="688">4.2124e-12</wgt>
  <wgt id="689">4.5622e-12</wgt>
  <wgt id="690">4.47155e-12</wgt>
  <wgt id="691">4.46619e-12</wgt>
  <wgt id="692">4.24435e-12</wgt>
  <wgt id="693">5.69892e-12</wgt>
  <wgt id="694">4.77274e-12</wgt>
  <wgt id="695">4.08374e-12</wgt>
  <wgt id="696">4.15483e-12</wgt>
  <wgt id="697">3.94843e-12</wgt>
  <wgt id="698">3.61859e-12</wgt>
  <wgt id="699">3.68599e-12</wgt>
  <wgt id="700">3.82167e-12</wgt>
  <wgt id="701">4.34348e-12</wgt>
  <wgt id="702">4.18961e-12</wgt>
  <wgt id="703">5.36153e-12</wgt>
  <wgt id="704">4.8977e-12</wgt>
  <wgt id="705">4.86008e-12</wgt>
  <wgt id="706">4.05436e-12</wgt>
  <wgt id="707">4.07489e-12</wgt>
  <wgt id="708">4.17137e-12</wgt>
  <wgt id="709">4.21233e-12</wgt>
  <wgt id="710">3.69118e-12</wgt>
  <wgt id="711">4.58156e-12</wgt>
  <wgt id="712">4.08997e-12</wgt>
  <wgt id="713">4.68873e-12</wgt>
  <wgt id="714">3.94518e-12</wgt>
  <wgt id="715">4.16192e-12</wgt>
  <wgt id="716">4.18073e-12</wgt>
  <wgt id="717">3.81161e-12</wgt>
  <wgt id="718">4.43988e-12</wgt>
  <wgt id="719">3.94711e-12</wgt>
  <wgt id="720">4.40025e-12</wgt>
  <wgt id="721">3.72289e-12</wgt>
  <wgt id="722">3.46062e-12</wgt>
  <wgt id="723">4.86878e-12</wgt>
  <wgt id="724">4.70354e-12</wgt>
  <wgt id="725">4.55335e-12</wgt>
  <wgt id="726">4.32908e-12</wgt>
  <wgt id="727">4.34832e-12</wgt>
  <wgt id="728">4.24351e-12</wgt>
  <wgt id="729">4.01531e-12</wgt>
  <wgt id="730">4.81272e-12</wgt>
  <wgt id="731">4.27382e-12</wgt>
  <wgt id="732">5.04329e-12</wgt>
  <wgt id="733">4.06534e-12</wgt>
  <wgt id="734">4.4938e-12</wgt>
  <wgt id="735">4.35529e-12</wgt>
  <wgt id="736">4.048e-12</wgt>
  <wgt id="737">4.10863e-12</wgt>
  <wgt id="738">4.12929e-12</wgt>
  <wgt id="739">4.63809e-12</wgt>
  <wgt id="740">5.12006e-12</wgt>
  <wgt id="741">4.44161e-12</wgt>
  <wgt id="742">4.19606e-12</wgt>
  <wgt id="743">3.96607e-12</wgt>
  <wgt id="744">4.26043e-12</wgt>
  <wgt id="745">4.73578e-12</wgt>
  <wgt id="746">4.8668e-12</wgt>
  <wgt id="747">3.63179e-12</wgt>
  <wgt id="748">4.20044e-12</wgt>
  <wgt id="749">4.52605e-12</wgt>
  <wgt id="750">4.67961e-12</wgt>
  <wgt id="751">4.38742e-12</wgt>
  <wgt id="752">3.90949e-12</wgt>
  <wgt id="753">3.90674e-12</wgt>
  <wgt id="754">4.54328e-12</wgt>
  <wgt id="755">4.25956e-12</wgt>
  <wgt id="756">4.23017e-12</wgt>
  <wgt id="757">3.77529e-12</wgt>
  <wgt id="758">4.2427e-12</wgt>
  <wgt id="759">4.75406e-12</wgt>
  <wgt id="760">4.19056e-12</wgt>
  <wgt id="761">4.79597e-12</wgt>
  <wgt id="762">4.81941e-12</wgt>
  <wgt id="763">4.42813e-12</wgt>
  <wgt id="764">4.6361e-12</wgt>
  <wgt id="765">4.39495e-12</wgt>
  <wgt id="766">4.39554e-12</wgt>
  <wgt id="767">4.43737e-12</wgt>
  <wgt id="768">3.96148e-12</wgt>
  <wgt id="769">4.58949e-12</wgt>
  <wgt id="770">4.10153e-12</wgt>
  <wgt id="771">5.34012e-12</wgt>
  <wgt id="772">4.21571e-12</wgt>
  <wgt id="773">4.35192e-12</wgt>
  <wgt id="774">3.46431e-12</wgt>
  <wgt id="775">4.55983e-12</wgt>
  <wgt id="776">4.97393e-12</wgt>
  <wgt id="777">3.87768e-12</wgt>
  <wgt id="778">2.87842e-12</wgt>
  <wgt id="779">1.82607e-12</wgt>
  <wgt id="780">1.12418e-12</wgt>
  <wgt id="781">3.28306e-12</wgt>
  <wgt id="782">3.48878e-12</wgt>
  <wgt id="783">1.66987e-12</wgt>
  <wgt id="784">2.06607e-12</wgt>
  <wgt id="785">4.26672e-12</wgt>
  <wgt id="786">1.64944e-12</wgt>
  <wgt id="787">3.70525e-12</wgt>
  <wgt id="788">6.766e-13</wgt>
  <wgt id="789">2.03423e-12</wgt>
  <wgt id="790">1.65868e-12</wgt>
  <wgt id="791">3.2748e-12</wgt>
  <wgt id="792">3.9101e-12</wgt>
  <wgt id="793">2.72768e-12</wgt>
  <wgt id="794">1.52541e-12</wgt>
  <wgt id="795">3.95469e-12</wgt>
  <wgt id="796">4.07299e-12</wgt>
  <wgt id="797">3.73894e-12</wgt>
  <wgt id="798">2.23046e-12</wgt>
  <wgt id="799">3.63449e-12</wgt>
  <wgt id="800">2.21138e-12</wgt>
  <wgt id="801">2.76517e-12</wgt>
  <wgt id="802">1.47105e-12</wgt>
  <wgt id="803">4.61584e-12</wgt>
  <wgt id="804">3.94898e-12</wgt>
  <wgt id="805">3.8668e-12</wgt>
  <wgt id="806">3.16878e-12</wgt>
  <wgt id="807">2.81204e-12</wgt>
  <wgt id="808">2.76015e-12</wgt>
  <wgt id="809">2.58642e-12</wgt>
  <wgt id="810">3.41058e-12</wgt>
  <wgt id="811">3.04526e-12</wgt>
  <wgt id="812">1.69243e-12</wgt>
  <wgt id="813">1.81836e-12</wgt>
  <wgt id="814">2.01441e-12</wgt>
  <wgt id="815">1.70615e-12</wgt>
  <wgt id="816">1.84915e-12</wgt>
  <wgt id="817">2.92845e-12</wgt>
  <wgt id="818">3.76886e-12</wgt>
  <wgt id="819">1.7998e-12</wgt>
  <wgt id="820">2.72495e-12</wgt>
  <wgt id="821">3.52091e-12</wgt>
  <wgt id="822">2.30596e-12</wgt>
  <wgt id="823">3.69851e-12</wgt>
  <wgt id="824">4.41185e-12</wgt>
  <wgt id="825">1.39665e-12</wgt>
  <wgt id="826">3.60455e-12</wgt>
  <wgt id="827">1.24608e-12</wgt>
  <wgt id="828">3.7471e-12</wgt>
  <wgt id="829">2.9835e-12</wgt>
  <wgt id="830">1.32321e-12</wgt>
  <wgt id="831">3.40888e-12</wgt>
  <wgt id="832">5.23384e-12</wgt>
  <wgt id="833">2.31017e-12</wgt>
  <wgt id="834">5.10356e-12</wgt>
  <wgt id="835">2.01053e-12</wgt>
  <wgt id="836">2.37938e-12</wgt>
  <wgt id="837">3.43055e-12</wgt>
  <wgt id="838">2.3239e-12</wgt>
  <wgt id="839">3.39829e-12</wgt>
  <wgt id="840">2.45494e-12</wgt>
  <wgt id="841">4.0934e-12</wgt>
  <wgt id="842">2.84846e-12</wgt>
  <wgt id="843">3.10882e-12</wgt>
  <wgt id="844">3.2198e-12</wgt>
  <wgt id="845">5.12736e-12</wgt>
  <wgt id="846">2.89972e-12</wgt>
  <wgt id="847">3.08422e-12</wgt>
  <wgt id="848">1.77893e-12</wgt>
  <wgt id="849">3.15387e-12</wgt>
  <wgt id="850">4.47373e-12</wgt>
  <wgt id="851">3.43194e-12</wgt>
  <wgt id="852">1.51638e-12</wgt>
  <wgt id="853">3.58398e-12</wgt>
  <wgt id="854">4.06238e-12</wgt>
  <wgt id="855">3.60506e-12</wgt>
  <wgt id="856">1.3117e-12</wgt>
  <wgt id="857">2.53045e-12</wgt>
  <wgt id="858">2.70882e-12</wgt>
  <wgt id="859">2.7648e-12</wgt>
  <wgt id="860">3.71578e-12</wgt>
  <wgt id="861">2.37429e-12</wgt>
  <wgt id="862">2.96332e-12</wgt>
  <wgt id="863">3.35479e-12</wgt>
  <wgt id="864">2.9886e-12</wgt>
  <wgt id="865">4.74435e-12</wgt>
  <wgt id="866">5.2385e-12</wgt>
  <wgt id="867">2.94145e-12</wgt>
  <wgt id="868">3.01082e-12</wgt>
  <wgt id="869">1.64015e-12</wgt>
  <wgt id="870">1.96123e-12</wgt>
  <wgt id="871">1.96977e-12</wgt>
  <wgt id="872">4.17829e-12</wgt>
  <wgt id="873">2.26655e-12</wgt>
  <wgt id="874">3.22107e-12</wgt>
  <wgt id="875">2.22021e-12</wgt>
  <wgt id="876">4.00393e-12</wgt>
  <wgt id="877">3.33459e-12</wgt>
  <wgt id="878">2.29813e-12</wgt>
  <wgt id="879">4.34559e-12</wgt>
  <wgt id="880">4.39174e-12</wgt>
  <wgt id="881">4.74667e-12</wgt>
  <wgt id="882">4.39578e-12</wgt>
  <wgt id="883">4.36893e-12</wgt>
  <wgt id="884">4.26085e-12</wgt>
  <wgt id="885">4.55412e-12</wgt>
  <wgt id="886">4.0358e-12</wgt>
  <wgt id="887">4.57735e-12</wgt>
  <wgt id="888">4.30983e-12</wgt>
  <wgt id="889">4.39252e-12</wgt>
  <wgt id="890">4.50263e-12</wgt>
  <wgt id="891">4.2124e-12</wgt>
  <wgt id="892">4.5622e-12</wgt>
  <wgt id="893">4.47155e-12</wgt>
  <wgt id="894">4.46619e-12</wgt>
  <wgt id="895">4.24435e-12</wgt>
  <wgt id="896">5.69892e-12</wgt>
  <wgt id="897">4.77274e-12</wgt>
  <wgt id="898">4.08374e-12</wgt>
  <wgt id="899">4.15483e-12</wgt>
  <wgt id="900">3.94843e-12</wgt>
  <wgt id="901">3.61859e-12</wgt>
  <wgt id="902">3.68599e-12</wgt>
  <wgt id="903">3.82167e-12</wgt>
  <wgt id="904">4.34348e-12</wgt>
  <wgt id="905">4.18961e-12</wgt>
  <wgt id="906">5.36153e-12</wgt>
  <wgt id="907">4.8977e-12</wgt>
  <wgt id="908">4.86008e-12</wgt>
  <wgt id="909">4.05436e-12</wgt>
  <wgt id="910">4.07489e-12</wgt>
  <wgt id="911">4.17137e-12</wgt>
  <wgt id="912">4.21233e-12</wgt>
  <wgt id="913">3.69118e-12</wgt>
  <wgt id="914">4.58156e-12</wgt>
  <wgt id="915">4.08997e-12</wgt>
  <wgt id="916">4.68873e-12</wgt>
  <wgt id="917">3.94518e-12</wgt>
  <wgt id="918">4.16192e-12</wgt>
  <wgt id="919">4.18073e-12</wgt>
  <wgt id="920">3.81161e-12</wgt>
  <wgt id="921">4.43988e-12</wgt>
  <wgt id="922">3.94711e-12</wgt>
  <wgt id="923">4.40025e-12</wgt>
  <wgt id="924">3.72289e-12</wgt>
  <wgt id="925">3.46062e-12</wgt>
  <wgt id="926">4.86878e-12</wgt>
  <wgt id="927">4.70354e-12</wgt>
  <wgt id="928">4.55335e-12</wgt>
  <wgt id="929">4.32908e-12</wgt>
  <wgt id="930">4.34832e-12</wgt>
  <wgt id="931">4.24351e-12</wgt>
  <wgt id="932">4.01531e-12</wgt>
  <wgt id="933">4.81272e-12</wgt>
  <wgt id="934">4.27382e-12</wgt>
  <wgt id="935">5.04329e-12</wgt>
  <wgt id="936">4.06534e-12</wgt>
  <wgt id="937">4.4938e-12</wgt>
  <wgt id="938">4.35529e-12</wgt>
  <wgt id="939">4.048e-12</wgt>
  <wgt id="940">4.10863e-12</wgt>
  <wgt id="941">4.12929e-12</wgt>
  <wgt id="942">4.63809e-12</wgt>
  <wgt id="943">5.12006e-12</wgt>
  <wgt id="944">4.44161e-12</wgt>
  <wgt id="945">4.19606e-12</wgt>
  <wgt id="946">3.96607e-12</wgt>
  <wgt id="947">4.26043e-12</wgt>
  <wgt id="948">4.73578e-12</wgt>
  <wgt id="949">4.8668e-12</wgt>
  <wgt id="950">3.63179e-12</wgt>
  <wgt id="951">4.20044e-12</wgt>
  <wgt id="952">4.52605e-12</wgt>
  <wgt id="953">4.67961e-12</wgt>
  <wgt id="954">4.38742e-12</wgt>
  <wgt id="955">3.90949e-12</wgt>
  <wgt id="956">3.90674e-12</wgt>
  <wgt id="957">4.54328e-12</wgt>
  <wgt id="958">4.25956e-12</wgt>
  <wgt id="959">4.23017e-12</wgt>
  <wgt id="960">3.77529e-12</wgt>
  <wgt id="961">4.2427e-12</wgt>
  <wgt id="962">4.75406e-12</wgt>
  <wgt id="963">4.19056e-12</wgt>
  <wgt id="964">4.79597e-12</wgt>
  <wgt id="965">4.81941e-12</wgt>
  <wgt id="966">4.42813e-12</wgt>
  <wgt id="967">4.6361e-12</wgt>
  <wgt id="968">4.39495e-12</wgt>
  <wgt id="969">4.39554e-12</wgt>
  <wgt id="970">4.43737e-12</wgt>
  <wgt id="971">3.96148e-12</wgt>
  <wgt id="972">4.58949e-12</wgt>
  <wgt id="973">4.10153e-12</wgt>
  <wgt id="974">5.34012e-12</wgt>
  <wgt id="975">4.21571e-12</wgt>
  <wgt id="976">4.35192e-12</wgt>
  <wgt id="977">3.46431e-12</wgt>
  <wgt id="978">4.55983e-12</wgt>
  <wgt id="979">4.97393e-12</wgt>
  <wgt id="980">4.31674e-12</wgt>
  <wgt id="981">4.43487e-12</wgt>
  <wgt id="982">4.21019e-12</wgt>
</rwgt>
</event>
<event>
 5   1  0.3028200E-11  0.2407023E+04  0.7818608E-02  0.7675099E-01
       21   -1    0    0  502  501  0.00000000000E+00  0.00000000000E+00  0.18524987618E+04  0.18524987618E+04  0.00000000000E+00 0.  1.
       21   -1    0    0  501  502 -0.00000000000E+00 -0.00000000000E+00 -0.78188415798E+03  0.78188415798E+03  0.00000000000E+00 0. -1.
       39    2    1    2    0    0  0.00000000000E+00  0.00000000000E+00  0.10706146038E+04  0.26343829198E+04  0.24070225878E+04 0.  0.
       25    1    3    3    0    0 -0.56579806632E+03 -0.10254264384E+04  0.26458099865E+03  0.12071681479E+04  0.12500000000E+03 0.  0.
       25    1    3    3    0    0  0.56579806632E+03  0.10254264384E+04  0.80603360516E+03  0.14272147719E+04  0.12500000000E+03 0.  0.
<mgrwt>
<rscale>  0 0.24070226E+04</rscale>
<asrwt>0</asrwt>
<pdfrwt beam="1">  1       21 0.28499981E+00 0.24070226E+04</pdfrwt>
<pdfrwt beam="2">  1       21 0.12028987E+00 0.24070226E+04</pdfrwt>
<totfact> 0.74363596E+00</totfact>
</mgrwt>
<rwgt>
  <wgt id="1">3.0282e-12</wgt>
  <wgt id="2">2.6211e-12</wgt>
  <wgt id="3">3.53649e-12</wgt>
  <wgt id="4">3.0282e-12</wgt>
  <wgt id="5">2.6211e-12</wgt>
  <wgt id="6">3.53649e-12</wgt>
  <wgt id="7">3.0282e-12</wgt>
  <wgt id="8">2.6211e-12</wgt>
  <wgt id="9">3.53649e-12</wgt>
  <wgt id="10">3.17303e-12</wgt>
  <wgt id="11">3.17112e-12</wgt>
  <wgt id="12">3.16683e-12</wgt>
  <wgt id="13">3.16443e-12</wgt>
  <wgt id="14">3.18434e-12</wgt>
  <wgt id="15">3.17845e-12</wgt>
  <wgt id="16">3.16729e-12</wgt>
  <wgt id="17">3.18553e-12</wgt>
  <wgt id="18">3.16809e-12</wgt>
  <wgt id="19">3.18292e-12</wgt>
  <wgt id="20">3.16834e-12</wgt>
  <wgt id="21">3.14888e-12</wgt>
  <wgt id="22">3.15333e-12</wgt>
  <wgt id="23">3.13136e-12</wgt>
  <wgt id="24">3.1522e-12</wgt>
  <wgt id="25">3.16182e-12</wgt>
  <wgt id="26">3.18335e-12</wgt>
  <wgt id="27">3.16899e-12</wgt>
  <wgt id="28">3.15443e-12</wgt>
  <wgt id="29">3.17481e-12</wgt>
  <wgt id="30">3.15288e-12</wgt>
  <wgt id="31">3.18679e-12</wgt>
  <wgt id="32">3.15705e-12</wgt>
  <wgt id="33">3.17882e-12</wgt>
  <wgt id="34">3.15557e-12</wgt>
  <wgt id="35">3.15992e-12</wgt>
  <wgt id="36">3.18685e-12</wgt>
  <wgt id="37">3.1633e-12</wgt>
  <wgt id="38">3.16131e-12</wgt>
  <wgt id="39">3.22112e-12</wgt>
  <wgt id="40">3.17626e-12</wgt>
  <wgt id="41">3.1709e-12</wgt>
  <wgt id="42">3.17918e-12</wgt>
  <wgt id="43">3.17349e-12</wgt>
  <wgt id="44">3.17845e-12</wgt>
  <wgt id="45">3.17849e-12</wgt>
  <wgt id="46">3.16692e-12</wgt>
  <wgt id="47">3.18573e-12</wgt>
  <wgt id="48">3.18174e-12</wgt>
  <wgt id="49">3.16163e-12</wgt>
  <wgt id="50">3.16202e-12</wgt>
  <wgt id="51">3.16496e-12</wgt>
  <wgt id="52">3.17929e-12</wgt>
  <wgt id="53">3.17818e-12</wgt>
  <wgt id="54">3.17953e-12</wgt>
  <wgt id="55">3.17295e-12</wgt>
  <wgt id="56">3.17431e-12</wgt>
  <wgt id="57">3.16827e-12</wgt>
  <wgt id="58">3.16484e-12</wgt>
  <wgt id="59">3.17103e-12</wgt>
  <wgt id="60">3.16284e-12</wgt>
  <wgt id="61">3.15348e-12</wgt>
  <wgt id="62">3.16287e-12</wgt>
  <wgt id="63">3.16931e-12</wgt>
  <wgt id="64">3.17214e-12</wgt>
  <wgt id="65">3.17022e-12</wgt>
  <wgt id="66">3.1715e-12</wgt>
  <wgt id="67">3.16036e-12</wgt>
  <wgt id="68">3.17228e-12</wgt>
  <wgt id="69">3.17068e-12</wgt>
  <wgt id="70">3.17039e-12</wgt>
  <wgt id="71">3.16932e-12</wgt>
  <wgt id="72">3.15756e-12</wgt>
  <wgt id="73">3.18358e-12</wgt>
  <wgt id="74">3.1786e-12</wgt>
  <wgt id="75">3.17331e-12</wgt>
  <wgt id="76">3.18805e-12</wgt>
  <wgt id="77">3.16919e-12</wgt>
  <wgt id="78">3.1703e-12</wgt>
  <wgt id="79">3.18199e-12</wgt>
  <wgt id="80">3.15285e-12</wgt>
  <wgt id="81">3.17294e-12</wgt>
  <wgt id="82">3.17457e-12</wgt>
  <wgt id="83">3.15749e-12</wgt>
  <wgt id="84">3.1674e-12</wgt>
  <wgt id="85">3.16339e-12</wgt>
  <wgt id="86">3.18316e-12</wgt>
  <wgt id="87">3.15035e-12</wgt>
  <wgt id="88">3.17825e-12</wgt>
  <wgt id="89">3.17601e-12</wgt>
  <wgt id="90">3.18321e-12</wgt>
  <wgt id="91">3.17659e-12</wgt>
  <wgt id="92">3.18016e-12</wgt>
  <wgt id="93">3.17736e-12</wgt>
  <wgt id="94">3.1679e-12</wgt>
  <wgt id="95">3.18326e-12</wgt>
  <wgt id="96">3.17813e-12</wgt>
  <wgt id="97">3.16339e-12</wgt>
  <wgt id="98">3.17348e-12</wgt>
  <wgt id="99">3.16542e-12</wgt>
  <wgt id="100">3.18052e-12</wgt>
  <wgt id="101">3.17304e-12</wgt>
  <wgt id="102">3.17045e-12</wgt>
  <wgt id="103">3.18145e-12</wgt>
  <wgt id="104">3.16868e-12</wgt>
  <wgt id="105">3.1785e-12</wgt>
  <wgt id="106">3.16629e-12</wgt>
  <wgt id="107">3.18786e-12</wgt>
  <wgt id="108">3.16767e-12</wgt>
  <wgt id="109">3.17658e-12</wgt>
  <wgt id="110">3.17166e-12</wgt>
  <wgt id="111">3.19134e-12</wgt>
  <wgt id="112">3.19759e-12</wgt>
  <wgt id="113">4.46424e-12</wgt>
  <wgt id="114">4.3475e-12</wgt>
  <wgt id="115">4.27467e-12</wgt>
  <wgt id="116">6.01531e-12</wgt>
  <wgt id="117">3.53823e-12</wgt>
  <wgt id="118">3.55154e-12</wgt>
  <wgt id="119">3.53065e-12</wgt>
  <wgt id="120">3.53843e-12</wgt>
  <wgt id="121">3.5381e-12</wgt>
  <wgt id="122">3.53242e-12</wgt>
  <wgt id="123">3.54629e-12</wgt>
  <wgt id="124">3.53341e-12</wgt>
  <wgt id="125">3.54129e-12</wgt>
  <wgt id="126">3.54427e-12</wgt>
  <wgt id="127">3.53421e-12</wgt>
  <wgt id="128">3.54913e-12</wgt>
  <wgt id="129">3.52737e-12</wgt>
  <wgt id="130">3.5574e-12</wgt>
  <wgt id="131">3.5185e-12</wgt>
  <wgt id="132">3.44168e-12</wgt>
  <wgt id="133">3.65312e-12</wgt>
  <wgt id="134">3.4993e-12</wgt>
  <wgt id="135">3.56875e-12</wgt>
  <wgt id="136">3.58944e-12</wgt>
  <wgt id="137">3.47655e-12</wgt>
  <wgt id="138">3.69129e-12</wgt>
  <wgt id="139">3.39208e-12</wgt>
  <wgt id="140">3.51845e-12</wgt>
  <wgt id="141">3.55348e-12</wgt>
  <wgt id="142">3.53793e-12</wgt>
  <wgt id="143">3.54688e-12</wgt>
  <wgt id="144">3.40839e-12</wgt>
  <wgt id="145">3.66248e-12</wgt>
  <wgt id="146">3.5797e-12</wgt>
  <wgt id="147">3.50471e-12</wgt>
  <wgt id="148">3.55069e-12</wgt>
  <wgt id="149">3.53737e-12</wgt>
  <wgt id="150">3.56886e-12</wgt>
  <wgt id="151">3.52389e-12</wgt>
  <wgt id="152">3.53966e-12</wgt>
  <wgt id="153">3.53772e-12</wgt>
  <wgt id="154">3.55505e-12</wgt>
  <wgt id="155">3.51436e-12</wgt>
  <wgt id="156">3.6393e-12</wgt>
  <wgt id="157">3.44203e-12</wgt>
  <wgt id="158">4.24774e-12</wgt>
  <wgt id="159">4.26562e-12</wgt>
  <wgt id="160">4.23317e-12</wgt>
  <wgt id="161">4.23652e-12</wgt>
  <wgt id="162">4.26017e-12</wgt>
  <wgt id="163">4.24282e-12</wgt>
  <wgt id="164">4.25501e-12</wgt>
  <wgt id="165">4.24936e-12</wgt>
  <wgt id="166">4.24647e-12</wgt>
  <wgt id="167">4.24471e-12</wgt>
  <wgt id="168">4.25187e-12</wgt>
  <wgt id="169">4.2301e-12</wgt>
  <wgt id="170">4.25862e-12</wgt>
  <wgt id="171">4.24359e-12</wgt>
  <wgt id="172">4.2535e-12</wgt>
  <wgt id="173">4.24308e-12</wgt>
  <wgt id="174">4.24922e-12</wgt>
  <wgt id="175">4.12353e-12</wgt>
  <wgt id="176">4.41035e-12</wgt>
  <wgt id="177">4.2697e-12</wgt>
  <wgt id="178">4.22757e-12</wgt>
  <wgt id="179">4.45081e-12</wgt>
  <wgt id="180">3.93192e-12</wgt>
  <wgt id="181">4.11121e-12</wgt>
  <wgt id="182">4.33836e-12</wgt>
  <wgt id="183">4.16472e-12</wgt>
  <wgt id="184">4.28891e-12</wgt>
  <wgt id="185">4.20552e-12</wgt>
  <wgt id="186">4.29904e-12</wgt>
  <wgt id="187">4.20384e-12</wgt>
  <wgt id="188">4.32581e-12</wgt>
  <wgt id="189">4.21635e-12</wgt>
  <wgt id="190">4.26043e-12</wgt>
  <wgt id="191">4.26152e-12</wgt>
  <wgt id="192">4.23956e-12</wgt>
  <wgt id="193">4.31587e-12</wgt>
  <wgt id="194">4.2137e-12</wgt>
  <wgt id="195">4.11007e-12</wgt>
  <wgt id="196">4.47796e-12</wgt>
  <wgt id="197">4.27039e-12</wgt>
  <wgt id="198">4.2422e-12</wgt>
  <wgt id="199">4.24774e-12</wgt>
  <wgt id="200">4.28743e-12</wgt>
  <wgt id="201">4.27349e-12</wgt>
  <wgt id="202">4.26006e-12</wgt>
  <wgt id="203">4.24029e-12</wgt>
  <wgt id="204">4.2305e-12</wgt>
  <wgt id="205">4.22254e-12</wgt>
  <wgt id="206">4.13186e-12</wgt>
  <wgt id="207">4.15654e-12</wgt>
  <wgt id="208">4.10752e-12</wgt>
  <wgt id="209">4.14517e-12</wgt>
  <wgt id="210">4.12221e-12</wgt>
  <wgt id="211">4.13033e-12</wgt>
  <wgt id="212">4.13314e-12</wgt>
  <wgt id="213">4.13152e-12</wgt>
  <wgt id="214">4.13243e-12</wgt>
  <wgt id="215">4.13515e-12</wgt>
  <wgt id="216">4.12958e-12</wgt>
  <wgt id="217">4.14278e-12</wgt>
  <wgt id="218">4.12348e-12</wgt>
  <wgt id="219">4.12769e-12</wgt>
  <wgt id="220">4.13446e-12</wgt>
  <wgt id="221">4.13187e-12</wgt>
  <wgt id="222">4.13124e-12</wgt>
  <wgt id="223">3.90054e-12</wgt>
  <wgt id="224">4.34361e-12</wgt>
  <wgt id="225">4.08006e-12</wgt>
  <wgt id="226">4.1975e-12</wgt>
  <wgt id="227">4.09166e-12</wgt>
  <wgt id="228">4.14953e-12</wgt>
  <wgt id="229">4.07253e-12</wgt>
  <wgt id="230">4.16137e-12</wgt>
  <wgt id="231">4.26402e-12</wgt>
  <wgt id="232">4.02365e-12</wgt>
  <wgt id="233">4.10763e-12</wgt>
  <wgt id="234">4.17181e-12</wgt>
  <wgt id="235">3.99681e-12</wgt>
  <wgt id="236">4.24583e-12</wgt>
  <wgt id="237">4.04965e-12</wgt>
  <wgt id="238">4.15943e-12</wgt>
  <wgt id="239">4.09799e-12</wgt>
  <wgt id="240">4.19278e-12</wgt>
  <wgt id="241">4.08439e-12</wgt>
  <wgt id="242">4.18871e-12</wgt>
  <wgt id="243">4.1979e-12</wgt>
  <wgt id="244">4.1407e-12</wgt>
  <wgt id="245">4.12978e-12</wgt>
  <wgt id="246">4.15814e-12</wgt>
  <wgt id="247">4.13186e-12</wgt>
  <wgt id="248">4.17299e-12</wgt>
  <wgt id="249">4.15823e-12</wgt>
  <wgt id="250">4.1436e-12</wgt>
  <wgt id="251">4.12288e-12</wgt>
  <wgt id="252">4.11268e-12</wgt>
  <wgt id="253">4.10552e-12</wgt>
  <wgt id="254">4.01325e-12</wgt>
  <wgt id="255">4.017e-12</wgt>
  <wgt id="256">4.00921e-12</wgt>
  <wgt id="257">4.01629e-12</wgt>
  <wgt id="258">4.01103e-12</wgt>
  <wgt id="259">4.04016e-12</wgt>
  <wgt id="260">3.98722e-12</wgt>
  <wgt id="261">4.01996e-12</wgt>
  <wgt id="262">4.00532e-12</wgt>
  <wgt id="263">4.01072e-12</wgt>
  <wgt id="264">4.01626e-12</wgt>
  <wgt id="265">4.00824e-12</wgt>
  <wgt id="266">4.02333e-12</wgt>
  <wgt id="267">4.01466e-12</wgt>
  <wgt id="268">4.01132e-12</wgt>
  <wgt id="269">4.02643e-12</wgt>
  <wgt id="270">4.0043e-12</wgt>
  <wgt id="271">4.00423e-12</wgt>
  <wgt id="272">4.0233e-12</wgt>
  <wgt id="273">4.0015e-12</wgt>
  <wgt id="274">4.02222e-12</wgt>
  <wgt id="275">3.992e-12</wgt>
  <wgt id="276">4.03528e-12</wgt>
  <wgt id="277">3.98963e-12</wgt>
  <wgt id="278">4.03489e-12</wgt>
  <wgt id="279">3.93563e-12</wgt>
  <wgt id="280">4.11096e-12</wgt>
  <wgt id="281">3.9945e-12</wgt>
  <wgt id="282">4.01648e-12</wgt>
  <wgt id="283">3.88732e-12</wgt>
  <wgt id="284">4.16969e-12</wgt>
  <wgt id="285">3.80541e-12</wgt>
  <wgt id="286">4.18756e-12</wgt>
  <wgt id="287">4.02693e-12</wgt>
  <wgt id="288">3.99572e-12</wgt>
  <wgt id="289">4.0443e-12</wgt>
  <wgt id="290">3.94325e-12</wgt>
  <wgt id="291">3.99924e-12</wgt>
  <wgt id="292">4.01486e-12</wgt>
  <wgt id="293">3.97944e-12</wgt>
  <wgt id="294">4.04693e-12</wgt>
  <wgt id="295">3.93114e-12</wgt>
  <wgt id="296">4.11381e-12</wgt>
  <wgt id="297">4.00726e-12</wgt>
  <wgt id="298">4.03206e-12</wgt>
  <wgt id="299">3.99965e-12</wgt>
  <wgt id="300">4.04943e-12</wgt>
  <wgt id="301">3.94021e-12</wgt>
  <wgt id="302">4.18583e-12</wgt>
  <wgt id="303">3.97384e-12</wgt>
  <wgt id="304">4.03554e-12</wgt>
  <wgt id="305">3.99834e-12</wgt>
  <wgt id="306">4.00223e-12</wgt>
  <wgt id="307">3.99414e-12</wgt>
  <wgt id="308">4.00171e-12</wgt>
  <wgt id="309">3.99613e-12</wgt>
  <wgt id="310">4.02602e-12</wgt>
  <wgt id="311">3.97273e-12</wgt>
  <wgt id="312">4.00415e-12</wgt>
  <wgt id="313">3.99215e-12</wgt>
  <wgt id="314">3.99573e-12</wgt>
  <wgt id="315">4.00083e-12</wgt>
  <wgt id="316">3.99336e-12</wgt>
  <wgt id="317">4.00907e-12</wgt>
  <wgt id="318">4.00139e-12</wgt>
  <wgt id="319">3.99296e-12</wgt>
  <wgt id="320">4.01235e-12</wgt>
  <wgt id="321">3.9905e-12</wgt>
  <wgt id="322">3.98782e-12</wgt>
  <wgt id="323">4.0105e-12</wgt>
  <wgt id="324">3.98903e-12</wgt>
  <wgt id="325">4.00643e-12</wgt>
  <wgt id="326">3.98105e-12</wgt>
  <wgt id="327">4.02046e-12</wgt>
  <wgt id="328">3.97732e-12</wgt>
  <wgt id="329">4.01006e-12</wgt>
  <wgt id="330">4.11657e-12</wgt>
  <wgt id="331">3.88578e-12</wgt>
  <wgt id="332">3.98268e-12</wgt>
  <wgt id="333">4.00017e-12</wgt>
  <wgt id="334">3.90113e-12</wgt>
  <wgt id="335">4.11977e-12</wgt>
  <wgt id="336">3.8494e-12</wgt>
  <wgt id="337">4.18168e-12</wgt>
  <wgt id="338">4.04624e-12</wgt>
  <wgt id="339">3.9541e-12</wgt>
  <wgt id="340">4.02693e-12</wgt>
  <wgt id="341">3.92671e-12</wgt>
  <wgt id="342">3.98825e-12</wgt>
  <wgt id="343">3.99255e-12</wgt>
  <wgt id="344">3.96825e-12</wgt>
  <wgt id="345">4.03332e-12</wgt>
  <wgt id="346">3.91373e-12</wgt>
  <wgt id="347">4.0956e-12</wgt>
  <wgt id="348">3.99339e-12</wgt>
  <wgt id="349">4.0148e-12</wgt>
  <wgt id="350">3.98141e-12</wgt>
  <wgt id="351">4.04134e-12</wgt>
  <wgt id="352">3.92143e-12</wgt>
  <wgt id="353">4.17173e-12</wgt>
  <wgt id="354">3.94051e-12</wgt>
  <wgt id="355">4.03299e-12</wgt>
  <wgt id="356">4.01325e-12</wgt>
  <wgt id="357">4.00719e-12</wgt>
  <wgt id="358">3.99834e-12</wgt>
  <wgt id="359">4.01914e-12</wgt>
  <wgt id="360">4.06488e-12</wgt>
  <wgt id="361">4.03089e-12</wgt>
  <wgt id="362">4.10815e-12</wgt>
  <wgt id="363">4.09771e-12</wgt>
  <wgt id="364">4.0799e-12</wgt>
  <wgt id="365">4.06493e-12</wgt>
  <wgt id="366">4.04895e-12</wgt>
  <wgt id="367">4.01767e-12</wgt>
  <wgt id="368">3.99895e-12</wgt>
  <wgt id="369">3.9788e-12</wgt>
  <wgt id="370">4.03089e-12</wgt>
  <wgt id="371">4.04838e-12</wgt>
  <wgt id="372">4.03867e-12</wgt>
  <wgt id="373">4.02458e-12</wgt>
  <wgt id="374">4.02688e-12</wgt>
  <wgt id="375">4.46963e-12</wgt>
  <wgt id="376">4.4701e-12</wgt>
  <wgt id="377">4.46898e-12</wgt>
  <wgt id="378">4.48624e-12</wgt>
  <wgt id="379">4.45301e-12</wgt>
  <wgt id="380">4.48199e-12</wgt>
  <wgt id="381">4.46464e-12</wgt>
  <wgt id="382">4.49223e-12</wgt>
  <wgt id="383">4.44716e-12</wgt>
  <wgt id="384">4.47255e-12</wgt>
  <wgt id="385">4.46679e-12</wgt>
  <wgt id="386">4.48648e-12</wgt>
  <wgt id="387">4.46229e-12</wgt>
  <wgt id="388">4.46546e-12</wgt>
  <wgt id="389">4.47467e-12</wgt>
  <wgt id="390">4.48098e-12</wgt>
  <wgt id="391">4.45744e-12</wgt>
  <wgt id="392">4.43075e-12</wgt>
  <wgt id="393">4.49164e-12</wgt>
  <wgt id="394">4.47423e-12</wgt>
  <wgt id="395">4.46302e-12</wgt>
  <wgt id="396">4.47575e-12</wgt>
  <wgt id="397">4.46514e-12</wgt>
  <wgt id="398">4.45545e-12</wgt>
  <wgt id="399">4.48322e-12</wgt>
  <wgt id="400">4.46209e-12</wgt>
  <wgt id="401">4.48629e-12</wgt>
  <wgt id="402">4.42963e-12</wgt>
  <wgt id="403">4.49141e-12</wgt>
  <wgt id="404">4.58942e-12</wgt>
  <wgt id="405">4.18336e-12</wgt>
  <wgt id="406">4.38361e-12</wgt>
  <wgt id="407">4.65906e-12</wgt>
  <wgt id="408">4.51434e-12</wgt>
  <wgt id="409">4.38606e-12</wgt>
  <wgt id="410">4.32967e-12</wgt>
  <wgt id="411">4.53615e-12</wgt>
  <wgt id="412">4.46e-12</wgt>
  <wgt id="413">4.48395e-12</wgt>
  <wgt id="414">4.41368e-12</wgt>
  <wgt id="415">4.51309e-12</wgt>
  <wgt id="416">4.61008e-12</wgt>
  <wgt id="417">4.27628e-12</wgt>
  <wgt id="418">4.47741e-12</wgt>
  <wgt id="419">4.4278e-12</wgt>
  <wgt id="420">4.56363e-12</wgt>
  <wgt id="421">4.40974e-12</wgt>
  <wgt id="422">4.4504e-12</wgt>
  <wgt id="423">4.47904e-12</wgt>
  <wgt id="424">4.58747e-12</wgt>
  <wgt id="425">4.39158e-12</wgt>
  <wgt id="426">4.46963e-12</wgt>
  <wgt id="427">4.40144e-12</wgt>
  <wgt id="428">4.63823e-12</wgt>
  <wgt id="429">4.52279e-12</wgt>
  <wgt id="430">4.66377e-12</wgt>
  <wgt id="431">4.63534e-12</wgt>
  <wgt id="432">4.60907e-12</wgt>
  <wgt id="433">4.58338e-12</wgt>
  <wgt id="434">4.55128e-12</wgt>
  <wgt id="435">4.48704e-12</wgt>
  <wgt id="436">4.45433e-12</wgt>
  <wgt id="437">4.4228e-12</wgt>
  <wgt id="438">4.52279e-12</wgt>
  <wgt id="439">4.53715e-12</wgt>
  <wgt id="440">4.52839e-12</wgt>
  <wgt id="441">4.5187e-12</wgt>
  <wgt id="442">4.51538e-12</wgt>
  <wgt id="443">4.2091e-12</wgt>
  <wgt id="444">4.24518e-12</wgt>
  <wgt id="445">4.22466e-12</wgt>
  <wgt id="446">4.17894e-12</wgt>
  <wgt id="447">4.20409e-12</wgt>
  <wgt id="448">4.09927e-12</wgt>
  <wgt id="449">4.28772e-12</wgt>
  <wgt id="450">4.23376e-12</wgt>
  <wgt id="451">4.19876e-12</wgt>
  <wgt id="452">4.30663e-12</wgt>
  <wgt id="453">4.2561e-12</wgt>
  <wgt id="454">4.00889e-12</wgt>
  <wgt id="455">4.23108e-12</wgt>
  <wgt id="456">4.24253e-12</wgt>
  <wgt id="457">4.22536e-12</wgt>
  <wgt id="458">4.274e-12</wgt>
  <wgt id="459">4.2449e-12</wgt>
  <wgt id="460">4.26712e-12</wgt>
  <wgt id="461">4.11397e-12</wgt>
  <wgt id="462">4.17549e-12</wgt>
  <wgt id="463">4.14843e-12</wgt>
  <wgt id="464">4.18631e-12</wgt>
  <wgt id="465">4.25684e-12</wgt>
  <wgt id="466">4.13061e-12</wgt>
  <wgt id="467">4.17018e-12</wgt>
  <wgt id="468">4.20091e-12</wgt>
  <wgt id="469">4.1977e-12</wgt>
  <wgt id="470">4.15406e-12</wgt>
  <wgt id="471">4.16169e-12</wgt>
  <wgt id="472">4.2344e-12</wgt>
  <wgt id="473">4.06566e-12</wgt>
  <wgt id="474">3.0282e-12</wgt>
  <wgt id="475">3.07727e-12</wgt>
  <wgt id="476">2.99245e-12</wgt>
  <wgt id="477">3.02372e-12</wgt>
  <wgt id="478">3.05482e-12</wgt>
  <wgt id="479">2.92224e-12</wgt>
  <wgt id="480">3.16715e-12</wgt>
  <wgt id="481">3.0268e-12</wgt>
  <wgt id="482">2.99337e-12</wgt>
  <wgt id="483">2.98228e-12</wgt>
  <wgt id="484">3.15733e-12</wgt>
  <wgt id="485">2.87689e-12</wgt>
  <wgt id="486">3.16863e-12</wgt>
  <wgt id="487">3.00392e-12</wgt>
  <wgt id="488">3.07559e-12</wgt>
  <wgt id="489">2.80587e-12</wgt>
  <wgt id="490">2.92734e-12</wgt>
  <wgt id="491">2.99832e-12</wgt>
  <wgt id="492">2.96927e-12</wgt>
  <wgt id="493">2.85517e-12</wgt>
  <wgt id="494">2.87798e-12</wgt>
  <wgt id="495">3.04335e-12</wgt>
  <wgt id="496">2.90776e-12</wgt>
  <wgt id="497">2.86395e-12</wgt>
  <wgt id="498">3.11263e-12</wgt>
  <wgt id="499">3.01424e-12</wgt>
  <wgt id="500">2.96327e-12</wgt>
  <wgt id="501">3.15688e-12</wgt>
  <wgt id="502">3.06196e-12</wgt>
  <wgt id="503">3.00354e-12</wgt>
  <wgt id="504">3.10933e-12</wgt>
  <wgt id="505">3.08518e-12</wgt>
  <wgt id="506">2.92385e-12</wgt>
  <wgt id="507">3.0167e-12</wgt>
  <wgt id="508">3.15288e-12</wgt>
  <wgt id="509">2.88203e-12</wgt>
  <wgt id="510">3.08989e-12</wgt>
  <wgt id="511">2.90841e-12</wgt>
  <wgt id="512">3.17062e-12</wgt>
  <wgt id="513">3.15309e-12</wgt>
  <wgt id="514">3.11574e-12</wgt>
  <wgt id="515">3.05015e-12</wgt>
  <wgt id="516">3.25648e-12</wgt>
  <wgt id="517">3.09944e-12</wgt>
  <wgt id="518">3.11913e-12</wgt>
  <wgt id="519">2.91691e-12</wgt>
  <wgt id="520">3.08866e-12</wgt>
  <wgt id="521">3.04034e-12</wgt>
  <wgt id="522">3.16006e-12</wgt>
  <wgt id="523">2.95085e-12</wgt>
  <wgt id="524">3.04244e-12</wgt>
  <wgt id="525">3.05635e-12</wgt>
  <wgt id="526">3.12223e-12</wgt>
  <wgt id="527">3.02225e-12</wgt>
  <wgt id="528">3.04162e-12</wgt>
  <wgt id="529">2.94493e-12</wgt>
  <wgt id="530">3.13942e-12</wgt>
  <wgt id="531">2.94176e-12</wgt>
  <wgt id="532">3.25601e-12</wgt>
  <wgt id="533">2.9417e-12</wgt>
  <wgt id="534">2.97218e-12</wgt>
  <wgt id="535">3.03071e-12</wgt>
  <wgt id="536">3.07436e-12</wgt>
  <wgt id="537">2.95293e-12</wgt>
  <wgt id="538">3.02996e-12</wgt>
  <wgt id="539">2.96357e-12</wgt>
  <wgt id="540">3.11788e-12</wgt>
  <wgt id="541">2.99097e-12</wgt>
  <wgt id="542">2.98639e-12</wgt>
  <wgt id="543">2.97138e-12</wgt>
  <wgt id="544">3.1096e-12</wgt>
  <wgt id="545">2.92063e-12</wgt>
  <wgt id="546">2.87093e-12</wgt>
  <wgt id="547">2.93951e-12</wgt>
  <wgt id="548">2.90845e-12</wgt>
  <wgt id="549">2.97042e-12</wgt>
  <wgt id="550">2.97198e-12</wgt>
  <wgt id="551">3.05925e-12</wgt>
  <wgt id="552">2.85499e-12</wgt>
  <wgt id="553">2.92666e-12</wgt>
  <wgt id="554">3.21747e-12</wgt>
  <wgt id="555">3.10691e-12</wgt>
  <wgt id="556">2.92734e-12</wgt>
  <wgt id="557">3.10595e-12</wgt>
  <wgt id="558">2.97216e-12</wgt>
  <wgt id="559">3.0087e-12</wgt>
  <wgt id="560">3.34469e-12</wgt>
  <wgt id="561">3.04079e-12</wgt>
  <wgt id="562">3.12638e-12</wgt>
  <wgt id="563">3.1986e-12</wgt>
  <wgt id="564">3.14648e-12</wgt>
  <wgt id="565">3.02314e-12</wgt>
  <wgt id="566">3.0133e-12</wgt>
  <wgt id="567">3.01079e-12</wgt>
  <wgt id="568">2.96877e-12</wgt>
  <wgt id="569">3.0576e-12</wgt>
  <wgt id="570">2.92058e-12</wgt>
  <wgt id="571">3.35723e-12</wgt>
  <wgt id="572">2.95078e-12</wgt>
  <wgt id="573">2.92896e-12</wgt>
  <wgt id="574">2.94114e-12</wgt>
  <wgt id="575">3.35196e-12</wgt>
  <wgt id="576">3.51841e-12</wgt>
  <wgt id="577">3.47923e-12</wgt>
  <wgt id="578">3.43772e-12</wgt>
  <wgt id="579">3.46638e-12</wgt>
  <wgt id="580">3.5232e-12</wgt>
  <wgt id="581">3.65925e-12</wgt>
  <wgt id="582">3.48375e-12</wgt>
  <wgt id="583">3.39566e-12</wgt>
  <wgt id="584">3.32845e-12</wgt>
  <wgt id="585">3.20068e-12</wgt>
  <wgt id="586">3.19889e-12</wgt>
  <wgt id="587">3.40975e-12</wgt>
  <wgt id="588">3.50045e-12</wgt>
  <wgt id="589">3.56002e-12</wgt>
  <wgt id="590">3.34371e-12</wgt>
  <wgt id="591">3.45835e-12</wgt>
  <wgt id="592">3.12506e-12</wgt>
  <wgt id="593">3.28782e-12</wgt>
  <wgt id="594">3.35061e-12</wgt>
  <wgt id="595">3.43719e-12</wgt>
  <wgt id="596">3.72915e-12</wgt>
  <wgt id="597">3.34764e-12</wgt>
  <wgt id="598">3.29682e-12</wgt>
  <wgt id="599">3.52774e-12</wgt>
  <wgt id="600">3.44819e-12</wgt>
  <wgt id="601">3.23125e-12</wgt>
  <wgt id="602">3.25725e-12</wgt>
  <wgt id="603">3.20108e-12</wgt>
  <wgt id="604">3.41885e-12</wgt>
  <wgt id="605">3.433e-12</wgt>
  <wgt id="606">3.3789e-12</wgt>
  <wgt id="607">3.4213e-12</wgt>
  <wgt id="608">3.45239e-12</wgt>
  <wgt id="609">3.26035e-12</wgt>
  <wgt id="610">3.22375e-12</wgt>
  <wgt id="611">3.2737e-12</wgt>
  <wgt id="612">3.52784e-12</wgt>
  <wgt id="613">3.25013e-12</wgt>
  <wgt id="614">3.3444e-12</wgt>
  <wgt id="615">3.3519e-12</wgt>
  <wgt id="616">3.35336e-12</wgt>
  <wgt id="617">3.47183e-12</wgt>
  <wgt id="618">3.62561e-12</wgt>
  <wgt id="619">3.29055e-12</wgt>
  <wgt id="620">3.47644e-12</wgt>
  <wgt id="621">3.33677e-12</wgt>
  <wgt id="622">3.40975e-12</wgt>
  <wgt id="623">3.40246e-12</wgt>
  <wgt id="624">3.36965e-12</wgt>
  <wgt id="625">3.23782e-12</wgt>
  <wgt id="626">3.1136e-12</wgt>
  <wgt id="627">3.11098e-12</wgt>
  <wgt id="628">3.39541e-12</wgt>
  <wgt id="629">3.33689e-12</wgt>
  <wgt id="630">3.25854e-12</wgt>
  <wgt id="631">3.40581e-12</wgt>
  <wgt id="632">3.11608e-12</wgt>
  <wgt id="633">3.33172e-12</wgt>
  <wgt id="634">3.25414e-12</wgt>
  <wgt id="635">3.1345e-12</wgt>
  <wgt id="636">3.39422e-12</wgt>
  <wgt id="637">3.35051e-12</wgt>
  <wgt id="638">3.21338e-12</wgt>
  <wgt id="639">3.25123e-12</wgt>
  <wgt id="640">3.30983e-12</wgt>
  <wgt id="641">3.46588e-12</wgt>
  <wgt id="642">3.19854e-12</wgt>
  <wgt id="643">3.29407e-12</wgt>
  <wgt id="644">3.04364e-12</wgt>
  <wgt id="645">3.35948e-12</wgt>
  <wgt id="646">3.20921e-12</wgt>
  <wgt id="647">3.34922e-12</wgt>
  <wgt id="648">3.45348e-12</wgt>
  <wgt id="649">3.37528e-12</wgt>
  <wgt id="650">3.21994e-12</wgt>
  <wgt id="651">3.52328e-12</wgt>
  <wgt id="652">3.25526e-12</wgt>
  <wgt id="653">3.23579e-12</wgt>
  <wgt id="654">3.33742e-12</wgt>
  <wgt id="655">3.2606e-12</wgt>
  <wgt id="656">3.35609e-12</wgt>
  <wgt id="657">3.61279e-12</wgt>
  <wgt id="658">3.38189e-12</wgt>
  <wgt id="659">3.21175e-12</wgt>
  <wgt id="660">3.31891e-12</wgt>
  <wgt id="661">3.28169e-12</wgt>
  <wgt id="662">3.30805e-12</wgt>
  <wgt id="663">3.38903e-12</wgt>
  <wgt id="664">3.35235e-12</wgt>
  <wgt id="665">3.33314e-12</wgt>
  <wgt id="666">3.2917e-12</wgt>
  <wgt id="667">3.50671e-12</wgt>
  <wgt id="668">3.33164e-12</wgt>
  <wgt id="669">3.38605e-12</wgt>
  <wgt id="670">3.48556e-12</wgt>
  <wgt id="671">3.36162e-12</wgt>
  <wgt id="672">3.22596e-12</wgt>
  <wgt id="673">3.48127e-12</wgt>
  <wgt id="674">3.26229e-12</wgt>
  <wgt id="675">3.26916e-12</wgt>
  <wgt id="676">4.31893e-12</wgt>
  <wgt id="677">4.36669e-12</wgt>
  <wgt id="678">4.65065e-12</wgt>
  <wgt id="679">4.22803e-12</wgt>
  <wgt id="680">4.31262e-12</wgt>
  <wgt id="681">4.28782e-12</wgt>
  <wgt id="682">4.50091e-12</wgt>
  <wgt id="683">4.10922e-12</wgt>
  <wgt id="684">4.52935e-12</wgt>
  <wgt id="685">4.22751e-12</wgt>
  <wgt id="686">4.26308e-12</wgt>
  <wgt id="687">4.50249e-12</wgt>
  <wgt id="688">4.20715e-12</wgt>
  <wgt id="689">4.56503e-12</wgt>
  <wgt id="690">4.46474e-12</wgt>
  <wgt id="691">4.47173e-12</wgt>
  <wgt id="692">4.23766e-12</wgt>
  <wgt id="693">5.45882e-12</wgt>
  <wgt id="694">4.68741e-12</wgt>
  <wgt id="695">4.11166e-12</wgt>
  <wgt id="696">4.13252e-12</wgt>
  <wgt id="697">4.01188e-12</wgt>
  <wgt id="698">3.71157e-12</wgt>
  <wgt id="699">3.7352e-12</wgt>
  <wgt id="700">3.78125e-12</wgt>
  <wgt id="701">4.32253e-12</wgt>
  <wgt id="702">4.20182e-12</wgt>
  <wgt id="703">5.19462e-12</wgt>
  <wgt id="704">4.83525e-12</wgt>
  <wgt id="705">4.74777e-12</wgt>
  <wgt id="706">4.04716e-12</wgt>
  <wgt id="707">4.08465e-12</wgt>
  <wgt id="708">4.19757e-12</wgt>
  <wgt id="709">4.20936e-12</wgt>
  <wgt id="710">3.79485e-12</wgt>
  <wgt id="711">4.42622e-12</wgt>
  <wgt id="712">4.11758e-12</wgt>
  <wgt id="713">4.66125e-12</wgt>
  <wgt id="714">4.02646e-12</wgt>
  <wgt id="715">4.18453e-12</wgt>
  <wgt id="716">4.16518e-12</wgt>
  <wgt id="717">3.89417e-12</wgt>
  <wgt id="718">4.3898e-12</wgt>
  <wgt id="719">3.91211e-12</wgt>
  <wgt id="720">4.2645e-12</wgt>
  <wgt id="721">3.76193e-12</wgt>
  <wgt id="722">3.57213e-12</wgt>
  <wgt id="723">4.75628e-12</wgt>
  <wgt id="724">4.62516e-12</wgt>
  <wgt id="725">4.53023e-12</wgt>
  <wgt id="726">4.31968e-12</wgt>
  <wgt id="727">4.28663e-12</wgt>
  <wgt id="728">4.19346e-12</wgt>
  <wgt id="729">4.07408e-12</wgt>
  <wgt id="730">4.74312e-12</wgt>
  <wgt id="731">4.24615e-12</wgt>
  <wgt id="732">4.92721e-12</wgt>
  <wgt id="733">4.12193e-12</wgt>
  <wgt id="734">4.4502e-12</wgt>
  <wgt id="735">4.34039e-12</wgt>
  <wgt id="736">4.09178e-12</wgt>
  <wgt id="737">4.22423e-12</wgt>
  <wgt id="738">4.10596e-12</wgt>
  <wgt id="739">4.58771e-12</wgt>
  <wgt id="740">4.98129e-12</wgt>
  <wgt id="741">4.19585e-12</wgt>
  <wgt id="742">4.2336e-12</wgt>
  <wgt id="743">3.98715e-12</wgt>
  <wgt id="744">4.23574e-12</wgt>
  <wgt id="745">4.63736e-12</wgt>
  <wgt id="746">4.75522e-12</wgt>
  <wgt id="747">3.69784e-12</wgt>
  <wgt id="748">4.21101e-12</wgt>
  <wgt id="749">4.50223e-12</wgt>
  <wgt id="750">4.59521e-12</wgt>
  <wgt id="751">4.37946e-12</wgt>
  <wgt id="752">3.91072e-12</wgt>
  <wgt id="753">3.95072e-12</wgt>
  <wgt id="754">4.50975e-12</wgt>
  <wgt id="755">4.26909e-12</wgt>
  <wgt id="756">4.24931e-12</wgt>
  <wgt id="757">3.83202e-12</wgt>
  <wgt id="758">4.25616e-12</wgt>
  <wgt id="759">4.67036e-12</wgt>
  <wgt id="760">4.23358e-12</wgt>
  <wgt id="761">4.68315e-12</wgt>
  <wgt id="762">4.70974e-12</wgt>
  <wgt id="763">4.34665e-12</wgt>
  <wgt id="764">4.56309e-12</wgt>
  <wgt id="765">4.36029e-12</wgt>
  <wgt id="766">4.34685e-12</wgt>
  <wgt id="767">4.41235e-12</wgt>
  <wgt id="768">3.98294e-12</wgt>
  <wgt id="769">4.57693e-12</wgt>
  <wgt id="770">4.14273e-12</wgt>
  <wgt id="771">5.23809e-12</wgt>
  <wgt id="772">4.16142e-12</wgt>
  <wgt id="773">4.30054e-12</wgt>
  <wgt id="774">3.54397e-12</wgt>
  <wgt id="775">4.53141e-12</wgt>
  <wgt id="776">4.83532e-12</wgt>
  <wgt id="777">3.94179e-12</wgt>
  <wgt id="778">2.9731e-12</wgt>
  <wgt id="779">2.07806e-12</wgt>
  <wgt id="780">1.42687e-12</wgt>
  <wgt id="781">3.38688e-12</wgt>
  <wgt id="782">3.46979e-12</wgt>
  <wgt id="783">1.99875e-12</wgt>
  <wgt id="784">2.30254e-12</wgt>
  <wgt id="785">4.1803e-12</wgt>
  <wgt id="786">1.94833e-12</wgt>
  <wgt id="787">3.66773e-12</wgt>
  <wgt id="788">1.12849e-12</wgt>
  <wgt id="789">2.24057e-12</wgt>
  <wgt id="790">1.92041e-12</wgt>
  <wgt id="791">3.1871e-12</wgt>
  <wgt id="792">3.99016e-12</wgt>
  <wgt id="793">2.8823e-12</wgt>
  <wgt id="794">1.82373e-12</wgt>
  <wgt id="795">3.87814e-12</wgt>
  <wgt id="796">4.08361e-12</wgt>
  <wgt id="797">3.77082e-12</wgt>
  <wgt id="798">2.44843e-12</wgt>
  <wgt id="799">3.60354e-12</wgt>
  <wgt id="800">2.35533e-12</wgt>
  <wgt id="801">2.76914e-12</wgt>
  <wgt id="802">1.77984e-12</wgt>
  <wgt id="803">4.57634e-12</wgt>
  <wgt id="804">3.85598e-12</wgt>
  <wgt id="805">3.82749e-12</wgt>
  <wgt id="806">3.24296e-12</wgt>
  <wgt id="807">2.8592e-12</wgt>
  <wgt id="808">2.84211e-12</wgt>
  <wgt id="809">2.70157e-12</wgt>
  <wgt id="810">3.35514e-12</wgt>
  <wgt id="811">3.17591e-12</wgt>
  <wgt id="812">1.93163e-12</wgt>
  <wgt id="813">2.05917e-12</wgt>
  <wgt id="814">2.23419e-12</wgt>
  <wgt id="815">2.01533e-12</wgt>
  <wgt id="816">2.00364e-12</wgt>
  <wgt id="817">3.03253e-12</wgt>
  <wgt id="818">3.54873e-12</wgt>
  <wgt id="819">2.06346e-12</wgt>
  <wgt id="820">2.87176e-12</wgt>
  <wgt id="821">3.55993e-12</wgt>
  <wgt id="822">2.3727e-12</wgt>
  <wgt id="823">3.68233e-12</wgt>
  <wgt id="824">4.45567e-12</wgt>
  <wgt id="825">1.72795e-12</wgt>
  <wgt id="826">3.50611e-12</wgt>
  <wgt id="827">1.46805e-12</wgt>
  <wgt id="828">3.83093e-12</wgt>
  <wgt id="829">3.0839e-12</wgt>
  <wgt id="830">1.62871e-12</wgt>
  <wgt id="831">3.39869e-12</wgt>
  <wgt id="832">5.21428e-12</wgt>
  <wgt id="833">2.50333e-12</wgt>
  <wgt id="834">5.02361e-12</wgt>
  <wgt id="835">2.21344e-12</wgt>
  <wgt id="836">2.62261e-12</wgt>
  <wgt id="837">3.4828e-12</wgt>
  <wgt id="838">2.55283e-12</wgt>
  <wgt id="839">3.37393e-12</wgt>
  <wgt id="840">2.60042e-12</wgt>
  <wgt id="841">4.05066e-12</wgt>
  <wgt id="842">2.82415e-12</wgt>
  <wgt id="843">3.13349e-12</wgt>
  <wgt id="844">3.23748e-12</wgt>
  <wgt id="845">4.9154e-12</wgt>
  <wgt id="846">3.04815e-12</wgt>
  <wgt id="847">3.11537e-12</wgt>
  <wgt id="848">2.09471e-12</wgt>
  <wgt id="849">3.16596e-12</wgt>
  <wgt id="850">4.35783e-12</wgt>
  <wgt id="851">3.43511e-12</wgt>
  <wgt id="852">1.91111e-12</wgt>
  <wgt id="853">3.54558e-12</wgt>
  <wgt id="854">3.98061e-12</wgt>
  <wgt id="855">3.63489e-12</wgt>
  <wgt id="856">1.63486e-12</wgt>
  <wgt id="857">2.74021e-12</wgt>
  <wgt id="858">2.78641e-12</wgt>
  <wgt id="859">2.82424e-12</wgt>
  <wgt id="860">3.63659e-12</wgt>
  <wgt id="861">2.51502e-12</wgt>
  <wgt id="862">3.03522e-12</wgt>
  <wgt id="863">3.35388e-12</wgt>
  <wgt id="864">3.11455e-12</wgt>
  <wgt id="865">4.68501e-12</wgt>
  <wgt id="866">5.16655e-12</wgt>
  <wgt id="867">3.04755e-12</wgt>
  <wgt id="868">3.03694e-12</wgt>
  <wgt id="869">1.91572e-12</wgt>
  <wgt id="870">2.1511e-12</wgt>
  <wgt id="871">2.10697e-12</wgt>
  <wgt id="872">4.03773e-12</wgt>
  <wgt id="873">2.39581e-12</wgt>
  <wgt id="874">3.25541e-12</wgt>
  <wgt id="875">2.40584e-12</wgt>
  <wgt id="876">3.92806e-12</wgt>
  <wgt id="877">3.42992e-12</wgt>
  <wgt id="878">2.38198e-12</wgt>
  <wgt id="879">4.31893e-12</wgt>
  <wgt id="880">4.36669e-12</wgt>
  <wgt id="881">4.65065e-12</wgt>
  <wgt id="882">4.22803e-12</wgt>
  <wgt id="883">4.31262e-12</wgt>
  <wgt id="884">4.28782e-12</wgt>
  <wgt id="885">4.50091e-12</wgt>
  <wgt id="886">4.10922e-12</wgt>
  <wgt id="887">4.52935e-12</wgt>
  <wgt id="888">4.22751e-12</wgt>
  <wgt id="889">4.26308e-12</wgt>
  <wgt id="890">4.50249e-12</wgt>
  <wgt id="891">4.20715e-12</wgt>
  <wgt id="892">4.56503e-12</wgt>
  <wgt id="893">4.46474e-12</wgt>
  <wgt id="894">4.47173e-12</wgt>
  <wgt id="895">4.23766e-12</wgt>
  <wgt id="896">5.45882e-12</wgt>
  <wgt id="897">4.68741e-12</wgt>
  <wgt id="898">4.11166e-12</wgt>
  <wgt id="899">4.13252e-12</wgt>
  <wgt id="900">4.01188e-12</wgt>
  <wgt id="901">3.71157e-12</wgt>
  <wgt id="902">3.7352e-12</wgt>
  <wgt id="903">3.78125e-12</wgt>
  <wgt id="904">4.32253e-12</wgt>
  <wgt id="905">4.20182e-12</wgt>
  <wgt id="906">5.19462e-12</wgt>
  <wgt id="907">4.83525e-12</wgt>
  <wgt id="908">4.74777e-12</wgt>
  <wgt id="909">4.04716e-12</wgt>
  <wgt id="910">4.08465e-12</wgt>
  <wgt id="911">4.19757e-12</wgt>
  <wgt id="912">4.20936e-12</wgt>
  <wgt id="913">3.79485e-12</wgt>
  <wgt id="914">4.42622e-12</wgt>
  <wgt id="915">4.11758e-12</wgt>
  <wgt id="916">4.66125e-12</wgt>
  <wgt id="917">4.02646e-12</wgt>
  <wgt id="918">4.18453e-12</wgt>
  <wgt id="919">4.16518e-12</wgt>
  <wgt id="920">3.89417e-12</wgt>
  <wgt id="921">4.3898e-12</wgt>
  <wgt id="922">3.91211e-12</wgt>
  <wgt id="923">4.2645e-12</wgt>
  <wgt id="924">3.76193e-12</wgt>
  <wgt id="925">3.57213e-12</wgt>
  <wgt id="926">4.75628e-12</wgt>
  <wgt id="927">4.62516e-12</wgt>
  <wgt id="928">4.53023e-12</wgt>
  <wgt id="929">4.31968e-12</wgt>
  <wgt id="930">4.28663e-12</wgt>
  <wgt id="931">4.19346e-12</wgt>
  <wgt id="932">4.07408e-12</wgt>
  <wgt id="933">4.74312e-12</wgt>
  <wgt id="934">4.24615e-12</wgt>
  <wgt id="935">4.92721e-12</wgt>
  <wgt id="936">4.12193e-12</wgt>
  <wgt id="937">4.4502e-12</wgt>
  <wgt id="938">4.34039e-12</wgt>
  <wgt id="939">4.09178e-12</wgt>
  <wgt id="940">4.22423e-12</wgt>
  <wgt id="941">4.10596e-12</wgt>
  <wgt id="942">4.58771e-12</wgt>
  <wgt id="943">4.98129e-12</wgt>
  <wgt id="944">4.19585e-12</wgt>
  <wgt id="945">4.2336e-12</wgt>
  <wgt id="946">3.98715e-12</wgt>
  <wgt id="947">4.23574e-12</wgt>
  <wgt id="948">4.63736e-12</wgt>
  <wgt id="949">4.75522e-12</wgt>
  <wgt id="950">3.69784e-12</wgt>
  <wgt id="951">4.21101e-12</wgt>
  <wgt id="952">4.50223e-12</wgt>
  <wgt id="953">4.59521e-12</wgt>
  <wgt id="954">4.37946e-12</wgt>
  <wgt id="955">3.91072e-12</wgt>
  <wgt id="956">3.95072e-12</wgt>
  <wgt id="957">4.50975e-12</wgt>
  <wgt id="958">4.26909e-12</wgt>
  <wgt id="959">4.24931e-12</wgt>
  <wgt id="960">3.83202e-12</wgt>
  <wgt id="961">4.25616e-12</wgt>
  <wgt id="962">4.67036e-12</wgt>
  <wgt id="963">4.23358e-12</wgt>
  <wgt id="964">4.68315e-12</wgt>
  <wgt id="965">4.70974e-12</wgt>
  <wgt id="966">4.34665e-12</wgt>
  <wgt id="967">4.56309e-12</wgt>
  <wgt id="968">4.36029e-12</wgt>
  <wgt id="969">4.34685e-12</wgt>
  <wgt id="970">4.41235e-12</wgt>
  <wgt id="971">3.98294e-12</wgt>
  <wgt id="972">4.57693e-12</wgt>
  <wgt id="973">4.14273e-12</wgt>
  <wgt id="974">5.23809e-12</wgt>
  <wgt id="975">4.16142e-12</wgt>
  <wgt id="976">4.30054e-12</wgt>
  <wgt id="977">3.54397e-12</wgt>
  <wgt id="978">4.53141e-12</wgt>
  <wgt id="979">4.83532e-12</wgt>
  <wgt id="980">4.29722e-12</wgt>
  <wgt id="981">4.38335e-12</wgt>
  <wgt id="982">4.18386e-12</wgt>
</rwgt>
</event>
<event>
 5   1  0.3028200E-11  0.2308084E+04  0.7818608E-02  0.7709342E-01
       21   -1    0    0  502  501  0.00000000000E+00  0.00000000000E+00  0.76645001402E+03  0.76645001402E+03  0.00000000000E+00 0. -1.
       21   -1    0    0  501  502 -0.00000000000E+00 -0.00000000000E+00 -0.17376385257E+04  0.17376385257E+04  0.00000000000E+00 0.  1.
       39    2    1    2    0    0  0.00000000000E+00  0.00000000000E+00 -0.97118851168E+03  0.25040885397E+04  0.23080841167E+04 0.  0.
       25    1    3    3    0    0  0.10872613563E+04  0.32853010808E+03 -0.66093163946E+03  0.13200473177E+04  0.12500000000E+03 0.  0.
       25    1    3    3    0    0 -0.10872613563E+04 -0.32853010808E+03 -0.31025687223E+03  0.11840412221E+04  0.12500000000E+03 0.  0.
<mgrwt>
<rscale>  0 0.23080841E+04</rscale>
<asrwt>0</asrwt>
<pdfrwt beam="1">  1       21 0.11791539E+00 0.23080841E+04</pdfrwt>
<pdfrwt beam="2">  1       21 0.26732900E+00 0.23080841E+04</pdfrwt>
<totfact> 0.10456541E+01</totfact>
</mgrwt>
<rwgt>
  <wgt id="1">3.0282e-12</wgt>
  <wgt id="2">2.62948e-12</wgt>
  <wgt id="3">3.52428e-12</wgt>
  <wgt id="4">3.0282e-12</wgt>
  <wgt id="5">2.62948e-12</wgt>
  <wgt id="6">3.52428e-12</wgt>
  <wgt id="7">3.0282e-12</wgt>
  <wgt id="8">2.62948e-12</wgt>
  <wgt id="9">3.52428e-12</wgt>
  <wgt id="10">3.15637e-12</wgt>
  <wgt id="11">3.15443e-12</wgt>
  <wgt id="12">3.15094e-12</wgt>
  <wgt id="13">3.14732e-12</wgt>
  <wgt id="14">3.16781e-12</wgt>
  <wgt id="15">3.16178e-12</wgt>
  <wgt id="16">3.15131e-12</wgt>
  <wgt id="17">3.16734e-12</wgt>
  <wgt id="18">3.1511e-12</wgt>
  <wgt id="19">3.16487e-12</wgt>
  <wgt id="20">3.15061e-12</wgt>
  <wgt id="21">3.13305e-12</wgt>
  <wgt id="22">3.13815e-12</wgt>
  <wgt id="23">3.11857e-12</wgt>
  <wgt id="24">3.13709e-12</wgt>
  <wgt id="25">3.14613e-12</wgt>
  <wgt id="26">3.16655e-12</wgt>
  <wgt id="27">3.15337e-12</wgt>
  <wgt id="28">3.13899e-12</wgt>
  <wgt id="29">3.15829e-12</wgt>
  <wgt id="30">3.13864e-12</wgt>
  <wgt id="31">3.16943e-12</wgt>
  <wgt id="32">3.14328e-12</wgt>
  <wgt id="33">3.16238e-12</wgt>
  <wgt id="34">3.14064e-12</wgt>
  <wgt id="35">3.14621e-12</wgt>
  <wgt id="36">3.16875e-12</wgt>
  <wgt id="37">3.14734e-12</wgt>
  <wgt id="38">3.1458e-12</wgt>
  <wgt id="39">3.20017e-12</wgt>
  <wgt id="40">3.1594e-12</wgt>
  <wgt id="41">3.15454e-12</wgt>
  <wgt id="42">3.16165e-12</wgt>
  <wgt id="43">3.15612e-12</wgt>
  <wgt id="44">3.15864e-12</wgt>
  <wgt id="45">3.16217e-12</wgt>
  <wgt id="46">3.15302e-12</wgt>
  <wgt id="47">3.16324e-12</wgt>
  <wgt id="48">3.16107e-12</wgt>
  <wgt id="49">3.14671e-12</wgt>
  <wgt id="50">3.15103e-12</wgt>
  <wgt id="51">3.15293e-12</wgt>
  <wgt id="52">3.16221e-12</wgt>
  <wgt id="53">3.1527e-12</wgt>
  <wgt id="54">3.15927e-12</wgt>
  <wgt id="55">3.15631e-12</wgt>
  <wgt id="56">3.16356e-12</wgt>
  <wgt id="57">3.15704e-12</wgt>
  <wgt id="58">3.146e-12</wgt>
  <wgt id="59">3.15179e-12</wgt>
  <wgt id="60">3.15244e-12</wgt>
  <wgt id="61">3.1376e-12</wgt>
  <wgt id="62">3.14591e-12</wgt>
  <wgt id="63">3.15228e-12</wgt>
  <wgt id="64">3.15634e-12</wgt>
  <wgt id="65">3.15741e-12</wgt>
  <wgt id="66">3.15364e-12</wgt>
  <wgt id="67">3.1419e-12</wgt>
  <wgt id="68">3.15551e-12</wgt>
  <wgt id="69">3.15562e-12</wgt>
  <wgt id="70">3.15582e-12</wgt>
  <wgt id="71">3.1536e-12</wgt>
  <wgt id="72">3.14417e-12</wgt>
  <wgt id="73">3.16387e-12</wgt>
  <wgt id="74">3.15958e-12</wgt>
  <wgt id="75">3.15482e-12</wgt>
  <wgt id="76">3.16779e-12</wgt>
  <wgt id="77">3.15373e-12</wgt>
  <wgt id="78">3.15432e-12</wgt>
  <wgt id="79">3.16514e-12</wgt>
  <wgt id="80">3.14004e-12</wgt>
  <wgt id="81">3.15583e-12</wgt>
  <wgt id="82">3.1572e-12</wgt>
  <wgt id="83">3.14286e-12</wgt>
  <wgt id="84">3.15204e-12</wgt>
  <wgt id="85">3.14771e-12</wgt>
  <wgt id="86">3.16638e-12</wgt>
  <wgt id="87">3.13638e-12</wgt>
  <wgt id="88">3.16044e-12</wgt>
  <wgt id="89">3.15888e-12</wgt>
  <wgt id="90">3.16552e-12</wgt>
  <wgt id="91">3.15994e-12</wgt>
  <wgt id="92">3.16311e-12</wgt>
  <wgt id="93">3.16003e-12</wgt>
  <wgt id="94">3.15249e-12</wgt>
  <wgt id="95">3.16499e-12</wgt>
  <wgt id="96">3.16028e-12</wgt>
  <wgt id="97">3.14801e-12</wgt>
  <wgt id="98">3.15731e-12</wgt>
  <wgt id="99">3.14888e-12</wgt>
  <wgt id="100">3.16251e-12</wgt>
  <wgt id="101">3.15734e-12</wgt>
  <wgt id="102">3.15441e-12</wgt>
  <wgt id="103">3.16292e-12</wgt>
  <wgt id="104">3.15349e-12</wgt>
  <wgt id="105">3.16164e-12</wgt>
  <wgt id="106">3.15044e-12</wgt>
  <wgt id="107">3.1688e-12</wgt>
  <wgt id="108">3.15169e-12</wgt>
  <wgt id="109">3.15883e-12</wgt>
  <wgt id="110">3.15564e-12</wgt>
  <wgt id="111">3.17765e-12</wgt>
  <wgt id="112">3.17416e-12</wgt>
  <wgt id="113">4.35973e-12</wgt>
  <wgt id="114">4.3244e-12</wgt>
  <wgt id="115">4.25391e-12</wgt>
  <wgt id="116">5.90806e-12</wgt>
  <wgt id="117">3.5059e-12</wgt>
  <wgt id="118">3.51836e-12</wgt>
  <wgt id="119">3.49878e-12</wgt>
  <wgt id="120">3.50616e-12</wgt>
  <wgt id="121">3.50572e-12</wgt>
  <wgt id="122">3.49996e-12</wgt>
  <wgt id="123">3.51409e-12</wgt>
  <wgt id="124">3.50101e-12</wgt>
  <wgt id="125">3.509e-12</wgt>
  <wgt id="126">3.51169e-12</wgt>
  <wgt id="127">3.50202e-12</wgt>
  <wgt id="128">3.51673e-12</wgt>
  <wgt id="129">3.4951e-12</wgt>
  <wgt id="130">3.52501e-12</wgt>
  <wgt id="131">3.48619e-12</wgt>
  <wgt id="132">3.41263e-12</wgt>
  <wgt id="133">3.61651e-12</wgt>
  <wgt id="134">3.46821e-12</wgt>
  <wgt id="135">3.53539e-12</wgt>
  <wgt id="136">3.55408e-12</wgt>
  <wgt id="137">3.4478e-12</wgt>
  <wgt id="138">3.65039e-12</wgt>
  <wgt id="139">3.36728e-12</wgt>
  <wgt id="140">3.48515e-12</wgt>
  <wgt id="141">3.522e-12</wgt>
  <wgt id="142">3.5058e-12</wgt>
  <wgt id="143">3.51332e-12</wgt>
  <wgt id="144">3.38972e-12</wgt>
  <wgt id="145">3.61581e-12</wgt>
  <wgt id="146">3.54274e-12</wgt>
  <wgt id="147">3.4763e-12</wgt>
  <wgt id="148">3.51761e-12</wgt>
  <wgt id="149">3.50509e-12</wgt>
  <wgt id="150">3.53588e-12</wgt>
  <wgt id="151">3.49184e-12</wgt>
  <wgt id="152">3.50727e-12</wgt>
  <wgt id="153">3.50542e-12</wgt>
  <wgt id="154">3.52639e-12</wgt>
  <wgt id="155">3.47879e-12</wgt>
  <wgt id="156">3.59358e-12</wgt>
  <wgt id="157">3.41953e-12</wgt>
  <wgt id="158">4.21307e-12</wgt>
  <wgt id="159">4.23066e-12</wgt>
  <wgt id="160">4.19867e-12</wgt>
  <wgt id="161">4.20239e-12</wgt>
  <wgt id="162">4.22473e-12</wgt>
  <wgt id="163">4.20831e-12</wgt>
  <wgt id="164">4.21977e-12</wgt>
  <wgt id="165">4.21457e-12</wgt>
  <wgt id="166">4.21171e-12</wgt>
  <wgt id="167">4.20998e-12</wgt>
  <wgt id="168">4.21718e-12</wgt>
  <wgt id="169">4.19522e-12</wgt>
  <wgt id="170">4.22401e-12</wgt>
  <wgt id="171">4.20883e-12</wgt>
  <wgt id="172">4.21862e-12</wgt>
  <wgt id="173">4.2097e-12</wgt>
  <wgt id="174">4.21402e-12</wgt>
  <wgt id="175">4.09322e-12</wgt>
  <wgt id="176">4.36925e-12</wgt>
  <wgt id="177">4.23443e-12</wgt>
  <wgt id="178">4.19333e-12</wgt>
  <wgt id="179">4.40334e-12</wgt>
  <wgt id="180">3.91523e-12</wgt>
  <wgt id="181">4.08376e-12</wgt>
  <wgt id="182">4.29865e-12</wgt>
  <wgt id="183">4.1343e-12</wgt>
  <wgt id="184">4.25195e-12</wgt>
  <wgt id="185">4.17373e-12</wgt>
  <wgt id="186">4.26035e-12</wgt>
  <wgt id="187">4.1714e-12</wgt>
  <wgt id="188">4.28712e-12</wgt>
  <wgt id="189">4.18353e-12</wgt>
  <wgt id="190">4.22493e-12</wgt>
  <wgt id="191">4.22583e-12</wgt>
  <wgt id="192">4.20528e-12</wgt>
  <wgt id="193">4.2768e-12</wgt>
  <wgt id="194">4.18116e-12</wgt>
  <wgt id="195">4.09162e-12</wgt>
  <wgt id="196">4.42067e-12</wgt>
  <wgt id="197">4.23468e-12</wgt>
  <wgt id="198">4.20774e-12</wgt>
  <wgt id="199">4.21307e-12</wgt>
  <wgt id="200">4.25091e-12</wgt>
  <wgt id="201">4.23739e-12</wgt>
  <wgt id="202">4.22452e-12</wgt>
  <wgt id="203">4.20518e-12</wgt>
  <wgt id="204">4.19583e-12</wgt>
  <wgt id="205">4.18806e-12</wgt>
  <wgt id="206">4.10152e-12</wgt>
  <wgt id="207">4.12579e-12</wgt>
  <wgt id="208">4.07761e-12</wgt>
  <wgt id="209">4.11394e-12</wgt>
  <wgt id="210">4.09253e-12</wgt>
  <wgt id="211">4.10015e-12</wgt>
  <wgt id="212">4.10265e-12</wgt>
  <wgt id="213">4.10117e-12</wgt>
  <wgt id="214">4.10209e-12</wgt>
  <wgt id="215">4.10455e-12</wgt>
  <wgt id="216">4.0994e-12</wgt>
  <wgt id="217">4.11233e-12</wgt>
  <wgt id="218">4.09324e-12</wgt>
  <wgt id="219">4.09686e-12</wgt>
  <wgt id="220">4.10439e-12</wgt>
  <wgt id="221">4.10109e-12</wgt>
  <wgt id="222">4.10205e-12</wgt>
  <wgt id="223">3.87957e-12</wgt>
  <wgt id="224">4.30434e-12</wgt>
  <wgt id="225">4.05187e-12</wgt>
  <wgt id="226">4.16434e-12</wgt>
  <wgt id="227">4.06265e-12</wgt>
  <wgt id="228">4.11862e-12</wgt>
  <wgt id="229">4.04422e-12</wgt>
  <wgt id="230">4.13e-12</wgt>
  <wgt id="231">4.22656e-12</wgt>
  <wgt id="232">3.99891e-12</wgt>
  <wgt id="233">4.0787e-12</wgt>
  <wgt id="234">4.13864e-12</wgt>
  <wgt id="235">3.9862e-12</wgt>
  <wgt id="236">4.20132e-12</wgt>
  <wgt id="237">4.02939e-12</wgt>
  <wgt id="238">4.12582e-12</wgt>
  <wgt id="239">4.07137e-12</wgt>
  <wgt id="240">4.15587e-12</wgt>
  <wgt id="241">4.05694e-12</wgt>
  <wgt id="242">4.15491e-12</wgt>
  <wgt id="243">4.15909e-12</wgt>
  <wgt id="244">4.11482e-12</wgt>
  <wgt id="245">4.09909e-12</wgt>
  <wgt id="246">4.12883e-12</wgt>
  <wgt id="247">4.10152e-12</wgt>
  <wgt id="248">4.1403e-12</wgt>
  <wgt id="249">4.12626e-12</wgt>
  <wgt id="250">4.11243e-12</wgt>
  <wgt id="251">4.09256e-12</wgt>
  <wgt id="252">4.08293e-12</wgt>
  <wgt id="253">4.07606e-12</wgt>
  <wgt id="254">3.99162e-12</wgt>
  <wgt id="255">3.99535e-12</wgt>
  <wgt id="256">3.98758e-12</wgt>
  <wgt id="257">3.99469e-12</wgt>
  <wgt id="258">3.98937e-12</wgt>
  <wgt id="259">4.01825e-12</wgt>
  <wgt id="260">3.96586e-12</wgt>
  <wgt id="261">3.99747e-12</wgt>
  <wgt id="262">3.9847e-12</wgt>
  <wgt id="263">3.98942e-12</wgt>
  <wgt id="264">3.99422e-12</wgt>
  <wgt id="265">3.98691e-12</wgt>
  <wgt id="266">4.00101e-12</wgt>
  <wgt id="267">3.99296e-12</wgt>
  <wgt id="268">3.98978e-12</wgt>
  <wgt id="269">4.00415e-12</wgt>
  <wgt id="270">3.9831e-12</wgt>
  <wgt id="271">3.98323e-12</wgt>
  <wgt id="272">4.00094e-12</wgt>
  <wgt id="273">3.98006e-12</wgt>
  <wgt id="274">4.00042e-12</wgt>
  <wgt id="275">3.97221e-12</wgt>
  <wgt id="276">4.01172e-12</wgt>
  <wgt id="277">3.96858e-12</wgt>
  <wgt id="278">4.01277e-12</wgt>
  <wgt id="279">3.91655e-12</wgt>
  <wgt id="280">4.08596e-12</wgt>
  <wgt id="281">3.97389e-12</wgt>
  <wgt id="282">3.99387e-12</wgt>
  <wgt id="283">3.87227e-12</wgt>
  <wgt id="284">4.13929e-12</wgt>
  <wgt id="285">3.79375e-12</wgt>
  <wgt id="286">4.15659e-12</wgt>
  <wgt id="287">4.00471e-12</wgt>
  <wgt id="288">3.97484e-12</wgt>
  <wgt id="289">4.02102e-12</wgt>
  <wgt id="290">3.92458e-12</wgt>
  <wgt id="291">3.97891e-12</wgt>
  <wgt id="292">3.99349e-12</wgt>
  <wgt id="293">3.95952e-12</wgt>
  <wgt id="294">4.02355e-12</wgt>
  <wgt id="295">3.91323e-12</wgt>
  <wgt id="296">4.08744e-12</wgt>
  <wgt id="297">3.98802e-12</wgt>
  <wgt id="298">4.00838e-12</wgt>
  <wgt id="299">3.97866e-12</wgt>
  <wgt id="300">4.02606e-12</wgt>
  <wgt id="301">3.92801e-12</wgt>
  <wgt id="302">4.14636e-12</wgt>
  <wgt id="303">3.95673e-12</wgt>
  <wgt id="304">4.01147e-12</wgt>
  <wgt id="305">3.9864e-12</wgt>
  <wgt id="306">3.99025e-12</wgt>
  <wgt id="307">3.98217e-12</wgt>
  <wgt id="308">3.9898e-12</wgt>
  <wgt id="309">3.98412e-12</wgt>
  <wgt id="310">4.01387e-12</wgt>
  <wgt id="311">3.96091e-12</wgt>
  <wgt id="312">3.99122e-12</wgt>
  <wgt id="313">3.98124e-12</wgt>
  <wgt id="314">3.98412e-12</wgt>
  <wgt id="315">3.9885e-12</wgt>
  <wgt id="316">3.98178e-12</wgt>
  <wgt id="317">3.99634e-12</wgt>
  <wgt id="318">3.98926e-12</wgt>
  <wgt id="319">3.9813e-12</wgt>
  <wgt id="320">3.99963e-12</wgt>
  <wgt id="321">3.97896e-12</wgt>
  <wgt id="322">3.9763e-12</wgt>
  <wgt id="323">3.99801e-12</wgt>
  <wgt id="324">3.9771e-12</wgt>
  <wgt id="325">3.99443e-12</wgt>
  <wgt id="326">3.97065e-12</wgt>
  <wgt id="327">4.00651e-12</wgt>
  <wgt id="328">3.96557e-12</wgt>
  <wgt id="329">3.99807e-12</wgt>
  <wgt id="330">4.10163e-12</wgt>
  <wgt id="331">3.87649e-12</wgt>
  <wgt id="332">3.97161e-12</wgt>
  <wgt id="333">3.9875e-12</wgt>
  <wgt id="334">3.89373e-12</wgt>
  <wgt id="335">4.10181e-12</wgt>
  <wgt id="336">3.8439e-12</wgt>
  <wgt id="337">4.16086e-12</wgt>
  <wgt id="338">4.03224e-12</wgt>
  <wgt id="339">3.94391e-12</wgt>
  <wgt id="340">4.0137e-12</wgt>
  <wgt id="341">3.91725e-12</wgt>
  <wgt id="342">3.97729e-12</wgt>
  <wgt id="343">3.98141e-12</wgt>
  <wgt id="344">3.95759e-12</wgt>
  <wgt id="345">4.01979e-12</wgt>
  <wgt id="346">3.90536e-12</wgt>
  <wgt id="347">4.0795e-12</wgt>
  <wgt id="348">3.98411e-12</wgt>
  <wgt id="349">4.00066e-12</wgt>
  <wgt id="350">3.97012e-12</wgt>
  <wgt id="351">4.02761e-12</wgt>
  <wgt id="352">3.9187e-12</wgt>
  <wgt id="353">4.14363e-12</wgt>
  <wgt id="354">3.93467e-12</wgt>
  <wgt id="355">4.01763e-12</wgt>
  <wgt id="356">3.99162e-12</wgt>
  <wgt id="357">3.99783e-12</wgt>
  <wgt id="358">3.9864e-12</wgt>
  <wgt id="359">4.00033e-12</wgt>
  <wgt id="360">4.03376e-12</wgt>
  <wgt id="361">4.00723e-12</wgt>
  <wgt id="362">4.08004e-12</wgt>
  <wgt id="363">4.07017e-12</wgt>
  <wgt id="364">4.05402e-12</wgt>
  <wgt id="365">4.03988e-12</wgt>
  <wgt id="366">4.02456e-12</wgt>
  <wgt id="367">3.99393e-12</wgt>
  <wgt id="368">3.97604e-12</wgt>
  <wgt id="369">3.95679e-12</wgt>
  <wgt id="370">4.00723e-12</wgt>
  <wgt id="371">4.02461e-12</wgt>
  <wgt id="372">4.015e-12</wgt>
  <wgt id="373">4.00093e-12</wgt>
  <wgt id="374">4.00199e-12</wgt>
  <wgt id="375">4.38281e-12</wgt>
  <wgt id="376">4.38326e-12</wgt>
  <wgt id="377">4.38224e-12</wgt>
  <wgt id="378">4.39892e-12</wgt>
  <wgt id="379">4.36685e-12</wgt>
  <wgt id="380">4.39493e-12</wgt>
  <wgt id="381">4.37802e-12</wgt>
  <wgt id="382">4.40455e-12</wgt>
  <wgt id="383">4.36132e-12</wgt>
  <wgt id="384">4.38563e-12</wgt>
  <wgt id="385">4.38001e-12</wgt>
  <wgt id="386">4.39907e-12</wgt>
  <wgt id="387">4.37586e-12</wgt>
  <wgt id="388">4.37882e-12</wgt>
  <wgt id="389">4.38774e-12</wgt>
  <wgt id="390">4.39396e-12</wgt>
  <wgt id="391">4.37099e-12</wgt>
  <wgt id="392">4.34733e-12</wgt>
  <wgt id="393">4.40303e-12</wgt>
  <wgt id="394">4.38774e-12</wgt>
  <wgt id="395">4.37601e-12</wgt>
  <wgt id="396">4.38756e-12</wgt>
  <wgt id="397">4.37944e-12</wgt>
  <wgt id="398">4.36873e-12</wgt>
  <wgt id="399">4.39645e-12</wgt>
  <wgt id="400">4.37594e-12</wgt>
  <wgt id="401">4.3983e-12</wgt>
  <wgt id="402">4.34586e-12</wgt>
  <wgt id="403">4.40171e-12</wgt>
  <wgt id="404">4.49263e-12</wgt>
  <wgt id="405">4.11942e-12</wgt>
  <wgt id="406">4.30382e-12</wgt>
  <wgt id="407">4.55609e-12</wgt>
  <wgt id="408">4.42374e-12</wgt>
  <wgt id="409">4.30576e-12</wgt>
  <wgt id="410">4.25379e-12</wgt>
  <wgt id="411">4.4436e-12</wgt>
  <wgt id="412">4.37411e-12</wgt>
  <wgt id="413">4.39577e-12</wgt>
  <wgt id="414">4.33122e-12</wgt>
  <wgt id="415">4.42289e-12</wgt>
  <wgt id="416">4.51004e-12</wgt>
  <wgt id="417">4.20725e-12</wgt>
  <wgt id="418">4.38978e-12</wgt>
  <wgt id="419">4.34511e-12</wgt>
  <wgt id="420">4.46209e-12</wgt>
  <wgt id="421">4.33381e-12</wgt>
  <wgt id="422">4.36917e-12</wgt>
  <wgt id="423">4.38984e-12</wgt>
  <wgt id="424">4.48555e-12</wgt>
  <wgt id="425">4.31571e-12</wgt>
  <wgt id="426">4.38281e-12</wgt>
  <wgt id="427">4.32661e-12</wgt>
  <wgt id="428">4.52704e-12</wgt>
  <wgt id="429">4.42933e-12</wgt>
  <wgt id="430">4.55987e-12</wgt>
  <wgt id="431">4.5338e-12</wgt>
  <wgt id="432">4.50933e-12</wgt>
  <wgt id="433">4.48554e-12</wgt>
  <wgt id="434">4.45604e-12</wgt>
  <wgt id="435">4.39598e-12</wgt>
  <wgt id="436">4.36533e-12</wgt>
  <wgt id="437">4.33588e-12</wgt>
  <wgt id="438">4.42933e-12</wgt>
  <wgt id="439">4.44348e-12</wgt>
  <wgt id="440">4.43493e-12</wgt>
  <wgt id="441">4.42517e-12</wgt>
  <wgt id="442">4.42177e-12</wgt>
  <wgt id="443">4.17956e-12</wgt>
  <wgt id="444">4.21114e-12</wgt>
  <wgt id="445">4.18799e-12</wgt>
  <wgt id="446">4.15035e-12</wgt>
  <wgt id="447">4.17368e-12</wgt>
  <wgt id="448">4.07274e-12</wgt>
  <wgt id="449">4.25176e-12</wgt>
  <wgt id="450">4.19485e-12</wgt>
  <wgt id="451">4.17041e-12</wgt>
  <wgt id="452">4.27279e-12</wgt>
  <wgt id="453">4.22127e-12</wgt>
  <wgt id="454">3.99297e-12</wgt>
  <wgt id="455">4.19707e-12</wgt>
  <wgt id="456">4.19411e-12</wgt>
  <wgt id="457">4.19477e-12</wgt>
  <wgt id="458">4.2394e-12</wgt>
  <wgt id="459">4.21323e-12</wgt>
  <wgt id="460">4.22822e-12</wgt>
  <wgt id="461">4.09238e-12</wgt>
  <wgt id="462">4.14845e-12</wgt>
  <wgt id="463">4.12405e-12</wgt>
  <wgt id="464">4.15809e-12</wgt>
  <wgt id="465">4.22442e-12</wgt>
  <wgt id="466">4.11271e-12</wgt>
  <wgt id="467">4.14173e-12</wgt>
  <wgt id="468">4.17067e-12</wgt>
  <wgt id="469">4.16973e-12</wgt>
  <wgt id="470">4.13056e-12</wgt>
  <wgt id="471">4.13715e-12</wgt>
  <wgt id="472">4.20162e-12</wgt>
  <wgt id="473">4.047e-12</wgt>
  <wgt id="474">3.0282e-12</wgt>
  <wgt id="475">3.09862e-12</wgt>
  <wgt id="476">2.98595e-12</wgt>
  <wgt id="477">2.98952e-12</wgt>
  <wgt id="478">3.05379e-12</wgt>
  <wgt id="479">2.94422e-12</wgt>
  <wgt id="480">3.15874e-12</wgt>
  <wgt id="481">3.0181e-12</wgt>
  <wgt id="482">2.98294e-12</wgt>
  <wgt id="483">2.96807e-12</wgt>
  <wgt id="484">3.14404e-12</wgt>
  <wgt id="485">2.91898e-12</wgt>
  <wgt id="486">3.16191e-12</wgt>
  <wgt id="487">3.02131e-12</wgt>
  <wgt id="488">3.08201e-12</wgt>
  <wgt id="489">2.84068e-12</wgt>
  <wgt id="490">2.9151e-12</wgt>
  <wgt id="491">3.00679e-12</wgt>
  <wgt id="492">2.97036e-12</wgt>
  <wgt id="493">2.87966e-12</wgt>
  <wgt id="494">2.9042e-12</wgt>
  <wgt id="495">3.04241e-12</wgt>
  <wgt id="496">2.92053e-12</wgt>
  <wgt id="497">2.88333e-12</wgt>
  <wgt id="498">3.10986e-12</wgt>
  <wgt id="499">3.00267e-12</wgt>
  <wgt id="500">2.96158e-12</wgt>
  <wgt id="501">3.15199e-12</wgt>
  <wgt id="502">3.03384e-12</wgt>
  <wgt id="503">3.01794e-12</wgt>
  <wgt id="504">3.09782e-12</wgt>
  <wgt id="505">3.04224e-12</wgt>
  <wgt id="506">2.96532e-12</wgt>
  <wgt id="507">3.0256e-12</wgt>
  <wgt id="508">3.14017e-12</wgt>
  <wgt id="509">2.85472e-12</wgt>
  <wgt id="510">3.0925e-12</wgt>
  <wgt id="511">2.92188e-12</wgt>
  <wgt id="512">3.14324e-12</wgt>
  <wgt id="513">3.14042e-12</wgt>
  <wgt id="514">3.08844e-12</wgt>
  <wgt id="515">3.03321e-12</wgt>
  <wgt id="516">3.22093e-12</wgt>
  <wgt id="517">3.09959e-12</wgt>
  <wgt id="518">3.11515e-12</wgt>
  <wgt id="519">2.93013e-12</wgt>
  <wgt id="520">3.08993e-12</wgt>
  <wgt id="521">3.07051e-12</wgt>
  <wgt id="522">3.16071e-12</wgt>
  <wgt id="523">2.97734e-12</wgt>
  <wgt id="524">3.02431e-12</wgt>
  <wgt id="525">3.08337e-12</wgt>
  <wgt id="526">3.09606e-12</wgt>
  <wgt id="527">3.03624e-12</wgt>
  <wgt id="528">3.04496e-12</wgt>
  <wgt id="529">2.96835e-12</wgt>
  <wgt id="530">3.12142e-12</wgt>
  <wgt id="531">2.95875e-12</wgt>
  <wgt id="532">3.23762e-12</wgt>
  <wgt id="533">2.92148e-12</wgt>
  <wgt id="534">2.9941e-12</wgt>
  <wgt id="535">3.02855e-12</wgt>
  <wgt id="536">3.04384e-12</wgt>
  <wgt id="537">2.98441e-12</wgt>
  <wgt id="538">3.0441e-12</wgt>
  <wgt id="539">2.9699e-12</wgt>
  <wgt id="540">3.07087e-12</wgt>
  <wgt id="541">2.96469e-12</wgt>
  <wgt id="542">2.99272e-12</wgt>
  <wgt id="543">2.99428e-12</wgt>
  <wgt id="544">3.13133e-12</wgt>
  <wgt id="545">2.94261e-12</wgt>
  <wgt id="546">2.90065e-12</wgt>
  <wgt id="547">2.94984e-12</wgt>
  <wgt id="548">2.90722e-12</wgt>
  <wgt id="549">2.976e-12</wgt>
  <wgt id="550">2.96938e-12</wgt>
  <wgt id="551">3.06651e-12</wgt>
  <wgt id="552">2.88815e-12</wgt>
  <wgt id="553">2.95949e-12</wgt>
  <wgt id="554">3.22695e-12</wgt>
  <wgt id="555">3.10995e-12</wgt>
  <wgt id="556">2.9151e-12</wgt>
  <wgt id="557">3.10739e-12</wgt>
  <wgt id="558">2.96669e-12</wgt>
  <wgt id="559">2.97512e-12</wgt>
  <wgt id="560">3.33279e-12</wgt>
  <wgt id="561">3.0196e-12</wgt>
  <wgt id="562">3.12195e-12</wgt>
  <wgt id="563">3.12476e-12</wgt>
  <wgt id="564">3.12771e-12</wgt>
  <wgt id="565">2.99241e-12</wgt>
  <wgt id="566">3.04087e-12</wgt>
  <wgt id="567">3.00807e-12</wgt>
  <wgt id="568">2.99138e-12</wgt>
  <wgt id="569">3.06756e-12</wgt>
  <wgt id="570">2.90471e-12</wgt>
  <wgt id="571">3.35138e-12</wgt>
  <wgt id="572">2.9656e-12</wgt>
  <wgt id="573">2.92816e-12</wgt>
  <wgt id="574">2.94068e-12</wgt>
  <wgt id="575">3.3423e-12</wgt>
  <wgt id="576">3.45379e-12</wgt>
  <wgt id="577">3.45554e-12</wgt>
  <wgt id="578">3.43895e-12</wgt>
  <wgt id="579">3.44565e-12</wgt>
  <wgt id="580">3.48867e-12</wgt>
  <wgt id="581">3.62704e-12</wgt>
  <wgt id="582">3.43487e-12</wgt>
  <wgt id="583">3.37734e-12</wgt>
  <wgt id="584">3.32368e-12</wgt>
  <wgt id="585">3.23043e-12</wgt>
  <wgt id="586">3.21119e-12</wgt>
  <wgt id="587">3.39759e-12</wgt>
  <wgt id="588">3.42813e-12</wgt>
  <wgt id="589">3.50445e-12</wgt>
  <wgt id="590">3.34033e-12</wgt>
  <wgt id="591">3.45576e-12</wgt>
  <wgt id="592">3.13456e-12</wgt>
  <wgt id="593">3.29358e-12</wgt>
  <wgt id="594">3.37782e-12</wgt>
  <wgt id="595">3.39703e-12</wgt>
  <wgt id="596">3.58898e-12</wgt>
  <wgt id="597">3.31597e-12</wgt>
  <wgt id="598">3.243e-12</wgt>
  <wgt id="599">3.49718e-12</wgt>
  <wgt id="600">3.39606e-12</wgt>
  <wgt id="601">3.23272e-12</wgt>
  <wgt id="602">3.24421e-12</wgt>
  <wgt id="603">3.22046e-12</wgt>
  <wgt id="604">3.40237e-12</wgt>
  <wgt id="605">3.44174e-12</wgt>
  <wgt id="606">3.35548e-12</wgt>
  <wgt id="607">3.38055e-12</wgt>
  <wgt id="608">3.42523e-12</wgt>
  <wgt id="609">3.23289e-12</wgt>
  <wgt id="610">3.22187e-12</wgt>
  <wgt id="611">3.29487e-12</wgt>
  <wgt id="612">3.54153e-12</wgt>
  <wgt id="613">3.27276e-12</wgt>
  <wgt id="614">3.34225e-12</wgt>
  <wgt id="615">3.32549e-12</wgt>
  <wgt id="616">3.40271e-12</wgt>
  <wgt id="617">3.44556e-12</wgt>
  <wgt id="618">3.59012e-12</wgt>
  <wgt id="619">3.29153e-12</wgt>
  <wgt id="620">3.46403e-12</wgt>
  <wgt id="621">3.33487e-12</wgt>
  <wgt id="622">3.39759e-12</wgt>
  <wgt id="623">3.40791e-12</wgt>
  <wgt id="624">3.35424e-12</wgt>
  <wgt id="625">3.25078e-12</wgt>
  <wgt id="626">3.15511e-12</wgt>
  <wgt id="627">3.14167e-12</wgt>
  <wgt id="628">3.39436e-12</wgt>
  <wgt id="629">3.31448e-12</wgt>
  <wgt id="630">3.24149e-12</wgt>
  <wgt id="631">3.38191e-12</wgt>
  <wgt id="632">3.14049e-12</wgt>
  <wgt id="633">3.32387e-12</wgt>
  <wgt id="634">3.26696e-12</wgt>
  <wgt id="635">3.1581e-12</wgt>
  <wgt id="636">3.38607e-12</wgt>
  <wgt id="637">3.34641e-12</wgt>
  <wgt id="638">3.21841e-12</wgt>
  <wgt id="639">3.26506e-12</wgt>
  <wgt id="640">3.31944e-12</wgt>
  <wgt id="641">3.43479e-12</wgt>
  <wgt id="642">3.21051e-12</wgt>
  <wgt id="643">3.3003e-12</wgt>
  <wgt id="644">3.06534e-12</wgt>
  <wgt id="645">3.35438e-12</wgt>
  <wgt id="646">3.25106e-12</wgt>
  <wgt id="647">3.32534e-12</wgt>
  <wgt id="648">3.42207e-12</wgt>
  <wgt id="649">3.36773e-12</wgt>
  <wgt id="650">3.22821e-12</wgt>
  <wgt id="651">3.4801e-12</wgt>
  <wgt id="652">3.2694e-12</wgt>
  <wgt id="653">3.23413e-12</wgt>
  <wgt id="654">3.30472e-12</wgt>
  <wgt id="655">3.27349e-12</wgt>
  <wgt id="656">3.3434e-12</wgt>
  <wgt id="657">3.57715e-12</wgt>
  <wgt id="658">3.36327e-12</wgt>
  <wgt id="659">3.20468e-12</wgt>
  <wgt id="660">3.34099e-12</wgt>
  <wgt id="661">3.28408e-12</wgt>
  <wgt id="662">3.30979e-12</wgt>
  <wgt id="663">3.37057e-12</wgt>
  <wgt id="664">3.33096e-12</wgt>
  <wgt id="665">3.33333e-12</wgt>
  <wgt id="666">3.2943e-12</wgt>
  <wgt id="667">3.48402e-12</wgt>
  <wgt id="668">3.33122e-12</wgt>
  <wgt id="669">3.39393e-12</wgt>
  <wgt id="670">3.45798e-12</wgt>
  <wgt id="671">3.3417e-12</wgt>
  <wgt id="672">3.21102e-12</wgt>
  <wgt id="673">3.43557e-12</wgt>
  <wgt id="674">3.25916e-12</wgt>
  <wgt id="675">3.28041e-12</wgt>
  <wgt id="676">4.27035e-12</wgt>
  <wgt id="677">4.32117e-12</wgt>
  <wgt id="678">4.55403e-12</wgt>
  <wgt id="679">4.12431e-12</wgt>
  <wgt id="680">4.24105e-12</wgt>
  <wgt id="681">4.27512e-12</wgt>
  <wgt id="682">4.42987e-12</wgt>
  <wgt id="683">4.11772e-12</wgt>
  <wgt id="684">4.46096e-12</wgt>
  <wgt id="685">4.15943e-12</wgt>
  <wgt id="686">4.17236e-12</wgt>
  <wgt id="687">4.44429e-12</wgt>
  <wgt id="688">4.18007e-12</wgt>
  <wgt id="689">4.50481e-12</wgt>
  <wgt id="690">4.42313e-12</wgt>
  <wgt id="691">4.4424e-12</wgt>
  <wgt id="692">4.20741e-12</wgt>
  <wgt id="693">5.24648e-12</wgt>
  <wgt id="694">4.59618e-12</wgt>
  <wgt id="695">4.09907e-12</wgt>
  <wgt id="696">4.10612e-12</wgt>
  <wgt id="697">4.02585e-12</wgt>
  <wgt id="698">3.75428e-12</wgt>
  <wgt id="699">3.75263e-12</wgt>
  <wgt id="700">3.75234e-12</wgt>
  <wgt id="701">4.2725e-12</wgt>
  <wgt id="702">4.18036e-12</wgt>
  <wgt id="703">5.03215e-12</wgt>
  <wgt id="704">4.74259e-12</wgt>
  <wgt id="705">4.63972e-12</wgt>
  <wgt id="706">4.0275e-12</wgt>
  <wgt id="707">4.06312e-12</wgt>
  <wgt id="708">4.17097e-12</wgt>
  <wgt id="709">4.17088e-12</wgt>
  <wgt id="710">3.83417e-12</wgt>
  <wgt id="711">4.31187e-12</wgt>
  <wgt id="712">4.10382e-12</wgt>
  <wgt id="713">4.59976e-12</wgt>
  <wgt id="714">4.04678e-12</wgt>
  <wgt id="715">4.16896e-12</wgt>
  <wgt id="716">4.12157e-12</wgt>
  <wgt id="717">3.92216e-12</wgt>
  <wgt id="718">4.3275e-12</wgt>
  <wgt id="719">3.87654e-12</wgt>
  <wgt id="720">4.16661e-12</wgt>
  <wgt id="721">3.78005e-12</wgt>
  <wgt id="722">3.63028e-12</wgt>
  <wgt id="723">4.64156e-12</wgt>
  <wgt id="724">4.53506e-12</wgt>
  <wgt id="725">4.47517e-12</wgt>
  <wgt id="726">4.27659e-12</wgt>
  <wgt id="727">4.21953e-12</wgt>
  <wgt id="728">4.14543e-12</wgt>
  <wgt id="729">4.08306e-12</wgt>
  <wgt id="730">4.63458e-12</wgt>
  <wgt id="731">4.1965e-12</wgt>
  <wgt id="732">4.80375e-12</wgt>
  <wgt id="733">4.1215e-12</wgt>
  <wgt id="734">4.38325e-12</wgt>
  <wgt id="735">4.3054e-12</wgt>
  <wgt id="736">4.09023e-12</wgt>
  <wgt id="737">4.24062e-12</wgt>
  <wgt id="738">4.07569e-12</wgt>
  <wgt id="739">4.48636e-12</wgt>
  <wgt id="740">4.84741e-12</wgt>
  <wgt id="741">4.03178e-12</wgt>
  <wgt id="742">4.21033e-12</wgt>
  <wgt id="743">3.98934e-12</wgt>
  <wgt id="744">4.18519e-12</wgt>
  <wgt id="745">4.52824e-12</wgt>
  <wgt id="746">4.63197e-12</wgt>
  <wgt id="747">3.7248e-12</wgt>
  <wgt id="748">4.18904e-12</wgt>
  <wgt id="749">4.44847e-12</wgt>
  <wgt id="750">4.51622e-12</wgt>
  <wgt id="751">4.3382e-12</wgt>
  <wgt id="752">3.89235e-12</wgt>
  <wgt id="753">3.95326e-12</wgt>
  <wgt id="754">4.44705e-12</wgt>
  <wgt id="755">4.23949e-12</wgt>
  <wgt id="756">4.22297e-12</wgt>
  <wgt id="757">3.84427e-12</wgt>
  <wgt id="758">4.22748e-12</wgt>
  <wgt id="759">4.58446e-12</wgt>
  <wgt id="760">4.22362e-12</wgt>
  <wgt id="761">4.57729e-12</wgt>
  <wgt id="762">4.59931e-12</wgt>
  <wgt id="763">4.27589e-12</wgt>
  <wgt id="764">4.47845e-12</wgt>
  <wgt id="765">4.31533e-12</wgt>
  <wgt id="766">4.28405e-12</wgt>
  <wgt id="767">4.35784e-12</wgt>
  <wgt id="768">3.97028e-12</wgt>
  <wgt id="769">4.52344e-12</wgt>
  <wgt id="770">4.14552e-12</wgt>
  <wgt id="771">5.10594e-12</wgt>
  <wgt id="772">4.09817e-12</wgt>
  <wgt id="773">4.24299e-12</wgt>
  <wgt id="774">3.58891e-12</wgt>
  <wgt id="775">4.47283e-12</wgt>
  <wgt id="776">4.70003e-12</wgt>
  <wgt id="777">3.9517e-12</wgt>
  <wgt id="778">3.01895e-12</wgt>
  <wgt id="779">2.23818e-12</wgt>
  <wgt id="780">1.6385e-12</wgt>
  <wgt id="781">3.42477e-12</wgt>
  <wgt id="782">3.40937e-12</wgt>
  <wgt id="783">2.20052e-12</wgt>
  <wgt id="784">2.44368e-12</wgt>
  <wgt id="785">4.05354e-12</wgt>
  <wgt id="786">2.12509e-12</wgt>
  <wgt id="787">3.61319e-12</wgt>
  <wgt id="788">1.40888e-12</wgt>
  <wgt id="789">2.38434e-12</wgt>
  <wgt id="790">2.08236e-12</wgt>
  <wgt id="791">3.12436e-12</wgt>
  <wgt id="792">4.03224e-12</wgt>
  <wgt id="793">2.95921e-12</wgt>
  <wgt id="794">2.00959e-12</wgt>
  <wgt id="795">3.78409e-12</wgt>
  <wgt id="796">4.05918e-12</wgt>
  <wgt id="797">3.73776e-12</wgt>
  <wgt id="798">2.57339e-12</wgt>
  <wgt id="799">3.55909e-12</wgt>
  <wgt id="800">2.45133e-12</wgt>
  <wgt id="801">2.78914e-12</wgt>
  <wgt id="802">1.98152e-12</wgt>
  <wgt id="803">4.48642e-12</wgt>
  <wgt id="804">3.76527e-12</wgt>
  <wgt id="805">3.75354e-12</wgt>
  <wgt id="806">3.29338e-12</wgt>
  <wgt id="807">2.88962e-12</wgt>
  <wgt id="808">2.88746e-12</wgt>
  <wgt id="809">2.77292e-12</wgt>
  <wgt id="810">3.3576e-12</wgt>
  <wgt id="811">3.23509e-12</wgt>
  <wgt id="812">2.08117e-12</wgt>
  <wgt id="813">2.19063e-12</wgt>
  <wgt id="814">2.35961e-12</wgt>
  <wgt id="815">2.20473e-12</wgt>
  <wgt id="816">2.11094e-12</wgt>
  <wgt id="817">3.08849e-12</wgt>
  <wgt id="818">3.39867e-12</wgt>
  <wgt id="819">2.23334e-12</wgt>
  <wgt id="820">2.94798e-12</wgt>
  <wgt id="821">3.54238e-12</wgt>
  <wgt id="822">2.42341e-12</wgt>
  <wgt id="823">3.63901e-12</wgt>
  <wgt id="824">4.35835e-12</wgt>
  <wgt id="825">1.92985e-12</wgt>
  <wgt id="826">3.42619e-12</wgt>
  <wgt id="827">1.62113e-12</wgt>
  <wgt id="828">3.86733e-12</wgt>
  <wgt id="829">3.12342e-12</wgt>
  <wgt id="830">1.82343e-12</wgt>
  <wgt id="831">3.37255e-12</wgt>
  <wgt id="832">5.14087e-12</wgt>
  <wgt id="833">2.62469e-12</wgt>
  <wgt id="834">4.92643e-12</wgt>
  <wgt id="835">2.34169e-12</wgt>
  <wgt id="836">2.75724e-12</wgt>
  <wgt id="837">3.47991e-12</wgt>
  <wgt id="838">2.6747e-12</wgt>
  <wgt id="839">3.34671e-12</wgt>
  <wgt id="840">2.6953e-12</wgt>
  <wgt id="841">3.96709e-12</wgt>
  <wgt id="842">2.82206e-12</wgt>
  <wgt id="843">3.12493e-12</wgt>
  <wgt id="844">3.23013e-12</wgt>
  <wgt id="845">4.75809e-12</wgt>
  <wgt id="846">3.11533e-12</wgt>
  <wgt id="847">3.12861e-12</wgt>
  <wgt id="848">2.28887e-12</wgt>
  <wgt id="849">3.16437e-12</wgt>
  <wgt id="850">4.22954e-12</wgt>
  <wgt id="851">3.4181e-12</wgt>
  <wgt id="852">2.14324e-12</wgt>
  <wgt id="853">3.49699e-12</wgt>
  <wgt id="854">3.9002e-12</wgt>
  <wgt id="855">3.5971e-12</wgt>
  <wgt id="856">1.84031e-12</wgt>
  <wgt id="857">2.85542e-12</wgt>
  <wgt id="858">2.83566e-12</wgt>
  <wgt id="859">2.85872e-12</wgt>
  <wgt id="860">3.54665e-12</wgt>
  <wgt id="861">2.59419e-12</wgt>
  <wgt id="862">3.06387e-12</wgt>
  <wgt id="863">3.32861e-12</wgt>
  <wgt id="864">3.17298e-12</wgt>
  <wgt id="865">4.56427e-12</wgt>
  <wgt id="866">5.03849e-12</wgt>
  <wgt id="867">3.08352e-12</wgt>
  <wgt id="868">3.03071e-12</wgt>
  <wgt id="869">2.08806e-12</wgt>
  <wgt id="870">2.27796e-12</wgt>
  <wgt id="871">2.21639e-12</wgt>
  <wgt id="872">3.9112e-12</wgt>
  <wgt id="873">2.48157e-12</wgt>
  <wgt id="874">3.25684e-12</wgt>
  <wgt id="875">2.51207e-12</wgt>
  <wgt id="876">3.83359e-12</wgt>
  <wgt id="877">3.4537e-12</wgt>
  <wgt id="878">2.45437e-12</wgt>
  <wgt id="879">4.27035e-12</wgt>
  <wgt id="880">4.32117e-12</wgt>
  <wgt id="881">4.55403e-12</wgt>
  <wgt id="882">4.12431e-12</wgt>
  <wgt id="883">4.24105e-12</wgt>
  <wgt id="884">4.27512e-12</wgt>
  <wgt id="885">4.42987e-12</wgt>
  <wgt id="886">4.11772e-12</wgt>
  <wgt id="887">4.46096e-12</wgt>
  <wgt id="888">4.15943e-12</wgt>
  <wgt id="889">4.17236e-12</wgt>
  <wgt id="890">4.44429e-12</wgt>
  <wgt id="891">4.18007e-12</wgt>
  <wgt id="892">4.50481e-12</wgt>
  <wgt id="893">4.42313e-12</wgt>
  <wgt id="894">4.4424e-12</wgt>
  <wgt id="895">4.20741e-12</wgt>
  <wgt id="896">5.24648e-12</wgt>
  <wgt id="897">4.59618e-12</wgt>
  <wgt id="898">4.09907e-12</wgt>
  <wgt id="899">4.10612e-12</wgt>
  <wgt id="900">4.02585e-12</wgt>
  <wgt id="901">3.75428e-12</wgt>
  <wgt id="902">3.75263e-12</wgt>
  <wgt id="903">3.75234e-12</wgt>
  <wgt id="904">4.2725e-12</wgt>
  <wgt id="905">4.18036e-12</wgt>
  <wgt id="906">5.03215e-12</wgt>
  <wgt id="907">4.74259e-12</wgt>
  <wgt id="908">4.63972e-12</wgt>
  <wgt id="909">4.0275e-12</wgt>
  <wgt id="910">4.06312e-12</wgt>
  <wgt id="911">4.17097e-12</wgt>
  <wgt id="912">4.17088e-12</wgt>
  <wgt id="913">3.83417e-12</wgt>
  <wgt id="914">4.31187e-12</wgt>
  <wgt id="915">4.10382e-12</wgt>
  <wgt id="916">4.59976e-12</wgt>
  <wgt id="917">4.04678e-12</wgt>
  <wgt id="918">4.16896e-12</wgt>
  <wgt id="919">4.12157e-12</wgt>
  <wgt id="920">3.92216e-12</wgt>
  <wgt id="921">4.3275e-12</wgt>
  <wgt id="922">3.87654e-12</wgt>
  <wgt id="923">4.16661e-12</wgt>
  <wgt id="924">3.78005e-12</wgt>
  <wgt id="925">3.63028e-12</wgt>
  <wgt id="926">4.64156e-12</wgt>
  <wgt id="927">4.53506e-12</wgt>
  <wgt id="928">4.47517e-12</wgt>
  <wgt id="929">4.27659e-12</wgt>
  <wgt id="930">4.21953e-12</wgt>
  <wgt id="931">4.14543e-12</wgt>
  <wgt id="932">4.08306e-12</wgt>
  <wgt id="933">4.63458e-12</wgt>
  <wgt id="934">4.1965e-12</wgt>
  <wgt id="935">4.80375e-12</wgt>
  <wgt id="936">4.1215e-12</wgt>
  <wgt id="937">4.38325e-12</wgt>
  <wgt id="938">4.3054e-12</wgt>
  <wgt id="939">4.09023e-12</wgt>
  <wgt id="940">4.24062e-12</wgt>
  <wgt id="941">4.07569e-12</wgt>
  <wgt id="942">4.48636e-12</wgt>
  <wgt id="943">4.84741e-12</wgt>
  <wgt id="944">4.03178e-12</wgt>
  <wgt id="945">4.21033e-12</wgt>
  <wgt id="946">3.98934e-12</wgt>
  <wgt id="947">4.18519e-12</wgt>
  <wgt id="948">4.52824e-12</wgt>
  <wgt id="949">4.63197e-12</wgt>
  <wgt id="950">3.7248e-12</wgt>
  <wgt id="951">4.18904e-12</wgt>
  <wgt id="952">4.44847e-12</wgt>
  <wgt id="953">4.51622e-12</wgt>
  <wgt id="954">4.3382e-12</wgt>
  <wgt id="955">3.89235e-12</wgt>
  <wgt id="956">3.95326e-12</wgt>
  <wgt id="957">4.44705e-12</wgt>
  <wgt id="958">4.23949e-12</wgt>
  <wgt id="959">4.22297e-12</wgt>
  <wgt id="960">3.84427e-12</wgt>
  <wgt id="961">4.22748e-12</wgt>
  <wgt id="962">4.58446e-12</wgt>
  <wgt id="963">4.22362e-12</wgt>
  <wgt id="964">4.57729e-12</wgt>
  <wgt id="965">4.59931e-12</wgt>
  <wgt id="966">4.27589e-12</wgt>
  <wgt id="967">4.47845e-12</wgt>
  <wgt id="968">4.31533e-12</wgt>
  <wgt id="969">4.28405e-12</wgt>
  <wgt id="970">4.35784e-12</wgt>
  <wgt id="971">3.97028e-12</wgt>
  <wgt id="972">4.52344e-12</wgt>
  <wgt id="973">4.14552e-12</wgt>
  <wgt id="974">5.10594e-12</wgt>
  <wgt id="975">4.09817e-12</wgt>
  <wgt id="976">4.24299e-12</wgt>
  <wgt id="977">3.58891e-12</wgt>
  <wgt id="978">4.47283e-12</wgt>
  <wgt id="979">4.70003e-12</wgt>
  <wgt id="980">4.25394e-12</wgt>
  <wgt id="981">4.31655e-12</wgt>
  <wgt id="982">4.13721e-12</wgt>
</rwgt>
</event>
<event>
 5   1  0.3028200E-11  0.2059643E+04  0.7818608E-02  0.7803892E-01
       21   -1    0    0  502  501  0.00000000000E+00  0.00000000000E+00  0.27018944492E+04  0.27018944492E+04  0.00000000000E+00 0.  1.
       21   -1    0    0  501  502 -0.00000000000E+00 -0.00000000000E+00 -0.39251450914E+03  0.39251450914E+03  0.00000000000E+00 0. -1.
       39    2    1    2    0    0  0.00000000000E+00  0.00000000000E+00  0.23093799401E+04  0.30944089584E+04  0.20596434385E+04 0.  0.
       25    1    3    3    0    0  0.95757787737E+02  0.10105408142E+04  0.13358864391E+04  0.16824327236E+04  0.12500000000E+03 0.  0.
       25    1    3    3    0    0 -0.95757787737E+02 -0.10105408142E+04  0.97349350103E+03  0.14119762348E+04  0.12500000000E+03 0.  0.
<mgrwt>
<rscale>  0 0.20596434E+04</rscale>
<asrwt>0</asrwt>
<pdfrwt beam="1">  1       21 0.41567606E+00 0.20596434E+04</pdfrwt>
<pdfrwt beam="2">  1       21 0.60386849E-01 0.20596434E+04</pdfrwt>
<totfact> 0.65129431E+00</totfact>
</mgrwt>
<rwgt>
  <wgt id="1">3.0282e-12</wgt>
  <wgt id="2">2.5888e-12</wgt>
  <wgt id="3">3.58615e-12</wgt>
  <wgt id="4">3.0282e-12</wgt>
  <wgt id="5">2.5888e-12</wgt>
  <wgt id="6">3.58615e-12</wgt>
  <wgt id="7">3.0282e-12</wgt>
  <wgt id="8">2.5888e-12</wgt>
  <wgt id="9">3.58615e-12</wgt>
  <wgt id="10">3.23034e-12</wgt>
  <wgt id="11">3.23415e-12</wgt>
  <wgt id="12">3.21812e-12</wgt>
  <wgt id="13">3.23009e-12</wgt>
  <wgt id="14">3.2286e-12</wgt>
  <wgt id="15">3.23103e-12</wgt>
  <wgt id="16">3.20981e-12</wgt>
  <wgt id="17">3.25832e-12</wgt>
  <wgt id="18">3.22911e-12</wgt>
  <wgt id="19">3.25021e-12</wgt>
  <wgt id="20">3.23859e-12</wgt>
  <wgt id="21">3.19182e-12</wgt>
  <wgt id="22">3.19924e-12</wgt>
  <wgt id="23">3.17102e-12</wgt>
  <wgt id="24">3.20432e-12</wgt>
  <wgt id="25">3.22562e-12</wgt>
  <wgt id="26">3.2379e-12</wgt>
  <wgt id="27">3.2237e-12</wgt>
  <wgt id="28">3.21124e-12</wgt>
  <wgt id="29">3.22974e-12</wgt>
  <wgt id="30">3.19904e-12</wgt>
  <wgt id="31">3.24148e-12</wgt>
  <wgt id="32">3.19138e-12</wgt>
  <wgt id="33">3.23311e-12</wgt>
  <wgt id="34">3.19863e-12</wgt>
  <wgt id="35">3.19295e-12</wgt>
  <wgt id="36">3.25141e-12</wgt>
  <wgt id="37">3.22074e-12</wgt>
  <wgt id="38">3.20925e-12</wgt>
  <wgt id="39">3.30641e-12</wgt>
  <wgt id="40">3.24276e-12</wgt>
  <wgt id="41">3.22628e-12</wgt>
  <wgt id="42">3.23178e-12</wgt>
  <wgt id="43">3.23644e-12</wgt>
  <wgt id="44">3.26123e-12</wgt>
  <wgt id="45">3.23934e-12</wgt>
  <wgt id="46">3.20135e-12</wgt>
  <wgt id="47">3.30098e-12</wgt>
  <wgt id="48">3.27709e-12</wgt>
  <wgt id="49">3.21598e-12</wgt>
  <wgt id="50">3.1811e-12</wgt>
  <wgt id="51">3.1971e-12</wgt>
  <wgt id="52">3.23622e-12</wgt>
  <wgt id="53">3.32765e-12</wgt>
  <wgt id="54">3.26327e-12</wgt>
  <wgt id="55">3.21457e-12</wgt>
  <wgt id="56">3.15096e-12</wgt>
  <wgt id="57">3.16674e-12</wgt>
  <wgt id="58">3.23023e-12</wgt>
  <wgt id="59">3.25159e-12</wgt>
  <wgt id="60">3.1621e-12</wgt>
  <wgt id="61">3.24345e-12</wgt>
  <wgt id="62">3.2634e-12</wgt>
  <wgt id="63">3.22074e-12</wgt>
  <wgt id="64">3.22361e-12</wgt>
  <wgt id="65">3.19884e-12</wgt>
  <wgt id="66">3.26786e-12</wgt>
  <wgt id="67">3.28356e-12</wgt>
  <wgt id="68">3.22967e-12</wgt>
  <wgt id="69">3.22552e-12</wgt>
  <wgt id="70">3.18691e-12</wgt>
  <wgt id="71">3.26433e-12</wgt>
  <wgt id="72">3.26158e-12</wgt>
  <wgt id="73">3.20252e-12</wgt>
  <wgt id="74">3.2613e-12</wgt>
  <wgt id="75">3.17022e-12</wgt>
  <wgt id="76">3.25571e-12</wgt>
  <wgt id="77">3.21709e-12</wgt>
  <wgt id="78">3.22541e-12</wgt>
  <wgt id="79">3.23565e-12</wgt>
  <wgt id="80">3.20859e-12</wgt>
  <wgt id="81">3.22268e-12</wgt>
  <wgt id="82">3.23097e-12</wgt>
  <wgt id="83">3.19751e-12</wgt>
  <wgt id="84">3.19965e-12</wgt>
  <wgt id="85">3.19482e-12</wgt>
  <wgt id="86">3.27574e-12</wgt>
  <wgt id="87">3.16859e-12</wgt>
  <wgt id="88">3.24603e-12</wgt>
  <wgt id="89">3.24404e-12</wgt>
  <wgt id="90">3.26005e-12</wgt>
  <wgt id="91">3.23202e-12</wgt>
  <wgt id="92">3.24927e-12</wgt>
  <wgt id="93">3.23824e-12</wgt>
  <wgt id="94">3.207e-12</wgt>
  <wgt id="95">3.26013e-12</wgt>
  <wgt id="96">3.25739e-12</wgt>
  <wgt id="97">3.19412e-12</wgt>
  <wgt id="98">3.23195e-12</wgt>
  <wgt id="99">3.2197e-12</wgt>
  <wgt id="100">3.24121e-12</wgt>
  <wgt id="101">3.21472e-12</wgt>
  <wgt id="102">3.22112e-12</wgt>
  <wgt id="103">3.25495e-12</wgt>
  <wgt id="104">3.22687e-12</wgt>
  <wgt id="105">3.25916e-12</wgt>
  <wgt id="106">3.20614e-12</wgt>
  <wgt id="107">3.27385e-12</wgt>
  <wgt id="108">3.21742e-12</wgt>
  <wgt id="109">3.22689e-12</wgt>
  <wgt id="110">3.23181e-12</wgt>
  <wgt id="111">3.17583e-12</wgt>
  <wgt id="112">3.3029e-12</wgt>
  <wgt id="113">5.04786e-12</wgt>
  <wgt id="114">4.02916e-12</wgt>
  <wgt id="115">3.94535e-12</wgt>
  <wgt id="116">5.2547e-12</wgt>
  <wgt id="117">3.50759e-12</wgt>
  <wgt id="118">3.52024e-12</wgt>
  <wgt id="119">3.50034e-12</wgt>
  <wgt id="120">3.50747e-12</wgt>
  <wgt id="121">3.50755e-12</wgt>
  <wgt id="122">3.50262e-12</wgt>
  <wgt id="123">3.51464e-12</wgt>
  <wgt id="124">3.50316e-12</wgt>
  <wgt id="125">3.51034e-12</wgt>
  <wgt id="126">3.51028e-12</wgt>
  <wgt id="127">3.50589e-12</wgt>
  <wgt id="128">3.51792e-12</wgt>
  <wgt id="129">3.49734e-12</wgt>
  <wgt id="130">3.51997e-12</wgt>
  <wgt id="131">3.49443e-12</wgt>
  <wgt id="132">3.40484e-12</wgt>
  <wgt id="133">3.63063e-12</wgt>
  <wgt id="134">3.47196e-12</wgt>
  <wgt id="135">3.5354e-12</wgt>
  <wgt id="136">3.57183e-12</wgt>
  <wgt id="137">3.43072e-12</wgt>
  <wgt id="138">3.69552e-12</wgt>
  <wgt id="139">3.33291e-12</wgt>
  <wgt id="140">3.49964e-12</wgt>
  <wgt id="141">3.51262e-12</wgt>
  <wgt id="142">3.50541e-12</wgt>
  <wgt id="143">3.52384e-12</wgt>
  <wgt id="144">3.30781e-12</wgt>
  <wgt id="145">3.71137e-12</wgt>
  <wgt id="146">3.57569e-12</wgt>
  <wgt id="147">3.45048e-12</wgt>
  <wgt id="148">3.52125e-12</wgt>
  <wgt id="149">3.50658e-12</wgt>
  <wgt id="150">3.53516e-12</wgt>
  <wgt id="151">3.49454e-12</wgt>
  <wgt id="152">3.5072e-12</wgt>
  <wgt id="153">3.50763e-12</wgt>
  <wgt id="154">3.48846e-12</wgt>
  <wgt id="155">3.51496e-12</wgt>
  <wgt id="156">3.69034e-12</wgt>
  <wgt id="157">3.35588e-12</wgt>
  <wgt id="158">4.16484e-12</wgt>
  <wgt id="159">4.18294e-12</wgt>
  <wgt id="160">4.15006e-12</wgt>
  <wgt id="161">4.15473e-12</wgt>
  <wgt id="162">4.17587e-12</wgt>
  <wgt id="163">4.1604e-12</wgt>
  <wgt id="164">4.1714e-12</wgt>
  <wgt id="165">4.16635e-12</wgt>
  <wgt id="166">4.16369e-12</wgt>
  <wgt id="167">4.16205e-12</wgt>
  <wgt id="168">4.16879e-12</wgt>
  <wgt id="169">4.14789e-12</wgt>
  <wgt id="170">4.17526e-12</wgt>
  <wgt id="171">4.16432e-12</wgt>
  <wgt id="172">4.1657e-12</wgt>
  <wgt id="173">4.14805e-12</wgt>
  <wgt id="174">4.17079e-12</wgt>
  <wgt id="175">4.04236e-12</wgt>
  <wgt id="176">4.32573e-12</wgt>
  <wgt id="177">4.17738e-12</wgt>
  <wgt id="178">4.1539e-12</wgt>
  <wgt id="179">4.42258e-12</wgt>
  <wgt id="180">3.7788e-12</wgt>
  <wgt id="181">4.00624e-12</wgt>
  <wgt id="182">4.27187e-12</wgt>
  <wgt id="183">4.06878e-12</wgt>
  <wgt id="184">4.21254e-12</wgt>
  <wgt id="185">4.10606e-12</wgt>
  <wgt id="186">4.23539e-12</wgt>
  <wgt id="187">4.10387e-12</wgt>
  <wgt id="188">4.2701e-12</wgt>
  <wgt id="189">4.12599e-12</wgt>
  <wgt id="190">4.18064e-12</wgt>
  <wgt id="191">4.18449e-12</wgt>
  <wgt id="192">4.1531e-12</wgt>
  <wgt id="193">4.24544e-12</wgt>
  <wgt id="194">4.12359e-12</wgt>
  <wgt id="195">3.95587e-12</wgt>
  <wgt id="196">4.49e-12</wgt>
  <wgt id="197">4.18708e-12</wgt>
  <wgt id="198">4.15945e-12</wgt>
  <wgt id="199">4.16484e-12</wgt>
  <wgt id="200">4.20985e-12</wgt>
  <wgt id="201">4.19618e-12</wgt>
  <wgt id="202">4.18179e-12</wgt>
  <wgt id="203">4.16395e-12</wgt>
  <wgt id="204">4.1537e-12</wgt>
  <wgt id="205">4.14535e-12</wgt>
  <wgt id="206">4.12426e-12</wgt>
  <wgt id="207">4.14933e-12</wgt>
  <wgt id="208">4.09923e-12</wgt>
  <wgt id="209">4.1344e-12</wgt>
  <wgt id="210">4.11662e-12</wgt>
  <wgt id="211">4.12305e-12</wgt>
  <wgt id="212">4.12487e-12</wgt>
  <wgt id="213">4.12372e-12</wgt>
  <wgt id="214">4.12436e-12</wgt>
  <wgt id="215">4.12671e-12</wgt>
  <wgt id="216">4.12224e-12</wgt>
  <wgt id="217">4.12981e-12</wgt>
  <wgt id="218">4.11973e-12</wgt>
  <wgt id="219">4.11627e-12</wgt>
  <wgt id="220">4.12896e-12</wgt>
  <wgt id="221">4.12991e-12</wgt>
  <wgt id="222">4.10845e-12</wgt>
  <wgt id="223">3.86889e-12</wgt>
  <wgt id="224">4.35957e-12</wgt>
  <wgt id="225">4.07315e-12</wgt>
  <wgt id="226">4.18955e-12</wgt>
  <wgt id="227">4.08447e-12</wgt>
  <wgt id="228">4.14153e-12</wgt>
  <wgt id="229">4.06264e-12</wgt>
  <wgt id="230">4.15455e-12</wgt>
  <wgt id="231">4.29341e-12</wgt>
  <wgt id="232">3.98689e-12</wgt>
  <wgt id="233">4.08893e-12</wgt>
  <wgt id="234">4.18482e-12</wgt>
  <wgt id="235">3.84114e-12</wgt>
  <wgt id="236">4.34906e-12</wgt>
  <wgt id="237">3.96981e-12</wgt>
  <wgt id="238">4.17551e-12</wgt>
  <wgt id="239">4.06366e-12</wgt>
  <wgt id="240">4.23251e-12</wgt>
  <wgt id="241">4.06265e-12</wgt>
  <wgt id="242">4.19443e-12</wgt>
  <wgt id="243">4.22548e-12</wgt>
  <wgt id="244">4.09646e-12</wgt>
  <wgt id="245">4.12466e-12</wgt>
  <wgt id="246">4.13463e-12</wgt>
  <wgt id="247">4.12426e-12</wgt>
  <wgt id="248">4.17731e-12</wgt>
  <wgt id="249">4.16073e-12</wgt>
  <wgt id="250">4.13993e-12</wgt>
  <wgt id="251">4.11665e-12</wgt>
  <wgt id="252">4.10264e-12</wgt>
  <wgt id="253">4.09394e-12</wgt>
  <wgt id="254">3.90713e-12</wgt>
  <wgt id="255">3.91006e-12</wgt>
  <wgt id="256">3.9039e-12</wgt>
  <wgt id="257">3.91012e-12</wgt>
  <wgt id="258">3.90461e-12</wgt>
  <wgt id="259">3.93311e-12</wgt>
  <wgt id="260">3.88186e-12</wgt>
  <wgt id="261">3.91243e-12</wgt>
  <wgt id="262">3.90042e-12</wgt>
  <wgt id="263">3.90342e-12</wgt>
  <wgt id="264">3.91134e-12</wgt>
  <wgt id="265">3.90262e-12</wgt>
  <wgt id="266">3.9157e-12</wgt>
  <wgt id="267">3.90829e-12</wgt>
  <wgt id="268">3.90557e-12</wgt>
  <wgt id="269">3.91723e-12</wgt>
  <wgt id="270">3.90008e-12</wgt>
  <wgt id="271">3.89056e-12</wgt>
  <wgt id="272">3.92538e-12</wgt>
  <wgt id="273">3.8991e-12</wgt>
  <wgt id="274">3.91299e-12</wgt>
  <wgt id="275">3.87394e-12</wgt>
  <wgt id="276">3.9412e-12</wgt>
  <wgt id="277">3.88638e-12</wgt>
  <wgt id="278">3.9259e-12</wgt>
  <wgt id="279">3.83906e-12</wgt>
  <wgt id="280">3.9931e-12</wgt>
  <wgt id="281">3.88364e-12</wgt>
  <wgt id="282">3.92421e-12</wgt>
  <wgt id="283">3.75838e-12</wgt>
  <wgt id="284">4.09602e-12</wgt>
  <wgt id="285">3.66144e-12</wgt>
  <wgt id="286">4.12038e-12</wgt>
  <wgt id="287">3.92301e-12</wgt>
  <wgt id="288">3.88673e-12</wgt>
  <wgt id="289">3.9436e-12</wgt>
  <wgt id="290">3.83016e-12</wgt>
  <wgt id="291">3.88944e-12</wgt>
  <wgt id="292">3.90082e-12</wgt>
  <wgt id="293">3.86693e-12</wgt>
  <wgt id="294">3.94705e-12</wgt>
  <wgt id="295">3.80923e-12</wgt>
  <wgt id="296">4.02693e-12</wgt>
  <wgt id="297">3.88415e-12</wgt>
  <wgt id="298">3.93297e-12</wgt>
  <wgt id="299">3.89268e-12</wgt>
  <wgt id="300">3.94515e-12</wgt>
  <wgt id="301">3.79042e-12</wgt>
  <wgt id="302">4.1586e-12</wgt>
  <wgt id="303">3.84372e-12</wgt>
  <wgt id="304">3.94183e-12</wgt>
  <wgt id="305">3.80698e-12</wgt>
  <wgt id="306">3.80988e-12</wgt>
  <wgt id="307">3.80381e-12</wgt>
  <wgt id="308">3.81038e-12</wgt>
  <wgt id="309">3.80473e-12</wgt>
  <wgt id="310">3.83276e-12</wgt>
  <wgt id="311">3.78306e-12</wgt>
  <wgt id="312">3.81275e-12</wgt>
  <wgt id="313">3.80085e-12</wgt>
  <wgt id="314">3.80281e-12</wgt>
  <wgt id="315">3.81116e-12</wgt>
  <wgt id="316">3.80228e-12</wgt>
  <wgt id="317">3.81719e-12</wgt>
  <wgt id="318">3.80961e-12</wgt>
  <wgt id="319">3.80248e-12</wgt>
  <wgt id="320">3.8182e-12</wgt>
  <wgt id="321">3.80088e-12</wgt>
  <wgt id="322">3.79103e-12</wgt>
  <wgt id="323">3.82582e-12</wgt>
  <wgt id="324">3.80329e-12</wgt>
  <wgt id="325">3.81042e-12</wgt>
  <wgt id="326">3.77944e-12</wgt>
  <wgt id="327">3.84261e-12</wgt>
  <wgt id="328">3.79018e-12</wgt>
  <wgt id="329">3.81625e-12</wgt>
  <wgt id="330">3.90843e-12</wgt>
  <wgt id="331">3.71106e-12</wgt>
  <wgt id="332">3.78731e-12</wgt>
  <wgt id="333">3.81923e-12</wgt>
  <wgt id="334">3.6991e-12</wgt>
  <wgt id="335">3.94443e-12</wgt>
  <wgt id="336">3.63952e-12</wgt>
  <wgt id="337">4.01966e-12</wgt>
  <wgt id="338">3.86045e-12</wgt>
  <wgt id="339">3.75851e-12</wgt>
  <wgt id="340">3.83795e-12</wgt>
  <wgt id="341">3.73445e-12</wgt>
  <wgt id="342">3.79606e-12</wgt>
  <wgt id="343">3.79071e-12</wgt>
  <wgt id="344">3.77373e-12</wgt>
  <wgt id="345">3.84583e-12</wgt>
  <wgt id="346">3.71033e-12</wgt>
  <wgt id="347">3.91684e-12</wgt>
  <wgt id="348">3.78397e-12</wgt>
  <wgt id="349">3.8315e-12</wgt>
  <wgt id="350">3.79001e-12</wgt>
  <wgt id="351">3.85074e-12</wgt>
  <wgt id="352">3.69726e-12</wgt>
  <wgt id="353">4.0338e-12</wgt>
  <wgt id="354">3.72388e-12</wgt>
  <wgt id="355">3.85514e-12</wgt>
  <wgt id="356">3.90713e-12</wgt>
  <wgt id="357">3.79254e-12</wgt>
  <wgt id="358">3.80698e-12</wgt>
  <wgt id="359">3.88519e-12</wgt>
  <wgt id="360">4.03478e-12</wgt>
  <wgt id="361">3.93811e-12</wgt>
  <wgt id="362">4.03186e-12</wgt>
  <wgt id="363">4.02045e-12</wgt>
  <wgt id="364">3.99249e-12</wgt>
  <wgt id="365">3.97491e-12</wgt>
  <wgt id="366">3.95834e-12</wgt>
  <wgt id="367">3.93071e-12</wgt>
  <wgt id="368">3.90921e-12</wgt>
  <wgt id="369">3.88621e-12</wgt>
  <wgt id="370">3.93811e-12</wgt>
  <wgt id="371">3.95218e-12</wgt>
  <wgt id="372">3.94411e-12</wgt>
  <wgt id="373">3.93393e-12</wgt>
  <wgt id="374">3.94741e-12</wgt>
  <wgt id="375">5.01135e-12</wgt>
  <wgt id="376">5.01113e-12</wgt>
  <wgt id="377">5.01193e-12</wgt>
  <wgt id="378">5.03199e-12</wgt>
  <wgt id="379">4.99109e-12</wgt>
  <wgt id="380">5.02695e-12</wgt>
  <wgt id="381">5.005e-12</wgt>
  <wgt id="382">5.02853e-12</wgt>
  <wgt id="383">4.9946e-12</wgt>
  <wgt id="384">5.01476e-12</wgt>
  <wgt id="385">5.00828e-12</wgt>
  <wgt id="386">5.01899e-12</wgt>
  <wgt id="387">5.00835e-12</wgt>
  <wgt id="388">5.00814e-12</wgt>
  <wgt id="389">5.01548e-12</wgt>
  <wgt id="390">5.01839e-12</wgt>
  <wgt id="391">5.00399e-12</wgt>
  <wgt id="392">4.96158e-12</wgt>
  <wgt id="393">5.03977e-12</wgt>
  <wgt id="394">5.01003e-12</wgt>
  <wgt id="395">5.01324e-12</wgt>
  <wgt id="396">5.02501e-12</wgt>
  <wgt id="397">5.0016e-12</wgt>
  <wgt id="398">5.0195e-12</wgt>
  <wgt id="399">5.00379e-12</wgt>
  <wgt id="400">5.0045e-12</wgt>
  <wgt id="401">5.02696e-12</wgt>
  <wgt id="402">4.95292e-12</wgt>
  <wgt id="403">5.06278e-12</wgt>
  <wgt id="404">5.20315e-12</wgt>
  <wgt id="405">4.56399e-12</wgt>
  <wgt id="406">4.87163e-12</wgt>
  <wgt id="407">5.3288e-12</wgt>
  <wgt id="408">5.08425e-12</wgt>
  <wgt id="409">4.88058e-12</wgt>
  <wgt id="410">4.78889e-12</wgt>
  <wgt id="411">5.12226e-12</wgt>
  <wgt id="412">4.99663e-12</wgt>
  <wgt id="413">5.03188e-12</wgt>
  <wgt id="414">4.92375e-12</wgt>
  <wgt id="415">5.07949e-12</wgt>
  <wgt id="416">5.24705e-12</wgt>
  <wgt id="417">4.69279e-12</wgt>
  <wgt id="418">5.02659e-12</wgt>
  <wgt id="419">4.929e-12</wgt>
  <wgt id="420">5.21102e-12</wgt>
  <wgt id="421">4.86929e-12</wgt>
  <wgt id="422">4.94201e-12</wgt>
  <wgt id="423">5.04205e-12</wgt>
  <wgt id="424">5.24291e-12</wgt>
  <wgt id="425">4.84732e-12</wgt>
  <wgt id="426">5.01135e-12</wgt>
  <wgt id="427">4.82341e-12</wgt>
  <wgt id="428">5.40061e-12</wgt>
  <wgt id="429">5.11743e-12</wgt>
  <wgt id="430">5.33545e-12</wgt>
  <wgt id="431">5.28865e-12</wgt>
  <wgt id="432">5.25001e-12</wgt>
  <wgt id="433">5.21108e-12</wgt>
  <wgt id="434">5.15876e-12</wgt>
  <wgt id="435">5.06664e-12</wgt>
  <wgt id="436">5.02148e-12</wgt>
  <wgt id="437">4.97578e-12</wgt>
  <wgt id="438">5.11743e-12</wgt>
  <wgt id="439">5.13096e-12</wgt>
  <wgt id="440">5.12163e-12</wgt>
  <wgt id="441">5.11562e-12</wgt>
  <wgt id="442">5.1144e-12</wgt>
  <wgt id="443">4.04972e-12</wgt>
  <wgt id="444">4.11744e-12</wgt>
  <wgt id="445">4.16141e-12</wgt>
  <wgt id="446">4.02257e-12</wgt>
  <wgt id="447">4.04812e-12</wgt>
  <wgt id="448">3.96988e-12</wgt>
  <wgt id="449">4.18003e-12</wgt>
  <wgt id="450">4.1626e-12</wgt>
  <wgt id="451">4.03642e-12</wgt>
  <wgt id="452">4.12927e-12</wgt>
  <wgt id="453">4.14787e-12</wgt>
  <wgt id="454">3.78369e-12</wgt>
  <wgt id="455">4.12016e-12</wgt>
  <wgt id="456">4.20296e-12</wgt>
  <wgt id="457">4.06011e-12</wgt>
  <wgt id="458">4.14846e-12</wgt>
  <wgt id="459">4.0879e-12</wgt>
  <wgt id="460">4.2081e-12</wgt>
  <wgt id="461">3.9242e-12</wgt>
  <wgt id="462">4.01975e-12</wgt>
  <wgt id="463">3.96479e-12</wgt>
  <wgt id="464">4.03573e-12</wgt>
  <wgt id="465">4.08925e-12</wgt>
  <wgt id="466">3.8676e-12</wgt>
  <wgt id="467">4.03078e-12</wgt>
  <wgt id="468">4.06388e-12</wgt>
  <wgt id="469">4.03353e-12</wgt>
  <wgt id="470">3.95384e-12</wgt>
  <wgt id="471">3.97303e-12</wgt>
  <wgt id="472">4.08959e-12</wgt>
  <wgt id="473">3.89763e-12</wgt>
  <wgt id="474">3.0282e-12</wgt>
  <wgt id="475">3.07712e-12</wgt>
  <wgt id="476">3.11952e-12</wgt>
  <wgt id="477">3.27753e-12</wgt>
  <wgt id="478">3.22479e-12</wgt>
  <wgt id="479">2.63067e-12</wgt>
  <wgt id="480">3.33447e-12</wgt>
  <wgt id="481">3.11008e-12</wgt>
  <wgt id="482">3.26462e-12</wgt>
  <wgt id="483">3.42412e-12</wgt>
  <wgt id="484">3.26475e-12</wgt>
  <wgt id="485">2.67223e-12</wgt>
  <wgt id="486">3.20623e-12</wgt>
  <wgt id="487">2.8234e-12</wgt>
  <wgt id="488">2.89184e-12</wgt>
  <wgt id="489">2.38448e-12</wgt>
  <wgt id="490">3.11417e-12</wgt>
  <wgt id="491">2.95907e-12</wgt>
  <wgt id="492">2.98913e-12</wgt>
  <wgt id="493">2.52011e-12</wgt>
  <wgt id="494">2.49893e-12</wgt>
  <wgt id="495">3.20824e-12</wgt>
  <wgt id="496">2.63278e-12</wgt>
  <wgt id="497">2.74803e-12</wgt>
  <wgt id="498">3.07773e-12</wgt>
  <wgt id="499">3.13997e-12</wgt>
  <wgt id="500">3.24879e-12</wgt>
  <wgt id="501">3.25782e-12</wgt>
  <wgt id="502">3.51587e-12</wgt>
  <wgt id="503">2.91007e-12</wgt>
  <wgt id="504">3.17671e-12</wgt>
  <wgt id="505">3.34915e-12</wgt>
  <wgt id="506">2.48696e-12</wgt>
  <wgt id="507">2.74713e-12</wgt>
  <wgt id="508">3.22937e-12</wgt>
  <wgt id="509">3.10142e-12</wgt>
  <wgt id="510">2.9218e-12</wgt>
  <wgt id="511">2.83547e-12</wgt>
  <wgt id="512">3.38359e-12</wgt>
  <wgt id="513">3.385e-12</wgt>
  <wgt id="514">3.48261e-12</wgt>
  <wgt id="515">3.4454e-12</wgt>
  <wgt id="516">3.56123e-12</wgt>
  <wgt id="517">3.0906e-12</wgt>
  <wgt id="518">3.32287e-12</wgt>
  <wgt id="519">2.95055e-12</wgt>
  <wgt id="520">2.85406e-12</wgt>
  <wgt id="521">2.74402e-12</wgt>
  <wgt id="522">3.00127e-12</wgt>
  <wgt id="523">2.91789e-12</wgt>
  <wgt id="524">3.22719e-12</wgt>
  <wgt id="525">2.8993e-12</wgt>
  <wgt id="526">3.39799e-12</wgt>
  <wgt id="527">2.98349e-12</wgt>
  <wgt id="528">2.84018e-12</wgt>
  <wgt id="529">2.50027e-12</wgt>
  <wgt id="530">3.33758e-12</wgt>
  <wgt id="531">2.8223e-12</wgt>
  <wgt id="532">3.26607e-12</wgt>
  <wgt id="533">3.22728e-12</wgt>
  <wgt id="534">2.67809e-12</wgt>
  <wgt id="535">3.25823e-12</wgt>
  <wgt id="536">3.31141e-12</wgt>
  <wgt id="537">2.63519e-12</wgt>
  <wgt id="538">2.95047e-12</wgt>
  <wgt id="539">2.96283e-12</wgt>
  <wgt id="540">2.93732e-12</wgt>
  <wgt id="541">3.00218e-12</wgt>
  <wgt id="542">2.75361e-12</wgt>
  <wgt id="543">2.71479e-12</wgt>
  <wgt id="544">2.94086e-12</wgt>
  <wgt id="545">2.69821e-12</wgt>
  <wgt id="546">2.64117e-12</wgt>
  <wgt id="547">2.7866e-12</wgt>
  <wgt id="548">3.14225e-12</wgt>
  <wgt id="549">2.97087e-12</wgt>
  <wgt id="550">2.5607e-12</wgt>
  <wgt id="551">2.85038e-12</wgt>
  <wgt id="552">3.07875e-12</wgt>
  <wgt id="553">2.57436e-12</wgt>
  <wgt id="554">3.05029e-12</wgt>
  <wgt id="555">3.00876e-12</wgt>
  <wgt id="556">3.11417e-12</wgt>
  <wgt id="557">2.91704e-12</wgt>
  <wgt id="558">3.02546e-12</wgt>
  <wgt id="559">3.23191e-12</wgt>
  <wgt id="560">3.29842e-12</wgt>
  <wgt id="561">3.41975e-12</wgt>
  <wgt id="562">3.19558e-12</wgt>
  <wgt id="563">3.25121e-12</wgt>
  <wgt id="564">3.38296e-12</wgt>
  <wgt id="565">3.51593e-12</wgt>
  <wgt id="566">2.57581e-12</wgt>
  <wgt id="567">3.17372e-12</wgt>
  <wgt id="568">2.65555e-12</wgt>
  <wgt id="569">3.11899e-12</wgt>
  <wgt id="570">3.31054e-12</wgt>
  <wgt id="571">3.42707e-12</wgt>
  <wgt id="572">2.73194e-12</wgt>
  <wgt id="573">2.95483e-12</wgt>
  <wgt id="574">3.04263e-12</wgt>
  <wgt id="575">3.26816e-12</wgt>
  <wgt id="576">3.77321e-12</wgt>
  <wgt id="577">3.22427e-12</wgt>
  <wgt id="578">2.96799e-12</wgt>
  <wgt id="579">3.412e-12</wgt>
  <wgt id="580">3.336e-12</wgt>
  <wgt id="581">3.62016e-12</wgt>
  <wgt id="582">3.61578e-12</wgt>
  <wgt id="583">3.54989e-12</wgt>
  <wgt id="584">3.29982e-12</wgt>
  <wgt id="585">2.88288e-12</wgt>
  <wgt id="586">3.01042e-12</wgt>
  <wgt id="587">3.3622e-12</wgt>
  <wgt id="588">4.10957e-12</wgt>
  <wgt id="589">3.90083e-12</wgt>
  <wgt id="590">3.40389e-12</wgt>
  <wgt id="591">3.39885e-12</wgt>
  <wgt id="592">3.23363e-12</wgt>
  <wgt id="593">3.11512e-12</wgt>
  <wgt id="594">2.99027e-12</wgt>
  <wgt id="595">3.78769e-12</wgt>
  <wgt id="596">3.6849e-12</wgt>
  <wgt id="597">3.33945e-12</wgt>
  <wgt id="598">3.59941e-12</wgt>
  <wgt id="599">3.70182e-12</wgt>
  <wgt id="600">3.99217e-12</wgt>
  <wgt id="601">3.08586e-12</wgt>
  <wgt id="602">2.94098e-12</wgt>
  <wgt id="603">2.78755e-12</wgt>
  <wgt id="604">3.57119e-12</wgt>
  <wgt id="605">3.10899e-12</wgt>
  <wgt id="606">3.03955e-12</wgt>
  <wgt id="607">3.62123e-12</wgt>
  <wgt id="608">3.36254e-12</wgt>
  <wgt id="609">3.12285e-12</wgt>
  <wgt id="610">2.95905e-12</wgt>
  <wgt id="611">2.932e-12</wgt>
  <wgt id="612">3.1662e-12</wgt>
  <wgt id="613">2.95107e-12</wgt>
  <wgt id="614">3.36074e-12</wgt>
  <wgt id="615">3.59881e-12</wgt>
  <wgt id="616">2.66741e-12</wgt>
  <wgt id="617">3.46343e-12</wgt>
  <wgt id="618">3.68061e-12</wgt>
  <wgt id="619">3.18735e-12</wgt>
  <wgt id="620">3.30852e-12</wgt>
  <wgt id="621">3.25203e-12</wgt>
  <wgt id="622">3.3622e-12</wgt>
  <wgt id="623">3.17994e-12</wgt>
  <wgt id="624">3.1678e-12</wgt>
  <wgt id="625">3.03109e-12</wgt>
  <wgt id="626">2.22347e-12</wgt>
  <wgt id="627">2.73695e-12</wgt>
  <wgt id="628">3.26602e-12</wgt>
  <wgt id="629">4.06419e-12</wgt>
  <wgt id="630">3.34221e-12</wgt>
  <wgt id="631">3.62372e-12</wgt>
  <wgt id="632">2.92067e-12</wgt>
  <wgt id="633">3.23685e-12</wgt>
  <wgt id="634">2.93491e-12</wgt>
  <wgt id="635">3.03433e-12</wgt>
  <wgt id="636">3.10084e-12</wgt>
  <wgt id="637">3.43186e-12</wgt>
  <wgt id="638">3.00467e-12</wgt>
  <wgt id="639">2.90847e-12</wgt>
  <wgt id="640">2.95852e-12</wgt>
  <wgt id="641">3.58841e-12</wgt>
  <wgt id="642">2.63412e-12</wgt>
  <wgt id="643">3.08542e-12</wgt>
  <wgt id="644">3.03393e-12</wgt>
  <wgt id="645">3.35403e-12</wgt>
  <wgt id="646">2.5869e-12</wgt>
  <wgt id="647">3.61318e-12</wgt>
  <wgt id="648">3.67962e-12</wgt>
  <wgt id="649">3.40081e-12</wgt>
  <wgt id="650">3.3182e-12</wgt>
  <wgt id="651">3.41508e-12</wgt>
  <wgt id="652">3.01046e-12</wgt>
  <wgt id="653">3.07955e-12</wgt>
  <wgt id="654">3.21932e-12</wgt>
  <wgt id="655">2.84572e-12</wgt>
  <wgt id="656">3.42041e-12</wgt>
  <wgt id="657">3.73251e-12</wgt>
  <wgt id="658">3.10619e-12</wgt>
  <wgt id="659">3.21206e-12</wgt>
  <wgt id="660">2.86827e-12</wgt>
  <wgt id="661">3.07565e-12</wgt>
  <wgt id="662">3.286e-12</wgt>
  <wgt id="663">3.48011e-12</wgt>
  <wgt id="664">3.58215e-12</wgt>
  <wgt id="665">3.08817e-12</wgt>
  <wgt id="666">3.11614e-12</wgt>
  <wgt id="667">3.43512e-12</wgt>
  <wgt id="668">3.17094e-12</wgt>
  <wgt id="669">3.07475e-12</wgt>
  <wgt id="670">3.56806e-12</wgt>
  <wgt id="671">3.4023e-12</wgt>
  <wgt id="672">3.56551e-12</wgt>
  <wgt id="673">3.75564e-12</wgt>
  <wgt id="674">3.09078e-12</wgt>
  <wgt id="675">2.97204e-12</wgt>
  <wgt id="676">4.32407e-12</wgt>
  <wgt id="677">4.28576e-12</wgt>
  <wgt id="678">5.06477e-12</wgt>
  <wgt id="679">5.05076e-12</wgt>
  <wgt id="680">4.47341e-12</wgt>
  <wgt id="681">4.05717e-12</wgt>
  <wgt id="682">4.76147e-12</wgt>
  <wgt id="683">3.65176e-12</wgt>
  <wgt id="684">4.87783e-12</wgt>
  <wgt id="685">4.54277e-12</wgt>
  <wgt id="686">4.67396e-12</wgt>
  <wgt id="687">4.20192e-12</wgt>
  <wgt id="688">4.26456e-12</wgt>
  <wgt id="689">4.9317e-12</wgt>
  <wgt id="690">4.57166e-12</wgt>
  <wgt id="691">4.52742e-12</wgt>
  <wgt id="692">4.04521e-12</wgt>
  <wgt id="693">6.92822e-12</wgt>
  <wgt id="694">5.12909e-12</wgt>
  <wgt id="695">3.64666e-12</wgt>
  <wgt id="696">3.75598e-12</wgt>
  <wgt id="697">3.36311e-12</wgt>
  <wgt id="698">2.9572e-12</wgt>
  <wgt id="699">3.52696e-12</wgt>
  <wgt id="700">3.62569e-12</wgt>
  <wgt id="701">4.37241e-12</wgt>
  <wgt id="702">3.8735e-12</wgt>
  <wgt id="703">6.30096e-12</wgt>
  <wgt id="704">5.08613e-12</wgt>
  <wgt id="705">4.84751e-12</wgt>
  <wgt id="706">3.60215e-12</wgt>
  <wgt id="707">3.8303e-12</wgt>
  <wgt id="708">3.75735e-12</wgt>
  <wgt id="709">3.93084e-12</wgt>
  <wgt id="710">2.49956e-12</wgt>
  <wgt id="711">5.03163e-12</wgt>
  <wgt id="712">3.93608e-12</wgt>
  <wgt id="713">4.70828e-12</wgt>
  <wgt id="714">3.38533e-12</wgt>
  <wgt id="715">3.78742e-12</wgt>
  <wgt id="716">4.01497e-12</wgt>
  <wgt id="717">3.14802e-12</wgt>
  <wgt id="718">4.42229e-12</wgt>
  <wgt id="719">4.01943e-12</wgt>
  <wgt id="720">4.68138e-12</wgt>
  <wgt id="721">3.47138e-12</wgt>
  <wgt id="722">2.43342e-12</wgt>
  <wgt id="723">5.4813e-12</wgt>
  <wgt id="724">4.94987e-12</wgt>
  <wgt id="725">4.65715e-12</wgt>
  <wgt id="726">4.24542e-12</wgt>
  <wgt id="727">4.503e-12</wgt>
  <wgt id="728">4.79012e-12</wgt>
  <wgt id="729">3.15484e-12</wgt>
  <wgt id="730">5.20608e-12</wgt>
  <wgt id="731">4.307e-12</wgt>
  <wgt id="732">5.3223e-12</wgt>
  <wgt id="733">3.77519e-12</wgt>
  <wgt id="734">4.56839e-12</wgt>
  <wgt id="735">3.95639e-12</wgt>
  <wgt id="736">3.69982e-12</wgt>
  <wgt id="737">2.86367e-12</wgt>
  <wgt id="738">3.94965e-12</wgt>
  <wgt id="739">4.33541e-12</wgt>
  <wgt id="740">5.79725e-12</wgt>
  <wgt id="741">5.1641e-12</wgt>
  <wgt id="742">3.47981e-12</wgt>
  <wgt id="743">3.82569e-12</wgt>
  <wgt id="744">4.02144e-12</wgt>
  <wgt id="745">5.21139e-12</wgt>
  <wgt id="746">5.42843e-12</wgt>
  <wgt id="747">3.26721e-12</wgt>
  <wgt id="748">4.00798e-12</wgt>
  <wgt id="749">4.76298e-12</wgt>
  <wgt id="750">4.92295e-12</wgt>
  <wgt id="751">4.47138e-12</wgt>
  <wgt id="752">3.67133e-12</wgt>
  <wgt id="753">3.57571e-12</wgt>
  <wgt id="754">4.54279e-12</wgt>
  <wgt id="755">3.97153e-12</wgt>
  <wgt id="756">3.98093e-12</wgt>
  <wgt id="757">3.40891e-12</wgt>
  <wgt id="758">4.17965e-12</wgt>
  <wgt id="759">4.68884e-12</wgt>
  <wgt id="760">3.7455e-12</wgt>
  <wgt id="761">5.27298e-12</wgt>
  <wgt id="762">5.35529e-12</wgt>
  <wgt id="763">5.13073e-12</wgt>
  <wgt id="764">5.04941e-12</wgt>
  <wgt id="765">4.57966e-12</wgt>
  <wgt id="766">4.68095e-12</wgt>
  <wgt id="767">4.6025e-12</wgt>
  <wgt id="768">3.66774e-12</wgt>
  <wgt id="769">4.46433e-12</wgt>
  <wgt id="770">3.26643e-12</wgt>
  <wgt id="771">6.00389e-12</wgt>
  <wgt id="772">4.03983e-12</wgt>
  <wgt id="773">4.62248e-12</wgt>
  <wgt id="774">3.15111e-12</wgt>
  <wgt id="775">4.70601e-12</wgt>
  <wgt id="776">6.05948e-12</wgt>
  <wgt id="777">2.99859e-12</wgt>
  <wgt id="778">2.11703e-12</wgt>
  <wgt id="779">1.53777e-13</wgt>
  <wgt id="780">2.51801e-20</wgt>
  <wgt id="781">1.99922e-12</wgt>
  <wgt id="782">2.53122e-12</wgt>
  <wgt id="783">2.53282e-20</wgt>
  <wgt id="784">2.2078e-14</wgt>
  <wgt id="785">4.15291e-12</wgt>
  <wgt id="786">2.51002e-20</wgt>
  <wgt id="787">3.62529e-12</wgt>
  <wgt id="788">2.45301e-20</wgt>
  <wgt id="789">2.67385e-20</wgt>
  <wgt id="790">2.51083e-20</wgt>
  <wgt id="791">2.38315e-12</wgt>
  <wgt id="792">3.06202e-12</wgt>
  <wgt id="793">9.28279e-13</wgt>
  <wgt id="794">2.49402e-20</wgt>
  <wgt id="795">3.98477e-12</wgt>
  <wgt id="796">4.1525e-12</wgt>
  <wgt id="797">3.32314e-12</wgt>
  <wgt id="798">6.21891e-13</wgt>
  <wgt id="799">3.8847e-12</wgt>
  <wgt id="800">6.36801e-13</wgt>
  <wgt id="801">3.15082e-12</wgt>
  <wgt id="802">2.55071e-20</wgt>
  <wgt id="803">3.96687e-12</wgt>
  <wgt id="804">4.20723e-12</wgt>
  <wgt id="805">3.92342e-12</wgt>
  <wgt id="806">2.87348e-12</wgt>
  <wgt id="807">2.09367e-12</wgt>
  <wgt id="808">2.4386e-12</wgt>
  <wgt id="809">1.34782e-12</wgt>
  <wgt id="810">4.96846e-12</wgt>
  <wgt id="811">2.50332e-12</wgt>
  <wgt id="812">2.5386e-20</wgt>
  <wgt id="813">2.5244e-20</wgt>
  <wgt id="814">5.96637e-13</wgt>
  <wgt id="815">2.52678e-20</wgt>
  <wgt id="816">2.56434e-20</wgt>
  <wgt id="817">2.50256e-12</wgt>
  <wgt id="818">3.74356e-12</wgt>
  <wgt id="819">5.25493e-14</wgt>
  <wgt id="820">1.46198e-12</wgt>
  <wgt id="821">3.19155e-12</wgt>
  <wgt id="822">8.12834e-13</wgt>
  <wgt id="823">3.79123e-12</wgt>
  <wgt id="824">3.58633e-12</wgt>
  <wgt id="825">2.49729e-20</wgt>
  <wgt id="826">4.05821e-12</wgt>
  <wgt id="827">2.53666e-20</wgt>
  <wgt id="828">3.09791e-12</wgt>
  <wgt id="829">2.33541e-12</wgt>
  <wgt id="830">2.51778e-20</wgt>
  <wgt id="831">3.33671e-12</wgt>
  <wgt id="832">5.44765e-12</wgt>
  <wgt id="833">9.89161e-13</wgt>
  <wgt id="834">5.55467e-12</wgt>
  <wgt id="835">1.05182e-13</wgt>
  <wgt id="836">6.23163e-13</wgt>
  <wgt id="837">3.15183e-12</wgt>
  <wgt id="838">5.27923e-13</wgt>
  <wgt id="839">3.6612e-12</wgt>
  <wgt id="840">1.50659e-12</wgt>
  <wgt id="841">3.80447e-12</wgt>
  <wgt id="842">2.23949e-12</wgt>
  <wgt id="843">2.01917e-12</wgt>
  <wgt id="844">3.09849e-12</wgt>
  <wgt id="845">5.71862e-12</wgt>
  <wgt id="846">8.68496e-13</wgt>
  <wgt id="847">2.77889e-12</wgt>
  <wgt id="848">2.57e-20</wgt>
  <wgt id="849">3.10982e-12</wgt>
  <wgt id="850">5.01293e-12</wgt>
  <wgt id="851">3.26375e-12</wgt>
  <wgt id="852">2.56229e-20</wgt>
  <wgt id="853">3.41697e-12</wgt>
  <wgt id="854">4.46153e-12</wgt>
  <wgt id="855">3.04035e-12</wgt>
  <wgt id="856">2.50834e-20</wgt>
  <wgt id="857">8.25308e-13</wgt>
  <wgt id="858">2.5609e-12</wgt>
  <wgt id="859">1.93688e-12</wgt>
  <wgt id="860">2.67361e-12</wgt>
  <wgt id="861">7.85456e-13</wgt>
  <wgt id="862">2.56045e-12</wgt>
  <wgt id="863">3.2532e-12</wgt>
  <wgt id="864">2.11824e-12</wgt>
  <wgt id="865">4.96272e-12</wgt>
  <wgt id="866">5.18612e-12</wgt>
  <wgt id="867">2.16093e-12</wgt>
  <wgt id="868">2.91611e-12</wgt>
  <wgt id="869">2.52296e-20</wgt>
  <wgt id="870">4.69625e-13</wgt>
  <wgt id="871">1.18845e-12</wgt>
  <wgt id="872">4.97623e-12</wgt>
  <wgt id="873">9.87651e-13</wgt>
  <wgt id="874">3.00261e-12</wgt>
  <wgt id="875">3.85168e-13</wgt>
  <wgt id="876">4.45718e-12</wgt>
  <wgt id="877">2.99872e-12</wgt>
  <wgt id="878">7.83675e-13</wgt>
  <wgt id="879">4.32407e-12</wgt>
  <wgt id="880">4.28576e-12</wgt>
  <wgt id="881">5.06477e-12</wgt>
  <wgt id="882">5.05076e-12</wgt>
  <wgt id="883">4.47341e-12</wgt>
  <wgt id="884">4.05717e-12</wgt>
  <wgt id="885">4.76147e-12</wgt>
  <wgt id="886">3.65176e-12</wgt>
  <wgt id="887">4.87783e-12</wgt>
  <wgt id="888">4.54277e-12</wgt>
  <wgt id="889">4.67396e-12</wgt>
  <wgt id="890">4.20192e-12</wgt>
  <wgt id="891">4.26456e-12</wgt>
  <wgt id="892">4.9317e-12</wgt>
  <wgt id="893">4.57166e-12</wgt>
  <wgt id="894">4.52742e-12</wgt>
  <wgt id="895">4.04521e-12</wgt>
  <wgt id="896">6.92822e-12</wgt>
  <wgt id="897">5.12909e-12</wgt>
  <wgt id="898">3.64666e-12</wgt>
  <wgt id="899">3.75598e-12</wgt>
  <wgt id="900">3.36311e-12</wgt>
  <wgt id="901">2.9572e-12</wgt>
  <wgt id="902">3.52696e-12</wgt>
  <wgt id="903">3.62569e-12</wgt>
  <wgt id="904">4.37241e-12</wgt>
  <wgt id="905">3.8735e-12</wgt>
  <wgt id="906">6.30096e-12</wgt>
  <wgt id="907">5.08613e-12</wgt>
  <wgt id="908">4.84751e-12</wgt>
  <wgt id="909">3.60215e-12</wgt>
  <wgt id="910">3.8303e-12</wgt>
  <wgt id="911">3.75735e-12</wgt>
  <wgt id="912">3.93084e-12</wgt>
  <wgt id="913">2.49956e-12</wgt>
  <wgt id="914">5.03163e-12</wgt>
  <wgt id="915">3.93608e-12</wgt>
  <wgt id="916">4.70828e-12</wgt>
  <wgt id="917">3.38533e-12</wgt>
  <wgt id="918">3.78742e-12</wgt>
  <wgt id="919">4.01497e-12</wgt>
  <wgt id="920">3.14802e-12</wgt>
  <wgt id="921">4.42229e-12</wgt>
  <wgt id="922">4.01943e-12</wgt>
  <wgt id="923">4.68138e-12</wgt>
  <wgt id="924">3.47138e-12</wgt>
  <wgt id="925">2.43342e-12</wgt>
  <wgt id="926">5.4813e-12</wgt>
  <wgt id="927">4.94987e-12</wgt>
  <wgt id="928">4.65715e-12</wgt>
  <wgt id="929">4.24542e-12</wgt>
  <wgt id="930">4.503e-12</wgt>
  <wgt id="931">4.79012e-12</wgt>
  <wgt id="932">3.15484e-12</wgt>
  <wgt id="933">5.20608e-12</wgt>
  <wgt id="934">4.307e-12</wgt>
  <wgt id="935">5.3223e-12</wgt>
  <wgt id="936">3.77519e-12</wgt>
  <wgt id="937">4.56839e-12</wgt>
  <wgt id="938">3.95639e-12</wgt>
  <wgt id="939">3.69982e-12</wgt>
  <wgt id="940">2.86367e-12</wgt>
  <wgt id="941">3.94965e-12</wgt>
  <wgt id="942">4.33541e-12</wgt>
  <wgt id="943">5.79725e-12</wgt>
  <wgt id="944">5.1641e-12</wgt>
  <wgt id="945">3.47981e-12</wgt>
  <wgt id="946">3.82569e-12</wgt>
  <wgt id="947">4.02144e-12</wgt>
  <wgt id="948">5.21139e-12</wgt>
  <wgt id="949">5.42843e-12</wgt>
  <wgt id="950">3.26721e-12</wgt>
  <wgt id="951">4.00798e-12</wgt>
  <wgt id="952">4.76298e-12</wgt>
  <wgt id="953">4.92295e-12</wgt>
  <wgt id="954">4.47138e-12</wgt>
  <wgt id="955">3.67133e-12</wgt>
  <wgt id="956">3.57571e-12</wgt>
  <wgt id="957">4.54279e-12</wgt>
  <wgt id="958">3.97153e-12</wgt>
  <wgt id="959">3.98093e-12</wgt>
  <wgt id="960">3.40891e-12</wgt>
  <wgt id="961">4.17965e-12</wgt>
  <wgt id="962">4.68884e-12</wgt>
  <wgt id="963">3.7455e-12</wgt>
  <wgt id="964">5.27298e-12</wgt>
  <wgt id="965">5.35529e-12</wgt>
  <wgt id="966">5.13073e-12</wgt>
  <wgt id="967">5.04941e-12</wgt>
  <wgt id="968">4.57966e-12</wgt>
  <wgt id="969">4.68095e-12</wgt>
  <wgt id="970">4.6025e-12</wgt>
  <wgt id="971">3.66774e-12</wgt>
  <wgt id="972">4.46433e-12</wgt>
  <wgt id="973">3.26643e-12</wgt>
  <wgt id="974">6.00389e-12</wgt>
  <wgt id="975">4.03983e-12</wgt>
  <wgt id="976">4.62248e-12</wgt>
  <wgt id="977">3.15111e-12</wgt>
  <wgt id="978">4.70601e-12</wgt>
  <wgt id="979">6.05948e-12</wgt>
  <wgt id="980">4.27343e-12</wgt>
  <wgt id="981">4.6107e-12</wgt>
  <wgt id="982">4.29729e-12</wgt>
</rwgt>
</event>
<event>
 5   1  0.3028200E-11  0.2233285E+04  0.7818608E-02  0.7736447E-01
       21   -1    0    0  502  501  0.00000000000E+00  0.00000000000E+00  0.11846514080E+04  0.11846514080E+04  0.00000000000E+00 0.  1.
       21   -1    0    0  501  502 -0.00000000000E+00 -0.00000000000E+00 -0.10525382374E+04  0.10525382374E+04  0.00000000000E+00 0. -1.
       39    2    1    2    0    0  0.00000000000E+00  0.00000000000E+00  0.13211317059E+03  0.22371896454E+04  0.22332853870E+04 0.  0.
       25    1    3    3    0    0  0.81242365176E+03 -0.69552550445E+03  0.36234042775E+03  0.11360913268E+04  0.12500000000E+03 0.  0.
       25    1    3    3    0    0 -0.81242365176E+03  0.69552550445E+03 -0.23022725716E+03  0.11010983186E+04  0.12500000000E+03 0.  0.
<mgrwt>
<rscale>  0 0.22332854E+04</rscale>
<asrwt>0</asrwt>
<pdfrwt beam="1">  1       21 0.18225406E+00 0.22332854E+04</pdfrwt>
<pdfrwt beam="2">  1       21 0.16192896E+00 0.22332854E+04</pdfrwt>
<totfact> 0.17121303E+01</totfact>
</mgrwt>
<rwgt>
  <wgt id="1">3.0282e-12</wgt>
  <wgt id="2">2.64222e-12</wgt>
  <wgt id="3">3.50619e-12</wgt>
  <wgt id="4">3.0282e-12</wgt>
  <wgt id="5">2.64222e-12</wgt>
  <wgt id="6">3.50619e-12</wgt>
  <wgt id="7">3.0282e-12</wgt>
  <wgt id="8">2.64222e-12</wgt>
  <wgt id="9">3.50619e-12</wgt>
  <wgt id="10">3.11763e-12</wgt>
  <wgt id="11">3.11432e-12</wgt>
  <wgt id="12">3.11141e-12</wgt>
  <wgt id="13">3.10677e-12</wgt>
  <wgt id="14">3.12881e-12</wgt>
  <wgt id="15">3.12197e-12</wgt>
  <wgt id="16">3.11052e-12</wgt>
  <wgt id="17">3.12207e-12</wgt>
  <wgt id="18">3.11302e-12</wgt>
  <wgt id="19">3.12428e-12</wgt>
  <wgt id="20">3.108e-12</wgt>
  <wgt id="21">3.10164e-12</wgt>
  <wgt id="22">3.10894e-12</wgt>
  <wgt id="23">3.09191e-12</wgt>
  <wgt id="24">3.10462e-12</wgt>
  <wgt id="25">3.11024e-12</wgt>
  <wgt id="26">3.13113e-12</wgt>
  <wgt id="27">3.11767e-12</wgt>
  <wgt id="28">3.10327e-12</wgt>
  <wgt id="29">3.12104e-12</wgt>
  <wgt id="30">3.11119e-12</wgt>
  <wgt id="31">3.12509e-12</wgt>
  <wgt id="32">3.11234e-12</wgt>
  <wgt id="33">3.12477e-12</wgt>
  <wgt id="34">3.10914e-12</wgt>
  <wgt id="35">3.11525e-12</wgt>
  <wgt id="36">3.12532e-12</wgt>
  <wgt id="37">3.10974e-12</wgt>
  <wgt id="38">3.1098e-12</wgt>
  <wgt id="39">3.148e-12</wgt>
  <wgt id="40">3.12578e-12</wgt>
  <wgt id="41">3.11708e-12</wgt>
  <wgt id="42">3.12749e-12</wgt>
  <wgt id="43">3.12044e-12</wgt>
  <wgt id="44">3.10412e-12</wgt>
  <wgt id="45">3.12304e-12</wgt>
  <wgt id="46">3.12236e-12</wgt>
  <wgt id="47">3.10256e-12</wgt>
  <wgt id="48">3.11792e-12</wgt>
  <wgt id="49">3.13075e-12</wgt>
  <wgt id="50">3.13966e-12</wgt>
  <wgt id="51">3.13254e-12</wgt>
  <wgt id="52">3.10646e-12</wgt>
  <wgt id="53">3.0969e-12</wgt>
  <wgt id="54">3.1106e-12</wgt>
  <wgt id="55">3.11689e-12</wgt>
  <wgt id="56">3.12676e-12</wgt>
  <wgt id="57">3.12866e-12</wgt>
  <wgt id="58">3.0951e-12</wgt>
  <wgt id="59">3.10672e-12</wgt>
  <wgt id="60">3.1179e-12</wgt>
  <wgt id="61">3.1154e-12</wgt>
  <wgt id="62">3.11881e-12</wgt>
  <wgt id="63">3.12278e-12</wgt>
  <wgt id="64">3.12144e-12</wgt>
  <wgt id="65">3.12001e-12</wgt>
  <wgt id="66">3.11384e-12</wgt>
  <wgt id="67">3.11543e-12</wgt>
  <wgt id="68">3.1142e-12</wgt>
  <wgt id="69">3.11635e-12</wgt>
  <wgt id="70">3.11493e-12</wgt>
  <wgt id="71">3.11595e-12</wgt>
  <wgt id="72">3.11481e-12</wgt>
  <wgt id="73">3.12001e-12</wgt>
  <wgt id="74">3.11941e-12</wgt>
  <wgt id="75">3.11777e-12</wgt>
  <wgt id="76">3.12569e-12</wgt>
  <wgt id="77">3.11717e-12</wgt>
  <wgt id="78">3.11861e-12</wgt>
  <wgt id="79">3.12241e-12</wgt>
  <wgt id="80">3.10525e-12</wgt>
  <wgt id="81">3.11366e-12</wgt>
  <wgt id="82">3.1177e-12</wgt>
  <wgt id="83">3.10698e-12</wgt>
  <wgt id="84">3.11108e-12</wgt>
  <wgt id="85">3.11329e-12</wgt>
  <wgt id="86">3.12307e-12</wgt>
  <wgt id="87">3.10438e-12</wgt>
  <wgt id="88">3.12089e-12</wgt>
  <wgt id="89">3.12025e-12</wgt>
  <wgt id="90">3.12078e-12</wgt>
  <wgt id="91">3.11942e-12</wgt>
  <wgt id="92">3.12275e-12</wgt>
  <wgt id="93">3.11697e-12</wgt>
  <wgt id="94">3.11531e-12</wgt>
  <wgt id="95">3.11901e-12</wgt>
  <wgt id="96">3.11958e-12</wgt>
  <wgt id="97">3.11428e-12</wgt>
  <wgt id="98">3.11916e-12</wgt>
  <wgt id="99">3.11692e-12</wgt>
  <wgt id="100">3.12063e-12</wgt>
  <wgt id="101">3.11655e-12</wgt>
  <wgt id="102">3.11479e-12</wgt>
  <wgt id="103">3.12145e-12</wgt>
  <wgt id="104">3.11513e-12</wgt>
  <wgt id="105">3.11988e-12</wgt>
  <wgt id="106">3.11434e-12</wgt>
  <wgt id="107">3.1248e-12</wgt>
  <wgt id="108">3.11489e-12</wgt>
  <wgt id="109">3.11922e-12</wgt>
  <wgt id="110">3.11684e-12</wgt>
  <wgt id="111">3.15415e-12</wgt>
  <wgt id="112">3.10973e-12</wgt>
  <wgt id="113">4.12195e-12</wgt>
  <wgt id="114">4.29308e-12</wgt>
  <wgt id="115">4.23574e-12</wgt>
  <wgt id="116">5.84583e-12</wgt>
  <wgt id="117">3.44397e-12</wgt>
  <wgt id="118">3.45538e-12</wgt>
  <wgt id="119">3.43759e-12</wgt>
  <wgt id="120">3.44435e-12</wgt>
  <wgt id="121">3.44372e-12</wgt>
  <wgt id="122">3.43785e-12</wgt>
  <wgt id="123">3.45251e-12</wgt>
  <wgt id="124">3.43905e-12</wgt>
  <wgt id="125">3.44731e-12</wgt>
  <wgt id="126">3.45003e-12</wgt>
  <wgt id="127">3.44001e-12</wgt>
  <wgt id="128">3.45485e-12</wgt>
  <wgt id="129">3.4332e-12</wgt>
  <wgt id="130">3.46404e-12</wgt>
  <wgt id="131">3.42346e-12</wgt>
  <wgt id="132">3.35664e-12</wgt>
  <wgt id="133">3.54695e-12</wgt>
  <wgt id="134">3.40812e-12</wgt>
  <wgt id="135">3.47196e-12</wgt>
  <wgt id="136">3.4859e-12</wgt>
  <wgt id="137">3.39323e-12</wgt>
  <wgt id="138">3.57115e-12</wgt>
  <wgt id="139">3.32052e-12</wgt>
  <wgt id="140">3.42037e-12</wgt>
  <wgt id="141">3.46253e-12</wgt>
  <wgt id="142">3.44461e-12</wgt>
  <wgt id="143">3.44799e-12</wgt>
  <wgt id="144">3.35832e-12</wgt>
  <wgt id="145">3.5226e-12</wgt>
  <wgt id="146">3.47124e-12</wgt>
  <wgt id="147">3.42272e-12</wgt>
  <wgt id="148">3.45398e-12</wgt>
  <wgt id="149">3.44334e-12</wgt>
  <wgt id="150">3.47334e-12</wgt>
  <wgt id="151">3.43028e-12</wgt>
  <wgt id="152">3.44544e-12</wgt>
  <wgt id="153">3.44346e-12</wgt>
  <wgt id="154">3.47453e-12</wgt>
  <wgt id="155">3.40825e-12</wgt>
  <wgt id="156">3.50192e-12</wgt>
  <wgt id="157">3.37983e-12</wgt>
  <wgt id="158">4.14436e-12</wgt>
  <wgt id="159">4.16152e-12</wgt>
  <wgt id="160">4.13051e-12</wgt>
  <wgt id="161">4.13435e-12</wgt>
  <wgt id="162">4.15553e-12</wgt>
  <wgt id="163">4.14016e-12</wgt>
  <wgt id="164">4.15078e-12</wgt>
  <wgt id="165">4.14602e-12</wgt>
  <wgt id="166">4.14327e-12</wgt>
  <wgt id="167">4.14136e-12</wgt>
  <wgt id="168">4.14868e-12</wgt>
  <wgt id="169">4.12661e-12</wgt>
  <wgt id="170">4.15563e-12</wgt>
  <wgt id="171">4.13992e-12</wgt>
  <wgt id="172">4.15071e-12</wgt>
  <wgt id="173">4.14512e-12</wgt>
  <wgt id="174">4.14397e-12</wgt>
  <wgt id="175">4.03129e-12</wgt>
  <wgt id="176">4.2914e-12</wgt>
  <wgt id="177">4.16572e-12</wgt>
  <wgt id="178">4.1246e-12</wgt>
  <wgt id="179">4.30842e-12</wgt>
  <wgt id="180">3.88442e-12</wgt>
  <wgt id="181">4.02942e-12</wgt>
  <wgt id="182">4.22012e-12</wgt>
  <wgt id="183">4.07403e-12</wgt>
  <wgt id="184">4.17942e-12</wgt>
  <wgt id="185">4.11281e-12</wgt>
  <wgt id="186">4.18198e-12</wgt>
  <wgt id="187">4.10872e-12</wgt>
  <wgt id="188">4.20895e-12</wgt>
  <wgt id="189">4.11939e-12</wgt>
  <wgt id="190">4.15471e-12</wgt>
  <wgt id="191">4.15502e-12</wgt>
  <wgt id="192">4.13817e-12</wgt>
  <wgt id="193">4.20017e-12</wgt>
  <wgt id="194">4.11685e-12</wgt>
  <wgt id="195">4.05625e-12</wgt>
  <wgt id="196">4.30855e-12</wgt>
  <wgt id="197">4.1642e-12</wgt>
  <wgt id="198">4.13973e-12</wgt>
  <wgt id="199">4.14436e-12</wgt>
  <wgt id="200">4.17853e-12</wgt>
  <wgt id="201">4.16578e-12</wgt>
  <wgt id="202">4.15367e-12</wgt>
  <wgt id="203">4.13508e-12</wgt>
  <wgt id="204">4.12633e-12</wgt>
  <wgt id="205">4.11913e-12</wgt>
  <wgt id="206">4.02852e-12</wgt>
  <wgt id="207">4.05186e-12</wgt>
  <wgt id="208">4.00548e-12</wgt>
  <wgt id="209">4.04003e-12</wgt>
  <wgt id="210">4.02009e-12</wgt>
  <wgt id="211">4.02726e-12</wgt>
  <wgt id="212">4.02962e-12</wgt>
  <wgt id="213">4.02816e-12</wgt>
  <wgt id="214">4.02914e-12</wgt>
  <wgt id="215">4.03128e-12</wgt>
  <wgt id="216">4.0266e-12</wgt>
  <wgt id="217">4.03994e-12</wgt>
  <wgt id="218">4.01984e-12</wgt>
  <wgt id="219">4.02385e-12</wgt>
  <wgt id="220">4.03135e-12</wgt>
  <wgt id="221">4.02651e-12</wgt>
  <wgt id="222">4.03341e-12</wgt>
  <wgt id="223">3.82305e-12</wgt>
  <wgt id="224">4.21531e-12</wgt>
  <wgt id="225">3.98246e-12</wgt>
  <wgt id="226">4.08631e-12</wgt>
  <wgt id="227">3.99178e-12</wgt>
  <wgt id="228">4.04466e-12</wgt>
  <wgt id="229">3.97424e-12</wgt>
  <wgt id="230">4.05556e-12</wgt>
  <wgt id="231">4.13821e-12</wgt>
  <wgt id="232">3.93828e-12</wgt>
  <wgt id="233">4.00867e-12</wgt>
  <wgt id="234">4.05883e-12</wgt>
  <wgt id="235">3.96254e-12</wgt>
  <wgt id="236">4.0941e-12</wgt>
  <wgt id="237">3.9809e-12</wgt>
  <wgt id="238">4.045e-12</wgt>
  <wgt id="239">4.0074e-12</wgt>
  <wgt id="240">4.06702e-12</wgt>
  <wgt id="241">3.99006e-12</wgt>
  <wgt id="242">4.07499e-12</wgt>
  <wgt id="243">4.06997e-12</wgt>
  <wgt id="244">4.05459e-12</wgt>
  <wgt id="245">4.02532e-12</wgt>
  <wgt id="246">4.05985e-12</wgt>
  <wgt id="247">4.02852e-12</wgt>
  <wgt id="248">4.06166e-12</wgt>
  <wgt id="249">4.04879e-12</wgt>
  <wgt id="250">4.03707e-12</wgt>
  <wgt id="251">4.01905e-12</wgt>
  <wgt id="252">4.0107e-12</wgt>
  <wgt id="253">4.00456e-12</wgt>
  <wgt id="254">3.95016e-12</wgt>
  <wgt id="255">3.95407e-12</wgt>
  <wgt id="256">3.94602e-12</wgt>
  <wgt id="257">3.95319e-12</wgt>
  <wgt id="258">3.94792e-12</wgt>
  <wgt id="259">3.97656e-12</wgt>
  <wgt id="260">3.92483e-12</wgt>
  <wgt id="261">3.95496e-12</wgt>
  <wgt id="262">3.94454e-12</wgt>
  <wgt id="263">3.94872e-12</wgt>
  <wgt id="264">3.95189e-12</wgt>
  <wgt id="265">3.94588e-12</wgt>
  <wgt id="266">3.95855e-12</wgt>
  <wgt id="267">3.95143e-12</wgt>
  <wgt id="268">3.94858e-12</wgt>
  <wgt id="269">3.96212e-12</wgt>
  <wgt id="270">3.94206e-12</wgt>
  <wgt id="271">3.94393e-12</wgt>
  <wgt id="272">3.95728e-12</wgt>
  <wgt id="273">3.93816e-12</wgt>
  <wgt id="274">3.95941e-12</wgt>
  <wgt id="275">3.93543e-12</wgt>
  <wgt id="276">3.96532e-12</wgt>
  <wgt id="277">3.92848e-12</wgt>
  <wgt id="278">3.97012e-12</wgt>
  <wgt id="279">3.87682e-12</wgt>
  <wgt id="280">4.0419e-12</wgt>
  <wgt id="281">3.93378e-12</wgt>
  <wgt id="282">3.95046e-12</wgt>
  <wgt id="283">3.84363e-12</wgt>
  <wgt id="284">4.08097e-12</wgt>
  <wgt id="285">3.77259e-12</wgt>
  <wgt id="286">4.09605e-12</wgt>
  <wgt id="287">3.96177e-12</wgt>
  <wgt id="288">3.93523e-12</wgt>
  <wgt id="289">3.97602e-12</wgt>
  <wgt id="290">3.88893e-12</wgt>
  <wgt id="291">3.94092e-12</wgt>
  <wgt id="292">3.95245e-12</wgt>
  <wgt id="293">3.92168e-12</wgt>
  <wgt id="294">3.97845e-12</wgt>
  <wgt id="295">3.8796e-12</wgt>
  <wgt id="296">4.03615e-12</wgt>
  <wgt id="297">3.95207e-12</wgt>
  <wgt id="298">3.96277e-12</wgt>
  <wgt id="299">3.93821e-12</wgt>
  <wgt id="300">3.9816e-12</wgt>
  <wgt id="301">3.90555e-12</wgt>
  <wgt id="302">4.07022e-12</wgt>
  <wgt id="303">3.92496e-12</wgt>
  <wgt id="304">3.96499e-12</wgt>
  <wgt id="305">3.97122e-12</wgt>
  <wgt id="306">3.97538e-12</wgt>
  <wgt id="307">3.96699e-12</wgt>
  <wgt id="308">3.97474e-12</wgt>
  <wgt id="309">3.96893e-12</wgt>
  <wgt id="310">3.99865e-12</wgt>
  <wgt id="311">3.94597e-12</wgt>
  <wgt id="312">3.97489e-12</wgt>
  <wgt id="313">3.96781e-12</wgt>
  <wgt id="314">3.96996e-12</wgt>
  <wgt id="315">3.97267e-12</wgt>
  <wgt id="316">3.96723e-12</wgt>
  <wgt id="317">3.98013e-12</wgt>
  <wgt id="318">3.974e-12</wgt>
  <wgt id="319">3.9668e-12</wgt>
  <wgt id="320">3.98374e-12</wgt>
  <wgt id="321">3.96434e-12</wgt>
  <wgt id="322">3.96277e-12</wgt>
  <wgt id="323">3.98131e-12</wgt>
  <wgt id="324">3.96129e-12</wgt>
  <wgt id="325">3.9801e-12</wgt>
  <wgt id="326">3.95949e-12</wgt>
  <wgt id="327">3.98639e-12</wgt>
  <wgt id="328">3.95156e-12</wgt>
  <wgt id="329">3.98256e-12</wgt>
  <wgt id="330">4.0851e-12</wgt>
  <wgt id="331">3.86258e-12</wgt>
  <wgt id="332">3.95766e-12</wgt>
  <wgt id="333">3.97107e-12</wgt>
  <wgt id="334">3.88697e-12</wgt>
  <wgt id="335">4.0756e-12</wgt>
  <wgt id="336">3.84175e-12</wgt>
  <wgt id="337">4.12794e-12</wgt>
  <wgt id="338">4.01277e-12</wgt>
  <wgt id="339">3.93284e-12</wgt>
  <wgt id="340">3.99612e-12</wgt>
  <wgt id="341">3.90682e-12</wgt>
  <wgt id="342">3.96499e-12</wgt>
  <wgt id="343">3.96794e-12</wgt>
  <wgt id="344">3.94528e-12</wgt>
  <wgt id="345">4.00154e-12</wgt>
  <wgt id="346">3.89777e-12</wgt>
  <wgt id="347">4.05609e-12</wgt>
  <wgt id="348">3.97512e-12</wgt>
  <wgt id="349">3.98112e-12</wgt>
  <wgt id="350">3.95621e-12</wgt>
  <wgt id="351">4.00971e-12</wgt>
  <wgt id="352">3.92107e-12</wgt>
  <wgt id="353">4.09889e-12</wgt>
  <wgt id="354">3.932e-12</wgt>
  <wgt id="355">3.99574e-12</wgt>
  <wgt id="356">3.95016e-12</wgt>
  <wgt id="357">3.99017e-12</wgt>
  <wgt id="358">3.97122e-12</wgt>
  <wgt id="359">3.96659e-12</wgt>
  <wgt id="360">3.96808e-12</wgt>
  <wgt id="361">3.96077e-12</wgt>
  <wgt id="362">4.02524e-12</wgt>
  <wgt id="363">4.01603e-12</wgt>
  <wgt id="364">4.0038e-12</wgt>
  <wgt id="365">3.9911e-12</wgt>
  <wgt id="366">3.97671e-12</wgt>
  <wgt id="367">3.94639e-12</wgt>
  <wgt id="368">3.93013e-12</wgt>
  <wgt id="369">3.9125e-12</wgt>
  <wgt id="370">3.96077e-12</wgt>
  <wgt id="371">3.9784e-12</wgt>
  <wgt id="372">3.96874e-12</wgt>
  <wgt id="373">3.9543e-12</wgt>
  <wgt id="374">3.95192e-12</wgt>
  <wgt id="375">4.17972e-12</wgt>
  <wgt id="376">4.18029e-12</wgt>
  <wgt id="377">4.17904e-12</wgt>
  <wgt id="378">4.19463e-12</wgt>
  <wgt id="379">4.16485e-12</wgt>
  <wgt id="380">4.19098e-12</wgt>
  <wgt id="381">4.17513e-12</wgt>
  <wgt id="382">4.2005e-12</wgt>
  <wgt id="383">4.15905e-12</wgt>
  <wgt id="384">4.18242e-12</wgt>
  <wgt id="385">4.17707e-12</wgt>
  <wgt id="386">4.19581e-12</wgt>
  <wgt id="387">4.17267e-12</wgt>
  <wgt id="388">4.17584e-12</wgt>
  <wgt id="389">4.18431e-12</wgt>
  <wgt id="390">4.19072e-12</wgt>
  <wgt id="391">4.16807e-12</wgt>
  <wgt id="392">4.15051e-12</wgt>
  <wgt id="393">4.19617e-12</wgt>
  <wgt id="394">4.1857e-12</wgt>
  <wgt id="395">4.17124e-12</wgt>
  <wgt id="396">4.18103e-12</wgt>
  <wgt id="397">4.17868e-12</wgt>
  <wgt id="398">4.16173e-12</wgt>
  <wgt id="399">4.19706e-12</wgt>
  <wgt id="400">4.17295e-12</wgt>
  <wgt id="401">4.19477e-12</wgt>
  <wgt id="402">4.14776e-12</wgt>
  <wgt id="403">4.19252e-12</wgt>
  <wgt id="404">4.26897e-12</wgt>
  <wgt id="405">3.96367e-12</wgt>
  <wgt id="406">4.11552e-12</wgt>
  <wgt id="407">4.31804e-12</wgt>
  <wgt id="408">4.21265e-12</wgt>
  <wgt id="409">4.11619e-12</wgt>
  <wgt id="410">4.07385e-12</wgt>
  <wgt id="411">4.22798e-12</wgt>
  <wgt id="412">4.17297e-12</wgt>
  <wgt id="413">4.18904e-12</wgt>
  <wgt id="414">4.13748e-12</wgt>
  <wgt id="415">4.2124e-12</wgt>
  <wgt id="416">4.27934e-12</wgt>
  <wgt id="417">4.04179e-12</wgt>
  <wgt id="418">4.18468e-12</wgt>
  <wgt id="419">4.15263e-12</wgt>
  <wgt id="420">4.22922e-12</wgt>
  <wgt id="421">4.15383e-12</wgt>
  <wgt id="422">4.17793e-12</wgt>
  <wgt id="423">4.18159e-12</wgt>
  <wgt id="424">4.25166e-12</wgt>
  <wgt id="425">4.13584e-12</wgt>
  <wgt id="426">4.17972e-12</wgt>
  <wgt id="427">4.15109e-12</wgt>
  <wgt id="428">4.27015e-12</wgt>
  <wgt id="429">4.21198e-12</wgt>
  <wgt id="430">4.32249e-12</wgt>
  <wgt id="431">4.3006e-12</wgt>
  <wgt id="432">4.27955e-12</wgt>
  <wgt id="433">4.25917e-12</wgt>
  <wgt id="434">4.23493e-12</wgt>
  <wgt id="435">4.18322e-12</wgt>
  <wgt id="436">4.15647e-12</wgt>
  <wgt id="437">4.13132e-12</wgt>
  <wgt id="438">4.21198e-12</wgt>
  <wgt id="439">4.22586e-12</wgt>
  <wgt id="440">4.21784e-12</wgt>
  <wgt id="441">4.20761e-12</wgt>
  <wgt id="442">4.20374e-12</wgt>
  <wgt id="443">4.12271e-12</wgt>
  <wgt id="444">4.14101e-12</wgt>
  <wgt id="445">4.10454e-12</wgt>
  <wgt id="446">4.09807e-12</wgt>
  <wgt id="447">4.10753e-12</wgt>
  <wgt id="448">4.01994e-12</wgt>
  <wgt id="449">4.18108e-12</wgt>
  <wgt id="450">4.10285e-12</wgt>
  <wgt id="451">4.1171e-12</wgt>
  <wgt id="452">4.20803e-12</wgt>
  <wgt id="453">4.15633e-12</wgt>
  <wgt id="454">3.96838e-12</wgt>
  <wgt id="455">4.12629e-12</wgt>
  <wgt id="456">4.06143e-12</wgt>
  <wgt id="457">4.13812e-12</wgt>
  <wgt id="458">4.16504e-12</wgt>
  <wgt id="459">4.14734e-12</wgt>
  <wgt id="460">4.14202e-12</wgt>
  <wgt id="461">4.05676e-12</wgt>
  <wgt id="462">4.0926e-12</wgt>
  <wgt id="463">4.08377e-12</wgt>
  <wgt id="464">4.10229e-12</wgt>
  <wgt id="465">4.16062e-12</wgt>
  <wgt id="466">4.08239e-12</wgt>
  <wgt id="467">4.08703e-12</wgt>
  <wgt id="468">4.11247e-12</wgt>
  <wgt id="469">4.11249e-12</wgt>
  <wgt id="470">4.09021e-12</wgt>
  <wgt id="471">4.09118e-12</wgt>
  <wgt id="472">4.13937e-12</wgt>
  <wgt id="473">4.00394e-12</wgt>
  <wgt id="474">3.0282e-12</wgt>
  <wgt id="475">3.22844e-12</wgt>
  <wgt id="476">2.96476e-12</wgt>
  <wgt id="477">2.96407e-12</wgt>
  <wgt id="478">3.04322e-12</wgt>
  <wgt id="479">2.98748e-12</wgt>
  <wgt id="480">3.12095e-12</wgt>
  <wgt id="481">2.94859e-12</wgt>
  <wgt id="482">2.90173e-12</wgt>
  <wgt id="483">2.94983e-12</wgt>
  <wgt id="484">3.25923e-12</wgt>
  <wgt id="485">3.0432e-12</wgt>
  <wgt id="486">3.07587e-12</wgt>
  <wgt id="487">3.08069e-12</wgt>
  <wgt id="488">3.06276e-12</wgt>
  <wgt id="489">2.93051e-12</wgt>
  <wgt id="490">2.94171e-12</wgt>
  <wgt id="491">2.99241e-12</wgt>
  <wgt id="492">2.93025e-12</wgt>
  <wgt id="493">2.92542e-12</wgt>
  <wgt id="494">2.93895e-12</wgt>
  <wgt id="495">3.09113e-12</wgt>
  <wgt id="496">2.92523e-12</wgt>
  <wgt id="497">2.92014e-12</wgt>
  <wgt id="498">3.05976e-12</wgt>
  <wgt id="499">2.94709e-12</wgt>
  <wgt id="500">2.97836e-12</wgt>
  <wgt id="501">3.1593e-12</wgt>
  <wgt id="502">2.94037e-12</wgt>
  <wgt id="503">3.01757e-12</wgt>
  <wgt id="504">3.02979e-12</wgt>
  <wgt id="505">3.07694e-12</wgt>
  <wgt id="506">3.0817e-12</wgt>
  <wgt id="507">2.99081e-12</wgt>
  <wgt id="508">3.06848e-12</wgt>
  <wgt id="509">3.02024e-12</wgt>
  <wgt id="510">3.09978e-12</wgt>
  <wgt id="511">2.96832e-12</wgt>
  <wgt id="512">3.05916e-12</wgt>
  <wgt id="513">3.14335e-12</wgt>
  <wgt id="514">2.99725e-12</wgt>
  <wgt id="515">2.98693e-12</wgt>
  <wgt id="516">3.09911e-12</wgt>
  <wgt id="517">3.09288e-12</wgt>
  <wgt id="518">3.10299e-12</wgt>
  <wgt id="519">2.95536e-12</wgt>
  <wgt id="520">3.03997e-12</wgt>
  <wgt id="521">3.13944e-12</wgt>
  <wgt id="522">3.13862e-12</wgt>
  <wgt id="523">3.10163e-12</wgt>
  <wgt id="524">3.09364e-12</wgt>
  <wgt id="525">3.10603e-12</wgt>
  <wgt id="526">3.02293e-12</wgt>
  <wgt id="527">3.08406e-12</wgt>
  <wgt id="528">3.02795e-12</wgt>
  <wgt id="529">2.98591e-12</wgt>
  <wgt id="530">3.04087e-12</wgt>
  <wgt id="531">2.99302e-12</wgt>
  <wgt id="532">3.18342e-12</wgt>
  <wgt id="533">2.84188e-12</wgt>
  <wgt id="534">3.03626e-12</wgt>
  <wgt id="535">3.08819e-12</wgt>
  <wgt id="536">3.03308e-12</wgt>
  <wgt id="537">3.04047e-12</wgt>
  <wgt id="538">3.07682e-12</wgt>
  <wgt id="539">2.96121e-12</wgt>
  <wgt id="540">2.98978e-12</wgt>
  <wgt id="541">2.97781e-12</wgt>
  <wgt id="542">2.96098e-12</wgt>
  <wgt id="543">3.02334e-12</wgt>
  <wgt id="544">3.17599e-12</wgt>
  <wgt id="545">2.991e-12</wgt>
  <wgt id="546">3.00298e-12</wgt>
  <wgt id="547">2.9352e-12</wgt>
  <wgt id="548">2.90503e-12</wgt>
  <wgt id="549">2.98049e-12</wgt>
  <wgt id="550">3.04719e-12</wgt>
  <wgt id="551">3.0608e-12</wgt>
  <wgt id="552">3.00877e-12</wgt>
  <wgt id="553">3.02317e-12</wgt>
  <wgt id="554">3.25419e-12</wgt>
  <wgt id="555">3.10926e-12</wgt>
  <wgt id="556">2.94171e-12</wgt>
  <wgt id="557">3.06978e-12</wgt>
  <wgt id="558">2.92643e-12</wgt>
  <wgt id="559">2.99468e-12</wgt>
  <wgt id="560">3.26227e-12</wgt>
  <wgt id="561">2.95602e-12</wgt>
  <wgt id="562">3.06293e-12</wgt>
  <wgt id="563">2.94206e-12</wgt>
  <wgt id="564">3.01672e-12</wgt>
  <wgt id="565">2.92434e-12</wgt>
  <wgt id="566">3.06175e-12</wgt>
  <wgt id="567">2.9796e-12</wgt>
  <wgt id="568">3.02769e-12</wgt>
  <wgt id="569">3.0596e-12</wgt>
  <wgt id="570">2.9581e-12</wgt>
  <wgt id="571">3.34818e-12</wgt>
  <wgt id="572">2.95856e-12</wgt>
  <wgt id="573">2.88979e-12</wgt>
  <wgt id="574">2.91972e-12</wgt>
  <wgt id="575">3.31859e-12</wgt>
  <wgt id="576">3.26062e-12</wgt>
  <wgt id="577">3.43108e-12</wgt>
  <wgt id="578">3.38016e-12</wgt>
  <wgt id="579">3.34918e-12</wgt>
  <wgt id="580">3.36361e-12</wgt>
  <wgt id="581">3.50967e-12</wgt>
  <wgt id="582">3.25023e-12</wgt>
  <wgt id="583">3.35174e-12</wgt>
  <wgt id="584">3.32346e-12</wgt>
  <wgt id="585">3.35476e-12</wgt>
  <wgt id="586">3.24735e-12</wgt>
  <wgt id="587">3.3561e-12</wgt>
  <wgt id="588">3.29435e-12</wgt>
  <wgt id="589">3.3535e-12</wgt>
  <wgt id="590">3.3767e-12</wgt>
  <wgt id="591">3.44908e-12</wgt>
  <wgt id="592">3.26943e-12</wgt>
  <wgt id="593">3.30451e-12</wgt>
  <wgt id="594">3.45029e-12</wgt>
  <wgt id="595">3.29261e-12</wgt>
  <wgt id="596">3.35455e-12</wgt>
  <wgt id="597">3.19474e-12</wgt>
  <wgt id="598">3.28697e-12</wgt>
  <wgt id="599">3.49778e-12</wgt>
  <wgt id="600">3.28196e-12</wgt>
  <wgt id="601">3.22514e-12</wgt>
  <wgt id="602">3.26221e-12</wgt>
  <wgt id="603">3.27613e-12</wgt>
  <wgt id="604">3.36094e-12</wgt>
  <wgt id="605">3.45364e-12</wgt>
  <wgt id="606">3.2295e-12</wgt>
  <wgt id="607">3.26745e-12</wgt>
  <wgt id="608">3.30753e-12</wgt>
  <wgt id="609">3.1216e-12</wgt>
  <wgt id="610">3.18935e-12</wgt>
  <wgt id="611">3.37415e-12</wgt>
  <wgt id="612">3.56013e-12</wgt>
  <wgt id="613">3.32414e-12</wgt>
  <wgt id="614">3.36364e-12</wgt>
  <wgt id="615">3.2485e-12</wgt>
  <wgt id="616">3.53862e-12</wgt>
  <wgt id="617">3.43967e-12</wgt>
  <wgt id="618">3.29912e-12</wgt>
  <wgt id="619">3.29782e-12</wgt>
  <wgt id="620">3.43783e-12</wgt>
  <wgt id="621">3.37313e-12</wgt>
  <wgt id="622">3.3561e-12</wgt>
  <wgt id="623">3.40516e-12</wgt>
  <wgt id="624">3.29781e-12</wgt>
  <wgt id="625">3.28423e-12</wgt>
  <wgt id="626">3.25287e-12</wgt>
  <wgt id="627">3.20324e-12</wgt>
  <wgt id="628">3.51048e-12</wgt>
  <wgt id="629">3.24306e-12</wgt>
  <wgt id="630">3.22505e-12</wgt>
  <wgt id="631">3.32035e-12</wgt>
  <wgt id="632">3.22898e-12</wgt>
  <wgt id="633">3.2749e-12</wgt>
  <wgt id="634">3.33784e-12</wgt>
  <wgt id="635">3.29414e-12</wgt>
  <wgt id="636">3.33545e-12</wgt>
  <wgt id="637">3.32309e-12</wgt>
  <wgt id="638">3.20034e-12</wgt>
  <wgt id="639">3.28338e-12</wgt>
  <wgt id="640">3.32582e-12</wgt>
  <wgt id="641">3.3207e-12</wgt>
  <wgt id="642">3.25201e-12</wgt>
  <wgt id="643">3.30668e-12</wgt>
  <wgt id="644">3.22048e-12</wgt>
  <wgt id="645">3.34085e-12</wgt>
  <wgt id="646">3.39158e-12</wgt>
  <wgt id="647">3.26487e-12</wgt>
  <wgt id="648">3.328e-12</wgt>
  <wgt id="649">3.37124e-12</wgt>
  <wgt id="650">3.26222e-12</wgt>
  <wgt id="651">3.34234e-12</wgt>
  <wgt id="652">3.31388e-12</wgt>
  <wgt id="653">3.23311e-12</wgt>
  <wgt id="654">3.31008e-12</wgt>
  <wgt id="655">3.24951e-12</wgt>
  <wgt id="656">3.32133e-12</wgt>
  <wgt id="657">3.38745e-12</wgt>
  <wgt id="658">3.37169e-12</wgt>
  <wgt id="659">3.20053e-12</wgt>
  <wgt id="660">3.38431e-12</wgt>
  <wgt id="661">3.26864e-12</wgt>
  <wgt id="662">3.30907e-12</wgt>
  <wgt id="663">3.30779e-12</wgt>
  <wgt id="664">3.263e-12</wgt>
  <wgt id="665">3.3048e-12</wgt>
  <wgt id="666">3.30912e-12</wgt>
  <wgt id="667">3.41826e-12</wgt>
  <wgt id="668">3.30228e-12</wgt>
  <wgt id="669">3.40084e-12</wgt>
  <wgt id="670">3.35691e-12</wgt>
  <wgt id="671">3.26674e-12</wgt>
  <wgt id="672">3.17994e-12</wgt>
  <wgt id="673">3.30362e-12</wgt>
  <wgt id="674">3.25355e-12</wgt>
  <wgt id="675">3.25106e-12</wgt>
  <wgt id="676">4.12835e-12</wgt>
  <wgt id="677">4.1837e-12</wgt>
  <wgt id="678">4.31092e-12</wgt>
  <wgt id="679">3.91625e-12</wgt>
  <wgt id="680">3.98674e-12</wgt>
  <wgt id="681">4.25007e-12</wgt>
  <wgt id="682">4.19763e-12</wgt>
  <wgt id="683">4.09706e-12</wgt>
  <wgt id="684">4.30878e-12</wgt>
  <wgt id="685">3.9031e-12</wgt>
  <wgt id="686">4.14085e-12</wgt>
  <wgt id="687">4.31672e-12</wgt>
  <wgt id="688">4.118e-12</wgt>
  <wgt id="689">4.43941e-12</wgt>
  <wgt id="690">4.36239e-12</wgt>
  <wgt id="691">4.36432e-12</wgt>
  <wgt id="692">4.10953e-12</wgt>
  <wgt id="693">4.7461e-12</wgt>
  <wgt id="694">4.35574e-12</wgt>
  <wgt id="695">3.99678e-12</wgt>
  <wgt id="696">3.92225e-12</wgt>
  <wgt id="697">4.01727e-12</wgt>
  <wgt id="698">3.87649e-12</wgt>
  <wgt id="699">3.83175e-12</wgt>
  <wgt id="700">3.66714e-12</wgt>
  <wgt id="701">4.13986e-12</wgt>
  <wgt id="702">3.94855e-12</wgt>
  <wgt id="703">4.67097e-12</wgt>
  <wgt id="704">4.43189e-12</wgt>
  <wgt id="705">4.26782e-12</wgt>
  <wgt id="706">3.84824e-12</wgt>
  <wgt id="707">3.97487e-12</wgt>
  <wgt id="708">4.08268e-12</wgt>
  <wgt id="709">4.06305e-12</wgt>
  <wgt id="710">3.69986e-12</wgt>
  <wgt id="711">4.12218e-12</wgt>
  <wgt id="712">4.08137e-12</wgt>
  <wgt id="713">4.41992e-12</wgt>
  <wgt id="714">4.11547e-12</wgt>
  <wgt id="715">4.09012e-12</wgt>
  <wgt id="716">3.97811e-12</wgt>
  <wgt id="717">3.97735e-12</wgt>
  <wgt id="718">4.05778e-12</wgt>
  <wgt id="719">3.7805e-12</wgt>
  <wgt id="720">3.90382e-12</wgt>
  <wgt id="721">3.9174e-12</wgt>
  <wgt id="722">3.74111e-12</wgt>
  <wgt id="723">4.36035e-12</wgt>
  <wgt id="724">4.29022e-12</wgt>
  <wgt id="725">4.36384e-12</wgt>
  <wgt id="726">4.17722e-12</wgt>
  <wgt id="727">4.03229e-12</wgt>
  <wgt id="728">4.08711e-12</wgt>
  <wgt id="729">3.72631e-12</wgt>
  <wgt id="730">4.39583e-12</wgt>
  <wgt id="731">4.09103e-12</wgt>
  <wgt id="732">4.49265e-12</wgt>
  <wgt id="733">4.13811e-12</wgt>
  <wgt id="734">4.22484e-12</wgt>
  <wgt id="735">4.09874e-12</wgt>
  <wgt id="736">4.07944e-12</wgt>
  <wgt id="737">4.20052e-12</wgt>
  <wgt id="738">3.96244e-12</wgt>
  <wgt id="739">4.11661e-12</wgt>
  <wgt id="740">4.5555e-12</wgt>
  <wgt id="741">3.67198e-12</wgt>
  <wgt id="742">4.06549e-12</wgt>
  <wgt id="743">4.00369e-12</wgt>
  <wgt id="744">4.04852e-12</wgt>
  <wgt id="745">4.28337e-12</wgt>
  <wgt id="746">4.33387e-12</wgt>
  <wgt id="747">3.81559e-12</wgt>
  <wgt id="748">4.06531e-12</wgt>
  <wgt id="749">4.36177e-12</wgt>
  <wgt id="750">4.08695e-12</wgt>
  <wgt id="751">4.28159e-12</wgt>
  <wgt id="752">3.81594e-12</wgt>
  <wgt id="753">3.94616e-12</wgt>
  <wgt id="754">4.26506e-12</wgt>
  <wgt id="755">4.15652e-12</wgt>
  <wgt id="756">4.15747e-12</wgt>
  <wgt id="757">3.84381e-12</wgt>
  <wgt id="758">4.18609e-12</wgt>
  <wgt id="759">4.10379e-12</wgt>
  <wgt id="760">4.20772e-12</wgt>
  <wgt id="761">4.34184e-12</wgt>
  <wgt id="762">4.34747e-12</wgt>
  <wgt id="763">4.13492e-12</wgt>
  <wgt id="764">4.27335e-12</wgt>
  <wgt id="765">4.17923e-12</wgt>
  <wgt id="766">4.11368e-12</wgt>
  <wgt id="767">4.22561e-12</wgt>
  <wgt id="768">3.92979e-12</wgt>
  <wgt id="769">4.36209e-12</wgt>
  <wgt id="770">4.00287e-12</wgt>
  <wgt id="771">4.82479e-12</wgt>
  <wgt id="772">3.88637e-12</wgt>
  <wgt id="773">4.11183e-12</wgt>
  <wgt id="774">3.74536e-12</wgt>
  <wgt id="775">4.32647e-12</wgt>
  <wgt id="776">4.50732e-12</wgt>
  <wgt id="777">4.00216e-12</wgt>
  <wgt id="778">3.1023e-12</wgt>
  <wgt id="779">2.66008e-12</wgt>
  <wgt id="780">2.25357e-12</wgt>
  <wgt id="781">3.07491e-12</wgt>
  <wgt id="782">3.27952e-12</wgt>
  <wgt id="783">2.71061e-12</wgt>
  <wgt id="784">2.77001e-12</wgt>
  <wgt id="785">3.70117e-12</wgt>
  <wgt id="786">2.43611e-12</wgt>
  <wgt id="787">3.46356e-12</wgt>
  <wgt id="788">2.09592e-12</wgt>
  <wgt id="789">2.49378e-12</wgt>
  <wgt id="790">2.42884e-12</wgt>
  <wgt id="791">2.86699e-12</wgt>
  <wgt id="792">3.92966e-12</wgt>
  <wgt id="793">2.99249e-12</wgt>
  <wgt id="794">2.4772e-12</wgt>
  <wgt id="795">3.53452e-12</wgt>
  <wgt id="796">4.02053e-12</wgt>
  <wgt id="797">3.51216e-12</wgt>
  <wgt id="798">2.90987e-12</wgt>
  <wgt id="799">3.48317e-12</wgt>
  <wgt id="800">2.53021e-12</wgt>
  <wgt id="801">2.93503e-12</wgt>
  <wgt id="802">2.50133e-12</wgt>
  <wgt id="803">3.99343e-12</wgt>
  <wgt id="804">3.51064e-12</wgt>
  <wgt id="805">3.58332e-12</wgt>
  <wgt id="806">3.50971e-12</wgt>
  <wgt id="807">2.97854e-12</wgt>
  <wgt id="808">3.03673e-12</wgt>
  <wgt id="809">2.86482e-12</wgt>
  <wgt id="810">3.5482e-12</wgt>
  <wgt id="811">3.3701e-12</wgt>
  <wgt id="812">2.45389e-12</wgt>
  <wgt id="813">2.4869e-12</wgt>
  <wgt id="814">2.65032e-12</wgt>
  <wgt id="815">2.66965e-12</wgt>
  <wgt id="816">2.36067e-12</wgt>
  <wgt id="817">3.27394e-12</wgt>
  <wgt id="818">3.00685e-12</wgt>
  <wgt id="819">2.66699e-12</wgt>
  <wgt id="820">3.11816e-12</wgt>
  <wgt id="821">3.51476e-12</wgt>
  <wgt id="822">2.681e-12</wgt>
  <wgt id="823">3.51717e-12</wgt>
  <wgt id="824">4.11293e-12</wgt>
  <wgt id="825">2.38495e-12</wgt>
  <wgt id="826">3.21296e-12</wgt>
  <wgt id="827">2.00391e-12</wgt>
  <wgt id="828">3.96898e-12</wgt>
  <wgt id="829">3.20408e-12</wgt>
  <wgt id="830">2.2677e-12</wgt>
  <wgt id="831">3.30229e-12</wgt>
  <wgt id="832">4.95764e-12</wgt>
  <wgt id="833">2.94991e-12</wgt>
  <wgt id="834">4.62958e-12</wgt>
  <wgt id="835">2.54746e-12</wgt>
  <wgt id="836">3.13461e-12</wgt>
  <wgt id="837">3.47127e-12</wgt>
  <wgt id="838">2.99074e-12</wgt>
  <wgt id="839">3.28731e-12</wgt>
  <wgt id="840">2.9494e-12</wgt>
  <wgt id="841">3.71106e-12</wgt>
  <wgt id="842">2.84737e-12</wgt>
  <wgt id="843">3.01023e-12</wgt>
  <wgt id="844">3.20784e-12</wgt>
  <wgt id="845">4.16629e-12</wgt>
  <wgt id="846">2.84367e-12</wgt>
  <wgt id="847">3.07296e-12</wgt>
  <wgt id="848">2.76834e-12</wgt>
  <wgt id="849">3.16904e-12</wgt>
  <wgt id="850">3.92954e-12</wgt>
  <wgt id="851">3.37104e-12</wgt>
  <wgt id="852">2.74765e-12</wgt>
  <wgt id="853">3.35097e-12</wgt>
  <wgt id="854">3.70734e-12</wgt>
  <wgt id="855">3.52383e-12</wgt>
  <wgt id="856">2.32813e-12</wgt>
  <wgt id="857">3.14316e-12</wgt>
  <wgt id="858">3.09822e-12</wgt>
  <wgt id="859">2.89134e-12</wgt>
  <wgt id="860">3.25621e-12</wgt>
  <wgt id="861">2.79541e-12</wgt>
  <wgt id="862">3.1561e-12</wgt>
  <wgt id="863">3.23964e-12</wgt>
  <wgt id="864">3.26587e-12</wgt>
  <wgt id="865">4.32015e-12</wgt>
  <wgt id="866">4.71928e-12</wgt>
  <wgt id="867">3.13384e-12</wgt>
  <wgt id="868">3.05738e-12</wgt>
  <wgt id="869">2.48386e-12</wgt>
  <wgt id="870">2.60867e-12</wgt>
  <wgt id="871">2.5372e-12</wgt>
  <wgt id="872">3.60386e-12</wgt>
  <wgt id="873">2.58866e-12</wgt>
  <wgt id="874">3.23094e-12</wgt>
  <wgt id="875">2.72277e-12</wgt>
  <wgt id="876">3.61627e-12</wgt>
  <wgt id="877">3.50227e-12</wgt>
  <wgt id="878">2.73831e-12</wgt>
  <wgt id="879">4.12835e-12</wgt>
  <wgt id="880">4.1837e-12</wgt>
  <wgt id="881">4.31092e-12</wgt>
  <wgt id="882">3.91625e-12</wgt>
  <wgt id="883">3.98674e-12</wgt>
  <wgt id="884">4.25007e-12</wgt>
  <wgt id="885">4.19763e-12</wgt>
  <wgt id="886">4.09706e-12</wgt>
  <wgt id="887">4.30878e-12</wgt>
  <wgt id="888">3.9031e-12</wgt>
  <wgt id="889">4.14085e-12</wgt>
  <wgt id="890">4.31672e-12</wgt>
  <wgt id="891">4.118e-12</wgt>
  <wgt id="892">4.43941e-12</wgt>
  <wgt id="893">4.36239e-12</wgt>
  <wgt id="894">4.36432e-12</wgt>
  <wgt id="895">4.10953e-12</wgt>
  <wgt id="896">4.7461e-12</wgt>
  <wgt id="897">4.35574e-12</wgt>
  <wgt id="898">3.99678e-12</wgt>
  <wgt id="899">3.92225e-12</wgt>
  <wgt id="900">4.01727e-12</wgt>
  <wgt id="901">3.87649e-12</wgt>
  <wgt id="902">3.83175e-12</wgt>
  <wgt id="903">3.66714e-12</wgt>
  <wgt id="904">4.13986e-12</wgt>
  <wgt id="905">3.94855e-12</wgt>
  <wgt id="906">4.67097e-12</wgt>
  <wgt id="907">4.43189e-12</wgt>
  <wgt id="908">4.26782e-12</wgt>
  <wgt id="909">3.84824e-12</wgt>
  <wgt id="910">3.97487e-12</wgt>
  <wgt id="911">4.08268e-12</wgt>
  <wgt id="912">4.06305e-12</wgt>
  <wgt id="913">3.69986e-12</wgt>
  <wgt id="914">4.12218e-12</wgt>
  <wgt id="915">4.08137e-12</wgt>
  <wgt id="916">4.41992e-12</wgt>
  <wgt id="917">4.11547e-12</wgt>
  <wgt id="918">4.09012e-12</wgt>
  <wgt id="919">3.97811e-12</wgt>
  <wgt id="920">3.97735e-12</wgt>
  <wgt id="921">4.05778e-12</wgt>
  <wgt id="922">3.7805e-12</wgt>
  <wgt id="923">3.90382e-12</wgt>
  <wgt id="924">3.9174e-12</wgt>
  <wgt id="925">3.74111e-12</wgt>
  <wgt id="926">4.36035e-12</wgt>
  <wgt id="927">4.29022e-12</wgt>
  <wgt id="928">4.36384e-12</wgt>
  <wgt id="929">4.17722e-12</wgt>
  <wgt id="930">4.03229e-12</wgt>
  <wgt id="931">4.08711e-12</wgt>
  <wgt id="932">3.72631e-12</wgt>
  <wgt id="933">4.39583e-12</wgt>
  <wgt id="934">4.09103e-12</wgt>
  <wgt id="935">4.49265e-12</wgt>
  <wgt id="936">4.13811e-12</wgt>
  <wgt id="937">4.22484e-12</wgt>
  <wgt id="938">4.09874e-12</wgt>
  <wgt id="939">4.07944e-12</wgt>
  <wgt id="940">4.20052e-12</wgt>
  <wgt id="941">3.96244e-12</wgt>
  <wgt id="942">4.11661e-12</wgt>
  <wgt id="943">4.5555e-12</wgt>
  <wgt id="944">3.67198e-12</wgt>
  <wgt id="945">4.06549e-12</wgt>
  <wgt id="946">4.00369e-12</wgt>
  <wgt id="947">4.04852e-12</wgt>
  <wgt id="948">4.28337e-12</wgt>
  <wgt id="949">4.33387e-12</wgt>
  <wgt id="950">3.81559e-12</wgt>
  <wgt id="951">4.06531e-12</wgt>
  <wgt id="952">4.36177e-12</wgt>
  <wgt id="953">4.08695e-12</wgt>
  <wgt id="954">4.28159e-12</wgt>
  <wgt id="955">3.81594e-12</wgt>
  <wgt id="956">3.94616e-12</wgt>
  <wgt id="957">4.26506e-12</wgt>
  <wgt id="958">4.15652e-12</wgt>
  <wgt id="959">4.15747e-12</wgt>
  <wgt id="960">3.84381e-12</wgt>
  <wgt id="961">4.18609e-12</wgt>
  <wgt id="962">4.10379e-12</wgt>
  <wgt id="963">4.20772e-12</wgt>
  <wgt id="964">4.34184e-12</wgt>
  <wgt id="965">4.34747e-12</wgt>
  <wgt id="966">4.13492e-12</wgt>
  <wgt id="967">4.27335e-12</wgt>
  <wgt id="968">4.17923e-12</wgt>
  <wgt id="969">4.11368e-12</wgt>
  <wgt id="970">4.22561e-12</wgt>
  <wgt id="971">3.92979e-12</wgt>
  <wgt id="972">4.36209e-12</wgt>
  <wgt id="973">4.00287e-12</wgt>
  <wgt id="974">4.82479e-12</wgt>
  <wgt id="975">3.88637e-12</wgt>
  <wgt id="976">4.11183e-12</wgt>
  <wgt id="977">3.74536e-12</wgt>
  <wgt id="978">4.32647e-12</wgt>
  <wgt id="979">4.50732e-12</wgt>
  <wgt id="980">4.1362e-12</wgt>
  <wgt id="981">4.14361e-12</wgt>
  <wgt id="982">4.01572e-12</wgt>
</rwgt>
</event>
<event>
 5   1  0.3028200E-11  0.2387683E+04  0.7818608E-02  0.7681656E-01
       21   -1    0    0  502  501  0.00000000000E+00  0.00000000000E+00  0.24025662371E+04  0.24025662371E+04  0.00000000000E+00 0. -1.
       21   -1    0    0  501  502 -0.00000000000E+00 -0.00000000000E+00 -0.59322296270E+03  0.59322296270E+03  0.00000000000E+00 0.  1.
       39    2    1    2    0    0  0.00000000000E+00  0.00000000000E+00  0.18093432744E+04  0.29957891998E+04  0.23876829448E+04 0.  0.
       25    1    3    3    0    0  0.90006549576E+03 -0.74993762668E+03  0.11463674205E+04  0.16438697039E+04  0.12500000000E+03 0.  0.
       25    1    3    3    0    0 -0.90006549576E+03  0.74993762668E+03  0.66297585389E+03  0.13519194959E+04  0.12500000000E+03 0.  0.
<mgrwt>
<rscale>  0 0.23876829E+04</rscale>
<asrwt>0</asrwt>
<pdfrwt beam="1">  1       21 0.36962557E+00 0.23876829E+04</pdfrwt>
<pdfrwt beam="2">  1       21 0.91265072E-01 0.23876829E+04</pdfrwt>
<totfact> 0.44593614E+00</totfact>
</mgrwt>
<rwgt>
  <wgt id="1">3.0282e-12</wgt>
  <wgt id="2">2.59539e-12</wgt>
  <wgt id="3">3.57585e-12</wgt>
  <wgt id="4">3.0282e-12</wgt>
  <wgt id="5">2.59539e-12</wgt>
  <wgt id="6">3.57585e-12</wgt>
  <wgt id="7">3.0282e-12</wgt>
  <wgt id="8">2.59539e-12</wgt>
  <wgt id="9">3.57585e-12</wgt>
  <wgt id="10">3.2247e-12</wgt>
  <wgt id="11">3.22565e-12</wgt>
  <wgt id="12">3.21445e-12</wgt>
  <wgt id="13">3.22052e-12</wgt>
  <wgt id="14">3.23089e-12</wgt>
  <wgt id="15">3.22918e-12</wgt>
  <wgt id="16">3.21128e-12</wgt>
  <wgt id="17">3.24917e-12</wgt>
  <wgt id="18">3.22418e-12</wgt>
  <wgt id="19">3.24186e-12</wgt>
  <wgt id="20">3.22759e-12</wgt>
  <wgt id="21">3.19498e-12</wgt>
  <wgt id="22">3.19696e-12</wgt>
  <wgt id="23">3.16631e-12</wgt>
  <wgt id="24">3.19519e-12</wgt>
  <wgt id="25">3.21318e-12</wgt>
  <wgt id="26">3.23187e-12</wgt>
  <wgt id="27">3.21646e-12</wgt>
  <wgt id="28">3.20205e-12</wgt>
  <wgt id="29">3.22503e-12</wgt>
  <wgt id="30">3.19076e-12</wgt>
  <wgt id="31">3.23911e-12</wgt>
  <wgt id="32">3.18867e-12</wgt>
  <wgt id="33">3.227e-12</wgt>
  <wgt id="34">3.1974e-12</wgt>
  <wgt id="35">3.18963e-12</wgt>
  <wgt id="36">3.24163e-12</wgt>
  <wgt id="37">3.21352e-12</wgt>
  <wgt id="38">3.20813e-12</wgt>
  <wgt id="39">3.2955e-12</wgt>
  <wgt id="40">3.2325e-12</wgt>
  <wgt id="41">3.22178e-12</wgt>
  <wgt id="42">3.23365e-12</wgt>
  <wgt id="43">3.23106e-12</wgt>
  <wgt id="44">3.24925e-12</wgt>
  <wgt id="45">3.22874e-12</wgt>
  <wgt id="46">3.20185e-12</wgt>
  <wgt id="47">3.27722e-12</wgt>
  <wgt id="48">3.25856e-12</wgt>
  <wgt id="49">3.20734e-12</wgt>
  <wgt id="50">3.1828e-12</wgt>
  <wgt id="51">3.1934e-12</wgt>
  <wgt id="52">3.22975e-12</wgt>
  <wgt id="53">3.29093e-12</wgt>
  <wgt id="54">3.25136e-12</wgt>
  <wgt id="55">3.21687e-12</wgt>
  <wgt id="56">3.17957e-12</wgt>
  <wgt id="57">3.1841e-12</wgt>
  <wgt id="58">3.2249e-12</wgt>
  <wgt id="59">3.23878e-12</wgt>
  <wgt id="60">3.17618e-12</wgt>
  <wgt id="61">3.21747e-12</wgt>
  <wgt id="62">3.233e-12</wgt>
  <wgt id="63">3.22098e-12</wgt>
  <wgt id="64">3.21941e-12</wgt>
  <wgt id="65">3.19862e-12</wgt>
  <wgt id="66">3.24051e-12</wgt>
  <wgt id="67">3.24331e-12</wgt>
  <wgt id="68">3.22284e-12</wgt>
  <wgt id="69">3.21659e-12</wgt>
  <wgt id="70">3.20049e-12</wgt>
  <wgt id="71">3.23614e-12</wgt>
  <wgt id="72">3.22083e-12</wgt>
  <wgt id="73">3.22589e-12</wgt>
  <wgt id="74">3.24684e-12</wgt>
  <wgt id="75">3.20415e-12</wgt>
  <wgt id="76">3.25107e-12</wgt>
  <wgt id="77">3.21595e-12</wgt>
  <wgt id="78">3.22177e-12</wgt>
  <wgt id="79">3.23241e-12</wgt>
  <wgt id="80">3.19423e-12</wgt>
  <wgt id="81">3.22e-12</wgt>
  <wgt id="82">3.22817e-12</wgt>
  <wgt id="83">3.19609e-12</wgt>
  <wgt id="84">3.20427e-12</wgt>
  <wgt id="85">3.20261e-12</wgt>
  <wgt id="86">3.25112e-12</wgt>
  <wgt id="87">3.17885e-12</wgt>
  <wgt id="88">3.23953e-12</wgt>
  <wgt id="89">3.23608e-12</wgt>
  <wgt id="90">3.2416e-12</wgt>
  <wgt id="91">3.22906e-12</wgt>
  <wgt id="92">3.23945e-12</wgt>
  <wgt id="93">3.22841e-12</wgt>
  <wgt id="94">3.20935e-12</wgt>
  <wgt id="95">3.23843e-12</wgt>
  <wgt id="96">3.23947e-12</wgt>
  <wgt id="97">3.20345e-12</wgt>
  <wgt id="98">3.22563e-12</wgt>
  <wgt id="99">3.22255e-12</wgt>
  <wgt id="100">3.23124e-12</wgt>
  <wgt id="101">3.21441e-12</wgt>
  <wgt id="102">3.21506e-12</wgt>
  <wgt id="103">3.24064e-12</wgt>
  <wgt id="104">3.21942e-12</wgt>
  <wgt id="105">3.24055e-12</wgt>
  <wgt id="106">3.21073e-12</wgt>
  <wgt id="107">3.2526e-12</wgt>
  <wgt id="108">3.21622e-12</wgt>
  <wgt id="109">3.22247e-12</wgt>
  <wgt id="110">3.22596e-12</wgt>
  <wgt id="111">3.20282e-12</wgt>
  <wgt id="112">3.28173e-12</wgt>
  <wgt id="113">4.85048e-12</wgt>
  <wgt id="114">4.22005e-12</wgt>
  <wgt id="115">4.13754e-12</wgt>
  <wgt id="116">5.74582e-12</wgt>
  <wgt id="117">3.55247e-12</wgt>
  <wgt id="118">3.56658e-12</wgt>
  <wgt id="119">3.54444e-12</wgt>
  <wgt id="120">3.55235e-12</wgt>
  <wgt id="121">3.55245e-12</wgt>
  <wgt id="122">3.54717e-12</wgt>
  <wgt id="123">3.55974e-12</wgt>
  <wgt id="124">3.54795e-12</wgt>
  <wgt id="125">3.55529e-12</wgt>
  <wgt id="126">3.55715e-12</wgt>
  <wgt id="127">3.54934e-12</wgt>
  <wgt id="128">3.56306e-12</wgt>
  <wgt id="129">3.54195e-12</wgt>
  <wgt id="130">3.56852e-12</wgt>
  <wgt id="131">3.53578e-12</wgt>
  <wgt id="132">3.44924e-12</wgt>
  <wgt id="133">3.67594e-12</wgt>
  <wgt id="134">3.51396e-12</wgt>
  <wgt id="135">3.58275e-12</wgt>
  <wgt id="136">3.61312e-12</wgt>
  <wgt id="137">3.47981e-12</wgt>
  <wgt id="138">3.73088e-12</wgt>
  <wgt id="139">3.38508e-12</wgt>
  <wgt id="140">3.53932e-12</wgt>
  <wgt id="141">3.562e-12</wgt>
  <wgt id="142">3.55095e-12</wgt>
  <wgt id="143">3.5665e-12</wgt>
  <wgt id="144">3.37571e-12</wgt>
  <wgt id="145">3.72879e-12</wgt>
  <wgt id="146">3.61093e-12</wgt>
  <wgt id="147">3.50417e-12</wgt>
  <wgt id="148">3.56636e-12</wgt>
  <wgt id="149">3.55146e-12</wgt>
  <wgt id="150">3.58225e-12</wgt>
  <wgt id="151">3.53851e-12</wgt>
  <wgt id="152">3.55306e-12</wgt>
  <wgt id="153">3.55216e-12</wgt>
  <wgt id="154">3.54876e-12</wgt>
  <wgt id="155">3.54652e-12</wgt>
  <wgt id="156">3.70547e-12</wgt>
  <wgt id="157">3.42019e-12</wgt>
  <wgt id="158">4.23992e-12</wgt>
  <wgt id="159">4.25838e-12</wgt>
  <wgt id="160">4.22523e-12</wgt>
  <wgt id="161">4.22869e-12</wgt>
  <wgt id="162">4.25261e-12</wgt>
  <wgt id="163">4.23494e-12</wgt>
  <wgt id="164">4.24747e-12</wgt>
  <wgt id="165">4.24143e-12</wgt>
  <wgt id="166">4.23886e-12</wgt>
  <wgt id="167">4.23717e-12</wgt>
  <wgt id="168">4.24393e-12</wgt>
  <wgt id="169">4.22333e-12</wgt>
  <wgt id="170">4.25047e-12</wgt>
  <wgt id="171">4.23751e-12</wgt>
  <wgt id="172">4.24355e-12</wgt>
  <wgt id="173">4.22838e-12</wgt>
  <wgt id="174">4.24408e-12</wgt>
  <wgt id="175">4.11107e-12</wgt>
  <wgt id="176">4.40952e-12</wgt>
  <wgt id="177">4.25808e-12</wgt>
  <wgt id="178">4.22379e-12</wgt>
  <wgt id="179">4.48239e-12</wgt>
  <wgt id="180">3.87185e-12</wgt>
  <wgt id="181">4.08528e-12</wgt>
  <wgt id="182">4.34385e-12</wgt>
  <wgt id="183">4.14634e-12</wgt>
  <wgt id="184">4.28668e-12</wgt>
  <wgt id="185">4.18582e-12</wgt>
  <wgt id="186">4.3055e-12</wgt>
  <wgt id="187">4.1861e-12</wgt>
  <wgt id="188">4.33451e-12</wgt>
  <wgt id="189">4.20303e-12</wgt>
  <wgt id="190">4.25507e-12</wgt>
  <wgt id="191">4.25727e-12</wgt>
  <wgt id="192">4.22963e-12</wgt>
  <wgt id="193">4.31894e-12</wgt>
  <wgt id="194">4.20002e-12</wgt>
  <wgt id="195">4.0539e-12</wgt>
  <wgt id="196">4.53759e-12</wgt>
  <wgt id="197">4.26386e-12</wgt>
  <wgt id="198">4.23421e-12</wgt>
  <wgt id="199">4.23992e-12</wgt>
  <wgt id="200">4.28447e-12</wgt>
  <wgt id="201">4.27002e-12</wgt>
  <wgt id="202">4.25552e-12</wgt>
  <wgt id="203">4.23584e-12</wgt>
  <wgt id="204">4.22535e-12</wgt>
  <wgt id="205">4.21691e-12</wgt>
  <wgt id="206">4.16278e-12</wgt>
  <wgt id="207">4.18813e-12</wgt>
  <wgt id="208">4.13745e-12</wgt>
  <wgt id="209">4.17567e-12</wgt>
  <wgt id="210">4.15325e-12</wgt>
  <wgt id="211">4.16122e-12</wgt>
  <wgt id="212">4.16394e-12</wgt>
  <wgt id="213">4.1623e-12</wgt>
  <wgt id="214">4.16309e-12</wgt>
  <wgt id="215">4.16604e-12</wgt>
  <wgt id="216">4.16047e-12</wgt>
  <wgt id="217">4.17121e-12</wgt>
  <wgt id="218">4.15586e-12</wgt>
  <wgt id="219">4.15774e-12</wgt>
  <wgt id="220">4.16582e-12</wgt>
  <wgt id="221">4.16571e-12</wgt>
  <wgt id="222">4.15402e-12</wgt>
  <wgt id="223">3.90864e-12</wgt>
  <wgt id="224">4.3965e-12</wgt>
  <wgt id="225">4.10895e-12</wgt>
  <wgt id="226">4.23137e-12</wgt>
  <wgt id="227">4.12123e-12</wgt>
  <wgt id="228">4.18096e-12</wgt>
  <wgt id="229">4.09982e-12</wgt>
  <wgt id="230">4.19387e-12</wgt>
  <wgt id="231">4.32051e-12</wgt>
  <wgt id="232">4.0342e-12</wgt>
  <wgt id="233">4.13234e-12</wgt>
  <wgt id="234">4.21429e-12</wgt>
  <wgt id="235">3.93825e-12</wgt>
  <wgt id="236">4.343e-12</wgt>
  <wgt id="237">4.03599e-12</wgt>
  <wgt id="238">4.20466e-12</wgt>
  <wgt id="239">4.11255e-12</wgt>
  <wgt id="240">4.25257e-12</wgt>
  <wgt id="241">4.10553e-12</wgt>
  <wgt id="242">4.22977e-12</wgt>
  <wgt id="243">4.25178e-12</wgt>
  <wgt id="244">4.15236e-12</wgt>
  <wgt id="245">4.16187e-12</wgt>
  <wgt id="246">4.18248e-12</wgt>
  <wgt id="247">4.16278e-12</wgt>
  <wgt id="248">4.21267e-12</wgt>
  <wgt id="249">4.19615e-12</wgt>
  <wgt id="250">4.17773e-12</wgt>
  <wgt id="251">4.15423e-12</wgt>
  <wgt id="252">4.14151e-12</wgt>
  <wgt id="253">4.13328e-12</wgt>
  <wgt id="254">3.98191e-12</wgt>
  <wgt id="255">3.98539e-12</wgt>
  <wgt id="256">3.97811e-12</wgt>
  <wgt id="257">3.98508e-12</wgt>
  <wgt id="258">3.97968e-12</wgt>
  <wgt id="259">4.00884e-12</wgt>
  <wgt id="260">3.956e-12</wgt>
  <wgt id="261">3.98922e-12</wgt>
  <wgt id="262">3.9734e-12</wgt>
  <wgt id="263">3.97839e-12</wgt>
  <wgt id="264">3.98601e-12</wgt>
  <wgt id="265">3.97688e-12</wgt>
  <wgt id="266">3.99226e-12</wgt>
  <wgt id="267">3.98333e-12</wgt>
  <wgt id="268">3.97999e-12</wgt>
  <wgt id="269">3.99449e-12</wgt>
  <wgt id="270">3.97345e-12</wgt>
  <wgt id="271">3.96899e-12</wgt>
  <wgt id="272">3.99655e-12</wgt>
  <wgt id="273">3.97179e-12</wgt>
  <wgt id="274">3.98971e-12</wgt>
  <wgt id="275">3.95311e-12</wgt>
  <wgt id="276">4.01203e-12</wgt>
  <wgt id="277">3.95904e-12</wgt>
  <wgt id="278">4.00275e-12</wgt>
  <wgt id="279">3.90553e-12</wgt>
  <wgt id="280">4.07844e-12</wgt>
  <wgt id="281">3.96029e-12</wgt>
  <wgt id="282">3.9921e-12</wgt>
  <wgt id="283">3.83784e-12</wgt>
  <wgt id="284">4.16343e-12</wgt>
  <wgt id="285">3.74595e-12</wgt>
  <wgt id="286">4.18441e-12</wgt>
  <wgt id="287">3.9972e-12</wgt>
  <wgt id="288">3.96252e-12</wgt>
  <wgt id="289">4.01768e-12</wgt>
  <wgt id="290">3.9052e-12</wgt>
  <wgt id="291">3.96451e-12</wgt>
  <wgt id="292">3.97974e-12</wgt>
  <wgt id="293">3.94342e-12</wgt>
  <wgt id="294">4.02039e-12</wgt>
  <wgt id="295">3.88896e-12</wgt>
  <wgt id="296">4.09614e-12</wgt>
  <wgt id="297">3.96518e-12</wgt>
  <wgt id="298">4.00621e-12</wgt>
  <wgt id="299">3.96745e-12</wgt>
  <wgt id="300">4.02067e-12</wgt>
  <wgt id="301">3.88064e-12</wgt>
  <wgt id="302">4.20875e-12</wgt>
  <wgt id="303">3.92717e-12</wgt>
  <wgt id="304">4.01231e-12</wgt>
  <wgt id="305">3.91664e-12</wgt>
  <wgt id="306">3.92022e-12</wgt>
  <wgt id="307">3.91277e-12</wgt>
  <wgt id="308">3.91994e-12</wgt>
  <wgt id="309">3.91445e-12</wgt>
  <wgt id="310">3.94374e-12</wgt>
  <wgt id="311">3.89176e-12</wgt>
  <wgt id="312">3.92355e-12</wgt>
  <wgt id="313">3.9092e-12</wgt>
  <wgt id="314">3.91284e-12</wgt>
  <wgt id="315">3.92024e-12</wgt>
  <wgt id="316">3.91153e-12</wgt>
  <wgt id="317">3.9282e-12</wgt>
  <wgt id="318">3.91984e-12</wgt>
  <wgt id="319">3.91122e-12</wgt>
  <wgt id="320">3.93027e-12</wgt>
  <wgt id="321">3.90914e-12</wgt>
  <wgt id="322">3.90321e-12</wgt>
  <wgt id="323">3.93251e-12</wgt>
  <wgt id="324">3.90979e-12</wgt>
  <wgt id="325">3.92256e-12</wgt>
  <wgt id="326">3.89276e-12</wgt>
  <wgt id="327">3.94745e-12</wgt>
  <wgt id="328">3.89747e-12</wgt>
  <wgt id="329">3.92708e-12</wgt>
  <wgt id="330">4.03104e-12</wgt>
  <wgt id="331">3.80841e-12</wgt>
  <wgt id="332">3.89869e-12</wgt>
  <wgt id="333">3.92371e-12</wgt>
  <wgt id="334">3.80912e-12</wgt>
  <wgt id="335">4.05249e-12</wgt>
  <wgt id="336">3.7522e-12</wgt>
  <wgt id="337">4.12306e-12</wgt>
  <wgt id="338">3.96921e-12</wgt>
  <wgt id="339">3.86873e-12</wgt>
  <wgt id="340">3.94776e-12</wgt>
  <wgt id="341">3.84154e-12</wgt>
  <wgt id="342">3.90481e-12</wgt>
  <wgt id="343">3.90498e-12</wgt>
  <wgt id="344">3.88374e-12</wgt>
  <wgt id="345">3.95509e-12</wgt>
  <wgt id="346">3.82293e-12</wgt>
  <wgt id="347">4.02379e-12</wgt>
  <wgt id="348">3.90025e-12</wgt>
  <wgt id="349">3.93927e-12</wgt>
  <wgt id="350">3.89906e-12</wgt>
  <wgt id="351">3.9617e-12</wgt>
  <wgt id="352">3.81668e-12</wgt>
  <wgt id="353">4.13062e-12</wgt>
  <wgt id="354">3.84132e-12</wgt>
  <wgt id="355">3.96083e-12</wgt>
  <wgt id="356">3.98191e-12</wgt>
  <wgt id="357">3.91179e-12</wgt>
  <wgt id="358">3.91664e-12</wgt>
  <wgt id="359">3.97179e-12</wgt>
  <wgt id="360">4.07934e-12</wgt>
  <wgt id="361">4.00819e-12</wgt>
  <wgt id="362">4.09823e-12</wgt>
  <wgt id="363">4.08677e-12</wgt>
  <wgt id="364">4.0621e-12</wgt>
  <wgt id="365">4.04484e-12</wgt>
  <wgt id="366">4.02805e-12</wgt>
  <wgt id="367">3.99737e-12</wgt>
  <wgt id="368">3.97649e-12</wgt>
  <wgt id="369">3.95394e-12</wgt>
  <wgt id="370">4.00819e-12</wgt>
  <wgt id="371">4.02417e-12</wgt>
  <wgt id="372">4.01504e-12</wgt>
  <wgt id="373">4.00249e-12</wgt>
  <wgt id="374">4.01145e-12</wgt>
  <wgt id="375">4.80826e-12</wgt>
  <wgt id="376">4.8084e-12</wgt>
  <wgt id="377">4.80782e-12</wgt>
  <wgt id="378">4.82725e-12</wgt>
  <wgt id="379">4.78923e-12</wgt>
  <wgt id="380">4.82243e-12</wgt>
  <wgt id="381">4.80249e-12</wgt>
  <wgt id="382">4.8297e-12</wgt>
  <wgt id="383">4.78696e-12</wgt>
  <wgt id="384">4.81143e-12</wgt>
  <wgt id="385">4.8052e-12</wgt>
  <wgt id="386">4.82185e-12</wgt>
  <wgt id="387">4.80238e-12</wgt>
  <wgt id="388">4.80417e-12</wgt>
  <wgt id="389">4.81299e-12</wgt>
  <wgt id="390">4.81806e-12</wgt>
  <wgt id="391">4.79784e-12</wgt>
  <wgt id="392">4.7603e-12</wgt>
  <wgt id="393">4.83526e-12</wgt>
  <wgt id="394">4.80996e-12</wgt>
  <wgt id="395">4.80563e-12</wgt>
  <wgt id="396">4.81953e-12</wgt>
  <wgt id="397">4.80027e-12</wgt>
  <wgt id="398">4.80381e-12</wgt>
  <wgt id="399">4.81252e-12</wgt>
  <wgt id="400">4.79995e-12</wgt>
  <wgt id="401">4.82669e-12</wgt>
  <wgt id="402">4.75663e-12</wgt>
  <wgt id="403">4.84662e-12</wgt>
  <wgt id="404">4.97197e-12</wgt>
  <wgt id="405">4.42255e-12</wgt>
  <wgt id="406">4.69009e-12</wgt>
  <wgt id="407">5.07338e-12</wgt>
  <wgt id="408">4.8701e-12</wgt>
  <wgt id="409">4.69543e-12</wgt>
  <wgt id="410">4.61849e-12</wgt>
  <wgt id="411">4.90104e-12</wgt>
  <wgt id="412">4.79525e-12</wgt>
  <wgt id="413">4.82676e-12</wgt>
  <wgt id="414">4.73307e-12</wgt>
  <wgt id="415">4.86657e-12</wgt>
  <wgt id="416">5.0057e-12</wgt>
  <wgt id="417">4.53958e-12</wgt>
  <wgt id="418">4.82032e-12</wgt>
  <wgt id="419">4.74319e-12</wgt>
  <wgt id="420">4.96471e-12</wgt>
  <wgt id="421">4.70062e-12</wgt>
  <wgt id="422">4.76128e-12</wgt>
  <wgt id="423">4.8294e-12</wgt>
  <wgt id="424">4.99236e-12</wgt>
  <wgt id="425">4.68092e-12</wgt>
  <wgt id="426">4.80826e-12</wgt>
  <wgt id="427">4.67195e-12</wgt>
  <wgt id="428">5.10299e-12</wgt>
  <wgt id="429">4.89199e-12</wgt>
  <wgt id="430">5.07962e-12</wgt>
  <wgt id="431">5.04071e-12</wgt>
  <wgt id="432">5.00644e-12</wgt>
  <wgt id="433">4.97275e-12</wgt>
  <wgt id="434">4.92859e-12</wgt>
  <wgt id="435">4.84657e-12</wgt>
  <wgt id="436">4.80583e-12</wgt>
  <wgt id="437">4.76531e-12</wgt>
  <wgt id="438">4.89199e-12</wgt>
  <wgt id="439">4.90646e-12</wgt>
  <wgt id="440">4.89701e-12</wgt>
  <wgt id="441">4.88894e-12</wgt>
  <wgt id="442">4.88671e-12</wgt>
  <wgt id="443">4.15968e-12</wgt>
  <wgt id="444">4.21649e-12</wgt>
  <wgt id="445">4.23378e-12</wgt>
  <wgt id="446">4.13024e-12</wgt>
  <wgt id="447">4.15971e-12</wgt>
  <wgt id="448">4.06246e-12</wgt>
  <wgt id="449">4.2705e-12</wgt>
  <wgt id="450">4.24262e-12</wgt>
  <wgt id="451">4.14635e-12</wgt>
  <wgt id="452">4.25198e-12</wgt>
  <wgt id="453">4.23481e-12</wgt>
  <wgt id="454">3.90691e-12</wgt>
  <wgt id="455">4.21187e-12</wgt>
  <wgt id="456">4.27523e-12</wgt>
  <wgt id="457">4.17342e-12</wgt>
  <wgt id="458">4.24704e-12</wgt>
  <wgt id="459">4.19956e-12</wgt>
  <wgt id="460">4.28076e-12</wgt>
  <wgt id="461">4.04243e-12</wgt>
  <wgt id="462">4.12657e-12</wgt>
  <wgt id="463">4.08141e-12</wgt>
  <wgt id="464">4.13914e-12</wgt>
  <wgt id="465">4.20523e-12</wgt>
  <wgt id="466">4.01625e-12</wgt>
  <wgt id="467">4.13144e-12</wgt>
  <wgt id="468">4.16368e-12</wgt>
  <wgt id="469">4.14437e-12</wgt>
  <wgt id="470">4.0762e-12</wgt>
  <wgt id="471">4.09281e-12</wgt>
  <wgt id="472">4.19777e-12</wgt>
  <wgt id="473">4.00672e-12</wgt>
  <wgt id="474">3.0282e-12</wgt>
  <wgt id="475">3.03734e-12</wgt>
  <wgt id="476">3.05704e-12</wgt>
  <wgt id="477">3.16898e-12</wgt>
  <wgt id="478">3.12564e-12</wgt>
  <wgt id="479">2.78257e-12</wgt>
  <wgt id="480">3.24352e-12</wgt>
  <wgt id="481">3.06755e-12</wgt>
  <wgt id="482">3.10302e-12</wgt>
  <wgt id="483">3.20892e-12</wgt>
  <wgt id="484">3.19737e-12</wgt>
  <wgt id="485">2.67728e-12</wgt>
  <wgt id="486">3.18834e-12</wgt>
  <wgt id="487">2.8724e-12</wgt>
  <wgt id="488">3.00177e-12</wgt>
  <wgt id="489">2.56802e-12</wgt>
  <wgt id="490">3.03678e-12</wgt>
  <wgt id="491">2.96554e-12</wgt>
  <wgt id="492">2.97683e-12</wgt>
  <wgt id="493">2.68182e-12</wgt>
  <wgt id="494">2.6718e-12</wgt>
  <wgt id="495">3.09196e-12</wgt>
  <wgt id="496">2.78022e-12</wgt>
  <wgt id="497">2.77954e-12</wgt>
  <wgt id="498">3.10654e-12</wgt>
  <wgt id="499">3.10728e-12</wgt>
  <wgt id="500">3.10962e-12</wgt>
  <wgt id="501">3.19331e-12</wgt>
  <wgt id="502">3.30841e-12</wgt>
  <wgt id="503">2.93119e-12</wgt>
  <wgt id="504">3.15049e-12</wgt>
  <wgt id="505">3.24316e-12</wgt>
  <wgt id="506">2.64186e-12</wgt>
  <wgt id="507">2.85478e-12</wgt>
  <wgt id="508">3.22821e-12</wgt>
  <wgt id="509">2.98253e-12</wgt>
  <wgt id="510">2.99674e-12</wgt>
  <wgt id="511">2.83035e-12</wgt>
  <wgt id="512">3.34046e-12</wgt>
  <wgt id="513">3.23335e-12</wgt>
  <wgt id="514">3.33964e-12</wgt>
  <wgt id="515">3.25113e-12</wgt>
  <wgt id="516">3.47717e-12</wgt>
  <wgt id="517">3.1117e-12</wgt>
  <wgt id="518">3.21903e-12</wgt>
  <wgt id="519">2.90837e-12</wgt>
  <wgt id="520">2.99771e-12</wgt>
  <wgt id="521">2.84972e-12</wgt>
  <wgt id="522">3.11752e-12</wgt>
  <wgt id="523">2.85089e-12</wgt>
  <wgt id="524">3.18934e-12</wgt>
  <wgt id="525">2.8688e-12</wgt>
  <wgt id="526">3.29962e-12</wgt>
  <wgt id="527">2.97753e-12</wgt>
  <wgt id="528">2.95258e-12</wgt>
  <wgt id="529">2.74212e-12</wgt>
  <wgt id="530">3.25744e-12</wgt>
  <wgt id="531">2.84778e-12</wgt>
  <wgt id="532">3.32911e-12</wgt>
  <wgt id="533">3.12154e-12</wgt>
  <wgt id="534">2.79865e-12</wgt>
  <wgt id="535">3.15443e-12</wgt>
  <wgt id="536">3.2165e-12</wgt>
  <wgt id="537">2.75984e-12</wgt>
  <wgt id="538">2.98332e-12</wgt>
  <wgt id="539">2.94715e-12</wgt>
  <wgt id="540">3.14295e-12</wgt>
  <wgt id="541">3.01232e-12</wgt>
  <wgt id="542">2.8796e-12</wgt>
  <wgt id="543">2.82716e-12</wgt>
  <wgt id="544">3.02038e-12</wgt>
  <wgt id="545">2.7762e-12</wgt>
  <wgt id="546">2.69946e-12</wgt>
  <wgt id="547">2.86027e-12</wgt>
  <wgt id="548">2.99182e-12</wgt>
  <wgt id="549">2.96752e-12</wgt>
  <wgt id="550">2.79326e-12</wgt>
  <wgt id="551">2.98041e-12</wgt>
  <wgt id="552">2.81947e-12</wgt>
  <wgt id="553">2.70183e-12</wgt>
  <wgt id="554">3.13854e-12</wgt>
  <wgt id="555">3.08613e-12</wgt>
  <wgt id="556">3.03678e-12</wgt>
  <wgt id="557">3.03279e-12</wgt>
  <wgt id="558">3.02298e-12</wgt>
  <wgt id="559">3.13344e-12</wgt>
  <wgt id="560">3.3549e-12</wgt>
  <wgt id="561">3.23985e-12</wgt>
  <wgt id="562">3.16236e-12</wgt>
  <wgt id="563">3.3448e-12</wgt>
  <wgt id="564">3.2909e-12</wgt>
  <wgt id="565">3.33182e-12</wgt>
  <wgt id="566">2.76871e-12</wgt>
  <wgt id="567">3.07608e-12</wgt>
  <wgt id="568">2.81039e-12</wgt>
  <wgt id="569">3.08426e-12</wgt>
  <wgt id="570">3.20307e-12</wgt>
  <wgt id="571">3.39866e-12</wgt>
  <wgt id="572">2.84576e-12</wgt>
  <wgt id="573">2.94582e-12</wgt>
  <wgt id="574">2.99445e-12</wgt>
  <wgt id="575">3.33609e-12</wgt>
  <wgt id="576">3.8012e-12</wgt>
  <wgt id="577">3.39806e-12</wgt>
  <wgt id="578">3.24942e-12</wgt>
  <wgt id="579">3.47534e-12</wgt>
  <wgt id="580">3.53442e-12</wgt>
  <wgt id="581">3.70792e-12</wgt>
  <wgt id="582">3.67566e-12</wgt>
  <wgt id="583">3.48838e-12</wgt>
  <wgt id="584">3.30725e-12</wgt>
  <wgt id="585">2.98229e-12</wgt>
  <wgt id="586">3.07863e-12</wgt>
  <wgt id="587">3.41439e-12</wgt>
  <wgt id="588">3.94735e-12</wgt>
  <wgt id="589">3.83914e-12</wgt>
  <wgt id="590">3.35671e-12</wgt>
  <wgt id="591">3.43971e-12</wgt>
  <wgt id="592">3.18162e-12</wgt>
  <wgt id="593">3.18605e-12</wgt>
  <wgt id="594">3.12814e-12</wgt>
  <wgt id="595">3.68827e-12</wgt>
  <wgt id="596">3.98954e-12</wgt>
  <wgt id="597">3.42847e-12</wgt>
  <wgt id="598">3.52668e-12</wgt>
  <wgt id="599">3.65834e-12</wgt>
  <wgt id="600">3.84938e-12</wgt>
  <wgt id="601">3.16556e-12</wgt>
  <wgt id="602">3.14107e-12</wgt>
  <wgt id="603">3.00352e-12</wgt>
  <wgt id="604">3.50215e-12</wgt>
  <wgt id="605">3.28051e-12</wgt>
  <wgt id="606">3.3375e-12</wgt>
  <wgt id="607">3.63106e-12</wgt>
  <wgt id="608">3.46909e-12</wgt>
  <wgt id="609">3.28299e-12</wgt>
  <wgt id="610">3.11403e-12</wgt>
  <wgt id="611">3.07463e-12</wgt>
  <wgt id="612">3.35507e-12</wgt>
  <wgt id="613">3.09504e-12</wgt>
  <wgt id="614">3.32197e-12</wgt>
  <wgt id="615">3.51854e-12</wgt>
  <wgt id="616">2.97012e-12</wgt>
  <wgt id="617">3.50402e-12</wgt>
  <wgt id="618">3.71198e-12</wgt>
  <wgt id="619">3.27018e-12</wgt>
  <wgt id="620">3.40555e-12</wgt>
  <wgt id="621">3.27264e-12</wgt>
  <wgt id="622">3.41439e-12</wgt>
  <wgt id="623">3.28145e-12</wgt>
  <wgt id="624">3.31566e-12</wgt>
  <wgt id="625">3.11819e-12</wgt>
  <wgt id="626">2.66663e-12</wgt>
  <wgt id="627">2.88243e-12</wgt>
  <wgt id="628">3.28984e-12</wgt>
  <wgt id="629">3.78358e-12</wgt>
  <wgt id="630">3.26967e-12</wgt>
  <wgt id="631">3.52503e-12</wgt>
  <wgt id="632">2.98381e-12</wgt>
  <wgt id="633">3.30571e-12</wgt>
  <wgt id="634">3.11657e-12</wgt>
  <wgt id="635">3.0637e-12</wgt>
  <wgt id="636">3.30985e-12</wgt>
  <wgt id="637">3.37244e-12</wgt>
  <wgt id="638">3.12374e-12</wgt>
  <wgt id="639">3.08809e-12</wgt>
  <wgt id="640">3.15563e-12</wgt>
  <wgt id="641">3.57296e-12</wgt>
  <wgt id="642">2.81853e-12</wgt>
  <wgt id="643">3.19428e-12</wgt>
  <wgt id="644">3.00774e-12</wgt>
  <wgt id="645">3.34214e-12</wgt>
  <wgt id="646">2.84048e-12</wgt>
  <wgt id="647">3.50044e-12</wgt>
  <wgt id="648">3.61625e-12</wgt>
  <wgt id="649">3.37959e-12</wgt>
  <wgt id="650">3.24039e-12</wgt>
  <wgt id="651">3.57904e-12</wgt>
  <wgt id="652">3.12564e-12</wgt>
  <wgt id="653">3.16614e-12</wgt>
  <wgt id="654">3.41373e-12</wgt>
  <wgt id="655">3.05911e-12</wgt>
  <wgt id="656">3.38341e-12</wgt>
  <wgt id="657">3.73337e-12</wgt>
  <wgt id="658">3.27559e-12</wgt>
  <wgt id="659">3.2024e-12</wgt>
  <wgt id="660">3.0764e-12</wgt>
  <wgt id="661">3.19674e-12</wgt>
  <wgt id="662">3.287e-12</wgt>
  <wgt id="663">3.45287e-12</wgt>
  <wgt id="664">3.48756e-12</wgt>
  <wgt id="665">3.23393e-12</wgt>
  <wgt id="666">3.22091e-12</wgt>
  <wgt id="667">3.55798e-12</wgt>
  <wgt id="668">3.24075e-12</wgt>
  <wgt id="669">3.24283e-12</wgt>
  <wgt id="670">3.5658e-12</wgt>
  <wgt id="671">3.4241e-12</wgt>
  <wgt id="672">3.40216e-12</wgt>
  <wgt id="673">3.70614e-12</wgt>
  <wgt id="674">3.18897e-12</wgt>
  <wgt id="675">3.10798e-12</wgt>
  <wgt id="676">4.39918e-12</wgt>
  <wgt id="677">4.41297e-12</wgt>
  <wgt id="678">5.01901e-12</wgt>
  <wgt id="679">4.89022e-12</wgt>
  <wgt id="680">4.47685e-12</wgt>
  <wgt id="681">4.19594e-12</wgt>
  <wgt id="682">4.69364e-12</wgt>
  <wgt id="683">3.80638e-12</wgt>
  <wgt id="684">4.77156e-12</wgt>
  <wgt id="685">4.49191e-12</wgt>
  <wgt id="686">4.70727e-12</wgt>
  <wgt id="687">4.46695e-12</wgt>
  <wgt id="688">4.25451e-12</wgt>
  <wgt id="689">4.70805e-12</wgt>
  <wgt id="690">4.56596e-12</wgt>
  <wgt id="691">4.49811e-12</wgt>
  <wgt id="692">4.218e-12</wgt>
  <wgt id="693">6.47445e-12</wgt>
  <wgt id="694">5.02449e-12</wgt>
  <wgt id="695">3.92064e-12</wgt>
  <wgt id="696">4.06497e-12</wgt>
  <wgt id="697">3.69402e-12</wgt>
  <wgt id="698">3.32845e-12</wgt>
  <wgt id="699">3.5893e-12</wgt>
  <wgt id="700">3.84309e-12</wgt>
  <wgt id="701">4.40185e-12</wgt>
  <wgt id="702">4.05912e-12</wgt>
  <wgt id="703">5.94455e-12</wgt>
  <wgt id="704">5.06686e-12</wgt>
  <wgt id="705">5.0284e-12</wgt>
  <wgt id="706">3.92189e-12</wgt>
  <wgt id="707">4.00772e-12</wgt>
  <wgt id="708">4.00861e-12</wgt>
  <wgt id="709">4.16491e-12</wgt>
  <wgt id="710">3.17129e-12</wgt>
  <wgt id="711">4.97971e-12</wgt>
  <wgt id="712">4.03537e-12</wgt>
  <wgt id="713">4.75548e-12</wgt>
  <wgt id="714">3.70135e-12</wgt>
  <wgt id="715">4.04293e-12</wgt>
  <wgt id="716">4.16877e-12</wgt>
  <wgt id="717">3.52069e-12</wgt>
  <wgt id="718">4.5111e-12</wgt>
  <wgt id="719">4.04319e-12</wgt>
  <wgt id="720">4.71218e-12</wgt>
  <wgt id="721">3.65272e-12</wgt>
  <wgt id="722">3.02389e-12</wgt>
  <wgt id="723">5.24305e-12</wgt>
  <wgt id="724">4.92055e-12</wgt>
  <wgt id="725">4.6617e-12</wgt>
  <wgt id="726">4.34997e-12</wgt>
  <wgt id="727">4.50172e-12</wgt>
  <wgt id="728">4.52238e-12</wgt>
  <wgt id="729">3.63172e-12</wgt>
  <wgt id="730">5.05749e-12</wgt>
  <wgt id="731">4.36684e-12</wgt>
  <wgt id="732">5.34009e-12</wgt>
  <wgt id="733">3.92714e-12</wgt>
  <wgt id="734">4.61706e-12</wgt>
  <wgt id="735">4.25262e-12</wgt>
  <wgt id="736">3.9132e-12</wgt>
  <wgt id="737">3.56159e-12</wgt>
  <wgt id="738">4.12568e-12</wgt>
  <wgt id="739">4.54041e-12</wgt>
  <wgt id="740">5.58596e-12</wgt>
  <wgt id="741">4.98843e-12</wgt>
  <wgt id="742">3.90597e-12</wgt>
  <wgt id="743">3.91417e-12</wgt>
  <wgt id="744">4.24465e-12</wgt>
  <wgt id="745">5.06827e-12</wgt>
  <wgt id="746">5.2298e-12</wgt>
  <wgt id="747">3.46057e-12</wgt>
  <wgt id="748">4.12857e-12</wgt>
  <wgt id="749">4.68113e-12</wgt>
  <wgt id="750">4.85656e-12</wgt>
  <wgt id="751">4.46932e-12</wgt>
  <wgt id="752">3.85375e-12</wgt>
  <wgt id="753">3.76782e-12</wgt>
  <wgt id="754">4.60663e-12</wgt>
  <wgt id="755">4.19146e-12</wgt>
  <wgt id="756">4.16169e-12</wgt>
  <wgt id="757">3.58798e-12</wgt>
  <wgt id="758">4.24577e-12</wgt>
  <wgt id="759">4.80599e-12</wgt>
  <wgt id="760">4.03826e-12</wgt>
  <wgt id="761">5.14999e-12</wgt>
  <wgt id="762">5.18709e-12</wgt>
  <wgt id="763">4.7852e-12</wgt>
  <wgt id="764">4.89687e-12</wgt>
  <wgt id="765">4.50128e-12</wgt>
  <wgt id="766">4.56968e-12</wgt>
  <wgt id="767">4.54708e-12</wgt>
  <wgt id="768">3.85711e-12</wgt>
  <wgt id="769">4.59259e-12</wgt>
  <wgt id="770">3.81332e-12</wgt>
  <wgt id="771">5.7488e-12</wgt>
  <wgt id="772">4.23473e-12</wgt>
  <wgt id="773">4.5332e-12</wgt>
  <wgt id="774">3.29495e-12</wgt>
  <wgt id="775">4.66545e-12</wgt>
  <wgt id="776">5.57108e-12</wgt>
  <wgt id="777">3.53997e-12</wgt>
  <wgt id="778">2.48843e-12</wgt>
  <wgt id="779">1.01359e-12</wgt>
  <wgt id="780">4.84215e-14</wgt>
  <wgt id="781">2.70611e-12</wgt>
  <wgt id="782">3.19451e-12</wgt>
  <wgt id="783">5.18138e-13</wgt>
  <wgt id="784">1.1644e-12</wgt>
  <wgt id="785">4.26783e-12</wgt>
  <wgt id="786">3.69758e-13</wgt>
  <wgt id="787">3.75847e-12</wgt>
  <wgt id="788">1.40843e-20</wgt>
  <wgt id="789">1.08733e-12</wgt>
  <wgt id="790">6.15862e-13</wgt>
  <wgt id="791">3.14721e-12</wgt>
  <wgt id="792">3.55692e-12</wgt>
  <wgt id="793">1.99047e-12</wgt>
  <wgt id="794">4.10605e-13</wgt>
  <wgt id="795">4.10184e-12</wgt>
  <wgt id="796">4.09168e-12</wgt>
  <wgt id="797">3.51122e-12</wgt>
  <wgt id="798">1.4935e-12</wgt>
  <wgt id="799">3.80472e-12</wgt>
  <wgt id="800">1.54352e-12</wgt>
  <wgt id="801">2.94946e-12</wgt>
  <wgt id="802">4.17177e-13</wgt>
  <wgt id="803">4.4479e-12</wgt>
  <wgt id="804">4.15541e-12</wgt>
  <wgt id="805">3.97627e-12</wgt>
  <wgt id="806">3.04529e-12</wgt>
  <wgt id="807">2.56789e-12</wgt>
  <wgt id="808">2.57816e-12</wgt>
  <wgt id="809">2.06438e-12</wgt>
  <wgt id="810">4.23676e-12</wgt>
  <wgt id="811">2.74237e-12</wgt>
  <wgt id="812">5.89749e-13</wgt>
  <wgt id="813">7.67144e-13</wgt>
  <wgt id="814">1.3084e-12</wgt>
  <wgt id="815">6.4017e-13</wgt>
  <wgt id="816">1.03354e-12</wgt>
  <wgt id="817">2.70549e-12</wgt>
  <wgt id="818">4.02182e-12</wgt>
  <wgt id="819">9.4742e-13</wgt>
  <wgt id="820">2.16929e-12</wgt>
  <wgt id="821">3.40253e-12</wgt>
  <wgt id="822">1.79124e-12</wgt>
  <wgt id="823">3.7681e-12</wgt>
  <wgt id="824">4.06589e-12</wgt>
  <wgt id="825">8.43835e-14</wgt>
  <wgt id="826">3.89347e-12</wgt>
  <wgt id="827">2.09701e-13</wgt>
  <wgt id="828">3.47248e-12</wgt>
  <wgt id="829">2.66527e-12</wgt>
  <wgt id="830">1.4671e-13</wgt>
  <wgt id="831">3.4232e-12</wgt>
  <wgt id="832">5.36183e-12</wgt>
  <wgt id="833">1.68634e-12</wgt>
  <wgt id="834">5.36765e-12</wgt>
  <wgt id="835">1.17105e-12</wgt>
  <wgt id="836">1.56702e-12</wgt>
  <wgt id="837">3.3001e-12</wgt>
  <wgt id="838">1.51501e-12</wgt>
  <wgt id="839">3.52993e-12</wgt>
  <wgt id="840">1.99741e-12</wgt>
  <wgt id="841">4.0581e-12</wgt>
  <wgt id="842">2.76296e-12</wgt>
  <wgt id="843">2.71431e-12</wgt>
  <wgt id="844">3.17388e-12</wgt>
  <wgt id="845">5.57324e-12</wgt>
  <wgt id="846">2.03314e-12</wgt>
  <wgt id="847">2.94182e-12</wgt>
  <wgt id="848">6.4571e-13</wgt>
  <wgt id="849">3.14092e-12</wgt>
  <wgt id="850">4.84769e-12</wgt>
  <wgt id="851">3.39691e-12</wgt>
  <wgt id="852">1.786e-13</wgt>
  <wgt id="853">3.60267e-12</wgt>
  <wgt id="854">4.3274e-12</wgt>
  <wgt id="855">3.45322e-12</wgt>
  <wgt id="856">1.39039e-13</wgt>
  <wgt id="857">1.77338e-12</wgt>
  <wgt id="858">2.60683e-12</wgt>
  <wgt id="859">2.44381e-12</wgt>
  <wgt id="860">3.56597e-12</wgt>
  <wgt id="861">1.70986e-12</wgt>
  <wgt id="862">2.76888e-12</wgt>
  <wgt id="863">3.31363e-12</wgt>
  <wgt id="864">2.56474e-12</wgt>
  <wgt id="865">4.97062e-12</wgt>
  <wgt id="866">5.37072e-12</wgt>
  <wgt id="867">2.54933e-12</wgt>
  <wgt id="868">2.98352e-12</wgt>
  <wgt id="869">5.91049e-13</wgt>
  <wgt id="870">1.29108e-12</wgt>
  <wgt id="871">1.62013e-12</wgt>
  <wgt id="872">4.64223e-12</wgt>
  <wgt id="873">1.71916e-12</wgt>
  <wgt id="874">3.1205e-12</wgt>
  <wgt id="875">1.44446e-12</wgt>
  <wgt id="876">4.27854e-12</wgt>
  <wgt id="877">3.15597e-12</wgt>
  <wgt id="878">1.8184e-12</wgt>
  <wgt id="879">4.39918e-12</wgt>
  <wgt id="880">4.41297e-12</wgt>
  <wgt id="881">5.01901e-12</wgt>
  <wgt id="882">4.89022e-12</wgt>
  <wgt id="883">4.47685e-12</wgt>
  <wgt id="884">4.19594e-12</wgt>
  <wgt id="885">4.69364e-12</wgt>
  <wgt id="886">3.80638e-12</wgt>
  <wgt id="887">4.77156e-12</wgt>
  <wgt id="888">4.49191e-12</wgt>
  <wgt id="889">4.70727e-12</wgt>
  <wgt id="890">4.46695e-12</wgt>
  <wgt id="891">4.25451e-12</wgt>
  <wgt id="892">4.70805e-12</wgt>
  <wgt id="893">4.56596e-12</wgt>
  <wgt id="894">4.49811e-12</wgt>
  <wgt id="895">4.218e-12</wgt>
  <wgt id="896">6.47445e-12</wgt>
  <wgt id="897">5.02449e-12</wgt>
  <wgt id="898">3.92064e-12</wgt>
  <wgt id="899">4.06497e-12</wgt>
  <wgt id="900">3.69402e-12</wgt>
  <wgt id="901">3.32845e-12</wgt>
  <wgt id="902">3.5893e-12</wgt>
  <wgt id="903">3.84309e-12</wgt>
  <wgt id="904">4.40185e-12</wgt>
  <wgt id="905">4.05912e-12</wgt>
  <wgt id="906">5.94455e-12</wgt>
  <wgt id="907">5.06686e-12</wgt>
  <wgt id="908">5.0284e-12</wgt>
  <wgt id="909">3.92189e-12</wgt>
  <wgt id="910">4.00772e-12</wgt>
  <wgt id="911">4.00861e-12</wgt>
  <wgt id="912">4.16491e-12</wgt>
  <wgt id="913">3.17129e-12</wgt>
  <wgt id="914">4.97971e-12</wgt>
  <wgt id="915">4.03537e-12</wgt>
  <wgt id="916">4.75548e-12</wgt>
  <wgt id="917">3.70135e-12</wgt>
  <wgt id="918">4.04293e-12</wgt>
  <wgt id="919">4.16877e-12</wgt>
  <wgt id="920">3.52069e-12</wgt>
  <wgt id="921">4.5111e-12</wgt>
  <wgt id="922">4.04319e-12</wgt>
  <wgt id="923">4.71218e-12</wgt>
  <wgt id="924">3.65272e-12</wgt>
  <wgt id="925">3.02389e-12</wgt>
  <wgt id="926">5.24305e-12</wgt>
  <wgt id="927">4.92055e-12</wgt>
  <wgt id="928">4.6617e-12</wgt>
  <wgt id="929">4.34997e-12</wgt>
  <wgt id="930">4.50172e-12</wgt>
  <wgt id="931">4.52238e-12</wgt>
  <wgt id="932">3.63172e-12</wgt>
  <wgt id="933">5.05749e-12</wgt>
  <wgt id="934">4.36684e-12</wgt>
  <wgt id="935">5.34009e-12</wgt>
  <wgt id="936">3.92714e-12</wgt>
  <wgt id="937">4.61706e-12</wgt>
  <wgt id="938">4.25262e-12</wgt>
  <wgt id="939">3.9132e-12</wgt>
  <wgt id="940">3.56159e-12</wgt>
  <wgt id="941">4.12568e-12</wgt>
  <wgt id="942">4.54041e-12</wgt>
  <wgt id="943">5.58596e-12</wgt>
  <wgt id="944">4.98843e-12</wgt>
  <wgt id="945">3.90597e-12</wgt>
  <wgt id="946">3.91417e-12</wgt>
  <wgt id="947">4.24465e-12</wgt>
  <wgt id="948">5.06827e-12</wgt>
  <wgt id="949">5.2298e-12</wgt>
  <wgt id="950">3.46057e-12</wgt>
  <wgt id="951">4.12857e-12</wgt>
  <wgt id="952">4.68113e-12</wgt>
  <wgt id="953">4.85656e-12</wgt>
  <wgt id="954">4.46932e-12</wgt>
  <wgt id="955">3.85375e-12</wgt>
  <wgt id="956">3.76782e-12</wgt>
  <wgt id="957">4.60663e-12</wgt>
  <wgt id="958">4.19146e-12</wgt>
  <wgt id="959">4.16169e-12</wgt>
  <wgt id="960">3.58798e-12</wgt>
  <wgt id="961">4.24577e-12</wgt>
  <wgt id="962">4.80599e-12</wgt>
  <wgt id="963">4.03826e-12</wgt>
  <wgt id="964">5.14999e-12</wgt>
  <wgt id="965">5.18709e-12</wgt>
  <wgt id="966">4.7852e-12</wgt>
  <wgt id="967">4.89687e-12</wgt>
  <wgt id="968">4.50128e-12</wgt>
  <wgt id="969">4.56968e-12</wgt>
  <wgt id="970">4.54708e-12</wgt>
  <wgt id="971">3.85711e-12</wgt>
  <wgt id="972">4.59259e-12</wgt>
  <wgt id="973">3.81332e-12</wgt>
  <wgt id="974">5.7488e-12</wgt>
  <wgt id="975">4.23473e-12</wgt>
  <wgt id="976">4.5332e-12</wgt>
  <wgt id="977">3.29495e-12</wgt>
  <wgt id="978">4.66545e-12</wgt>
  <wgt id="979">5.57108e-12</wgt>
  <wgt id="980">4.35933e-12</wgt>
  <wgt id="981">4.58305e-12</wgt>
  <wgt id="982">4.29622e-12</wgt>
</rwgt>
</event>
<event>
 5   1  0.3028200E-11  0.2381842E+04  0.7818608E-02  0.7683649E-01
       21   -1    0    0  502  501  0.00000000000E+00  0.00000000000E+00  0.16372021296E+04  0.16372021296E+04  0.00000000000E+00 0.  1.
       21   -1    0    0  501  502 -0.00000000000E+00 -0.00000000000E+00 -0.86629050940E+03  0.86629050940E+03  0.00000000000E+00 0. -1.
       39    2    1    2    0    0  0.00000000000E+00  0.00000000000E+00  0.77091162016E+03  0.25034926390E+04  0.23818418644E+04 0.  0.
       25    1    3    3    0    0 -0.10469402555E+04  0.36445412518E+03  0.82358732972E+03  0.13866621065E+04  0.12500000000E+03 0.  0.
       25    1    3    3    0    0  0.10469402555E+04 -0.36445412518E+03 -0.52675709564E+02  0.11168305325E+04  0.12500000000E+03 0.  0.
<mgrwt>
<rscale>  0 0.23818419E+04</rscale>
<asrwt>0</asrwt>
<pdfrwt beam="1">  1       21 0.25187725E+00 0.23818419E+04</pdfrwt>
<pdfrwt beam="2">  1       21 0.13327546E+00 0.23818419E+04</pdfrwt>
<totfact> 0.92997243E+00</totfact>
</mgrwt>
<rwgt>
  <wgt id="1">3.0282e-12</wgt>
  <wgt id="2">2.62861e-12</wgt>
  <wgt id="3">3.5256e-12</wgt>
  <wgt id="4">3.0282e-12</wgt>
  <wgt id="5">2.62861e-12</wgt>
  <wgt id="6">3.5256e-12</wgt>
  <wgt id="7">3.0282e-12</wgt>
  <wgt id="8">2.62861e-12</wgt>
  <wgt id="9">3.5256e-12</wgt>
  <wgt id="10">3.1552e-12</wgt>
  <wgt id="11">3.15294e-12</wgt>
  <wgt id="12">3.14946e-12</wgt>
  <wgt id="13">3.14535e-12</wgt>
  <wgt id="14">3.16673e-12</wgt>
  <wgt id="15">3.16047e-12</wgt>
  <wgt id="16">3.14993e-12</wgt>
  <wgt id="17">3.16422e-12</wgt>
  <wgt id="18">3.14929e-12</wgt>
  <wgt id="19">3.16324e-12</wgt>
  <wgt id="20">3.14796e-12</wgt>
  <wgt id="21">3.13318e-12</wgt>
  <wgt id="22">3.13919e-12</wgt>
  <wgt id="23">3.12078e-12</wgt>
  <wgt id="24">3.13784e-12</wgt>
  <wgt id="25">3.1461e-12</wgt>
  <wgt id="26">3.16635e-12</wgt>
  <wgt id="27">3.15338e-12</wgt>
  <wgt id="28">3.13923e-12</wgt>
  <wgt id="29">3.15741e-12</wgt>
  <wgt id="30">3.14143e-12</wgt>
  <wgt id="31">3.16685e-12</wgt>
  <wgt id="32">3.14589e-12</wgt>
  <wgt id="33">3.16222e-12</wgt>
  <wgt id="34">3.14148e-12</wgt>
  <wgt id="35">3.14869e-12</wgt>
  <wgt id="36">3.16717e-12</wgt>
  <wgt id="37">3.14652e-12</wgt>
  <wgt id="38">3.14501e-12</wgt>
  <wgt id="39">3.19475e-12</wgt>
  <wgt id="40">3.15928e-12</wgt>
  <wgt id="41">3.15364e-12</wgt>
  <wgt id="42">3.16049e-12</wgt>
  <wgt id="43">3.15475e-12</wgt>
  <wgt id="44">3.15267e-12</wgt>
  <wgt id="45">3.1621e-12</wgt>
  <wgt id="46">3.15532e-12</wgt>
  <wgt id="47">3.15483e-12</wgt>
  <wgt id="48">3.15781e-12</wgt>
  <wgt id="49">3.1502e-12</wgt>
  <wgt id="50">3.15813e-12</wgt>
  <wgt id="51">3.15829e-12</wgt>
  <wgt id="52">3.15901e-12</wgt>
  <wgt id="53">3.1433e-12</wgt>
  <wgt id="54">3.15391e-12</wgt>
  <wgt id="55">3.15518e-12</wgt>
  <wgt id="56">3.16483e-12</wgt>
  <wgt id="57">3.15969e-12</wgt>
  <wgt id="58">3.14075e-12</wgt>
  <wgt id="59">3.14781e-12</wgt>
  <wgt id="60">3.15385e-12</wgt>
  <wgt id="61">3.13847e-12</wgt>
  <wgt id="62">3.14691e-12</wgt>
  <wgt id="63">3.1526e-12</wgt>
  <wgt id="64">3.15618e-12</wgt>
  <wgt id="65">3.15796e-12</wgt>
  <wgt id="66">3.15157e-12</wgt>
  <wgt id="67">3.1418e-12</wgt>
  <wgt id="68">3.15354e-12</wgt>
  <wgt id="69">3.15502e-12</wgt>
  <wgt id="70">3.15477e-12</wgt>
  <wgt id="71">3.15299e-12</wgt>
  <wgt id="72">3.14572e-12</wgt>
  <wgt id="73">3.16076e-12</wgt>
  <wgt id="74">3.15756e-12</wgt>
  <wgt id="75">3.15278e-12</wgt>
  <wgt id="76">3.16522e-12</wgt>
  <wgt id="77">3.15326e-12</wgt>
  <wgt id="78">3.15375e-12</wgt>
  <wgt id="79">3.1637e-12</wgt>
  <wgt id="80">3.14022e-12</wgt>
  <wgt id="81">3.15402e-12</wgt>
  <wgt id="82">3.15564e-12</wgt>
  <wgt id="83">3.14204e-12</wgt>
  <wgt id="84">3.15071e-12</wgt>
  <wgt id="85">3.14718e-12</wgt>
  <wgt id="86">3.16533e-12</wgt>
  <wgt id="87">3.13629e-12</wgt>
  <wgt id="88">3.15893e-12</wgt>
  <wgt id="89">3.15775e-12</wgt>
  <wgt id="90">3.16362e-12</wgt>
  <wgt id="91">3.1587e-12</wgt>
  <wgt id="92">3.16194e-12</wgt>
  <wgt id="93">3.15814e-12</wgt>
  <wgt id="94">3.15179e-12</wgt>
  <wgt id="95">3.16246e-12</wgt>
  <wgt id="96">3.15847e-12</wgt>
  <wgt id="97">3.14767e-12</wgt>
  <wgt id="98">3.15661e-12</wgt>
  <wgt id="99">3.14834e-12</wgt>
  <wgt id="100">3.16053e-12</wgt>
  <wgt id="101">3.15635e-12</wgt>
  <wgt id="102">3.15317e-12</wgt>
  <wgt id="103">3.16069e-12</wgt>
  <wgt id="104">3.15326e-12</wgt>
  <wgt id="105">3.16037e-12</wgt>
  <wgt id="106">3.14961e-12</wgt>
  <wgt id="107">3.1665e-12</wgt>
  <wgt id="108">3.15079e-12</wgt>
  <wgt id="109">3.15683e-12</wgt>
  <wgt id="110">3.155e-12</wgt>
  <wgt id="111">3.17977e-12</wgt>
  <wgt id="112">3.16692e-12</wgt>
  <wgt id="113">4.34679e-12</wgt>
  <wgt id="114">4.37143e-12</wgt>
  <wgt id="115">4.30422e-12</wgt>
  <wgt id="116">6.05475e-12</wgt>
  <wgt id="117">3.51994e-12</wgt>
  <wgt id="118">3.53275e-12</wgt>
  <wgt id="119">3.51261e-12</wgt>
  <wgt id="120">3.52022e-12</wgt>
  <wgt id="121">3.51976e-12</wgt>
  <wgt id="122">3.51391e-12</wgt>
  <wgt id="123">3.5282e-12</wgt>
  <wgt id="124">3.51503e-12</wgt>
  <wgt id="125">3.52306e-12</wgt>
  <wgt id="126">3.52618e-12</wgt>
  <wgt id="127">3.51576e-12</wgt>
  <wgt id="128">3.53087e-12</wgt>
  <wgt id="129">3.50905e-12</wgt>
  <wgt id="130">3.53977e-12</wgt>
  <wgt id="131">3.49954e-12</wgt>
  <wgt id="132">3.42602e-12</wgt>
  <wgt id="133">3.63143e-12</wgt>
  <wgt id="134">3.48146e-12</wgt>
  <wgt id="135">3.55003e-12</wgt>
  <wgt id="136">3.56803e-12</wgt>
  <wgt id="137">3.46189e-12</wgt>
  <wgt id="138">3.6644e-12</wgt>
  <wgt id="139">3.38118e-12</wgt>
  <wgt id="140">3.49836e-12</wgt>
  <wgt id="141">3.53673e-12</wgt>
  <wgt id="142">3.52004e-12</wgt>
  <wgt id="143">3.5267e-12</wgt>
  <wgt id="144">3.40572e-12</wgt>
  <wgt id="145">3.62763e-12</wgt>
  <wgt id="146">3.55636e-12</wgt>
  <wgt id="147">3.49082e-12</wgt>
  <wgt id="148">3.53164e-12</wgt>
  <wgt id="149">3.51911e-12</wgt>
  <wgt id="150">3.55051e-12</wgt>
  <wgt id="151">3.5056e-12</wgt>
  <wgt id="152">3.52147e-12</wgt>
  <wgt id="153">3.51941e-12</wgt>
  <wgt id="154">3.54262e-12</wgt>
  <wgt id="155">3.49099e-12</wgt>
  <wgt id="156">3.60495e-12</wgt>
  <wgt id="157">3.43535e-12</wgt>
  <wgt id="158">4.23098e-12</wgt>
  <wgt id="159">4.24859e-12</wgt>
  <wgt id="160">4.21654e-12</wgt>
  <wgt id="161">4.21989e-12</wgt>
  <wgt id="162">4.24285e-12</wgt>
  <wgt id="163">4.22589e-12</wgt>
  <wgt id="164">4.23767e-12</wgt>
  <wgt id="165">4.23223e-12</wgt>
  <wgt id="166">4.22948e-12</wgt>
  <wgt id="167">4.22786e-12</wgt>
  <wgt id="168">4.23506e-12</wgt>
  <wgt id="169">4.2129e-12</wgt>
  <wgt id="170">4.242e-12</wgt>
  <wgt id="171">4.22614e-12</wgt>
  <wgt id="172">4.23693e-12</wgt>
  <wgt id="173">4.22834e-12</wgt>
  <wgt id="174">4.23155e-12</wgt>
  <wgt id="175">4.10899e-12</wgt>
  <wgt id="176">4.38951e-12</wgt>
  <wgt id="177">4.25335e-12</wgt>
  <wgt id="178">4.21025e-12</wgt>
  <wgt id="179">4.42056e-12</wgt>
  <wgt id="180">3.93334e-12</wgt>
  <wgt id="181">4.10123e-12</wgt>
  <wgt id="182">4.31678e-12</wgt>
  <wgt id="183">4.15188e-12</wgt>
  <wgt id="184">4.26987e-12</wgt>
  <wgt id="185">4.1927e-12</wgt>
  <wgt id="186">4.27722e-12</wgt>
  <wgt id="187">4.18997e-12</wgt>
  <wgt id="188">4.30404e-12</wgt>
  <wgt id="189">4.2013e-12</wgt>
  <wgt id="190">4.24281e-12</wgt>
  <wgt id="191">4.24338e-12</wgt>
  <wgt id="192">4.22311e-12</wgt>
  <wgt id="193">4.29475e-12</wgt>
  <wgt id="194">4.19901e-12</wgt>
  <wgt id="195">4.10957e-12</wgt>
  <wgt id="196">4.43861e-12</wgt>
  <wgt id="197">4.25285e-12</wgt>
  <wgt id="198">4.22557e-12</wgt>
  <wgt id="199">4.23098e-12</wgt>
  <wgt id="200">4.26879e-12</wgt>
  <wgt id="201">4.25507e-12</wgt>
  <wgt id="202">4.24222e-12</wgt>
  <wgt id="203">4.22242e-12</wgt>
  <wgt id="204">4.21312e-12</wgt>
  <wgt id="205">4.2052e-12</wgt>
  <wgt id="206">4.10754e-12</wgt>
  <wgt id="207">4.13187e-12</wgt>
  <wgt id="208">4.08359e-12</wgt>
  <wgt id="209">4.12065e-12</wgt>
  <wgt id="210">4.09803e-12</wgt>
  <wgt id="211">4.10606e-12</wgt>
  <wgt id="212">4.10873e-12</wgt>
  <wgt id="213">4.10717e-12</wgt>
  <wgt id="214">4.10811e-12</wgt>
  <wgt id="215">4.1107e-12</wgt>
  <wgt id="216">4.10527e-12</wgt>
  <wgt id="217">4.11894e-12</wgt>
  <wgt id="218">4.09879e-12</wgt>
  <wgt id="219">4.10343e-12</wgt>
  <wgt id="220">4.11008e-12</wgt>
  <wgt id="221">4.10659e-12</wgt>
  <wgt id="222">4.10938e-12</wgt>
  <wgt id="223">3.88412e-12</wgt>
  <wgt id="224">4.31171e-12</wgt>
  <wgt id="225">4.05706e-12</wgt>
  <wgt id="226">4.17135e-12</wgt>
  <wgt id="227">4.0681e-12</wgt>
  <wgt id="228">4.12493e-12</wgt>
  <wgt id="229">4.0496e-12</wgt>
  <wgt id="230">4.13636e-12</wgt>
  <wgt id="231">4.23153e-12</wgt>
  <wgt id="232">4.00579e-12</wgt>
  <wgt id="233">4.08488e-12</wgt>
  <wgt id="234">4.14432e-12</wgt>
  <wgt id="235">3.99932e-12</wgt>
  <wgt id="236">4.2023e-12</wgt>
  <wgt id="237">4.03871e-12</wgt>
  <wgt id="238">4.13072e-12</wgt>
  <wgt id="239">4.07858e-12</wgt>
  <wgt id="240">4.15979e-12</wgt>
  <wgt id="241">4.06319e-12</wgt>
  <wgt id="242">4.16084e-12</wgt>
  <wgt id="243">4.16603e-12</wgt>
  <wgt id="244">4.12263e-12</wgt>
  <wgt id="245">4.10506e-12</wgt>
  <wgt id="246">4.13572e-12</wgt>
  <wgt id="247">4.10754e-12</wgt>
  <wgt id="248">4.14551e-12</wgt>
  <wgt id="249">4.13167e-12</wgt>
  <wgt id="250">4.11803e-12</wgt>
  <wgt id="251">4.09825e-12</wgt>
  <wgt id="252">4.08882e-12</wgt>
  <wgt id="253">4.08202e-12</wgt>
  <wgt id="254">4.00755e-12</wgt>
  <wgt id="255">4.01145e-12</wgt>
  <wgt id="256">4.00346e-12</wgt>
  <wgt id="257">4.01062e-12</wgt>
  <wgt id="258">4.00535e-12</wgt>
  <wgt id="259">4.03442e-12</wgt>
  <wgt id="260">3.98165e-12</wgt>
  <wgt id="261">4.0139e-12</wgt>
  <wgt id="262">4.0001e-12</wgt>
  <wgt id="263">4.0054e-12</wgt>
  <wgt id="264">4.01012e-12</wgt>
  <wgt id="265">4.00271e-12</wgt>
  <wgt id="266">4.01731e-12</wgt>
  <wgt id="267">4.00896e-12</wgt>
  <wgt id="268">4.00572e-12</wgt>
  <wgt id="269">4.02066e-12</wgt>
  <wgt id="270">3.99869e-12</wgt>
  <wgt id="271">3.99974e-12</wgt>
  <wgt id="272">4.01629e-12</wgt>
  <wgt id="273">3.99553e-12</wgt>
  <wgt id="274">4.01682e-12</wgt>
  <wgt id="275">3.9888e-12</wgt>
  <wgt id="276">4.02702e-12</wgt>
  <wgt id="277">3.98426e-12</wgt>
  <wgt id="278">4.02894e-12</wgt>
  <wgt id="279">3.93027e-12</wgt>
  <wgt id="280">4.10477e-12</wgt>
  <wgt id="281">3.98943e-12</wgt>
  <wgt id="282">4.00948e-12</wgt>
  <wgt id="283">3.88792e-12</wgt>
  <wgt id="284">4.15531e-12</wgt>
  <wgt id="285">3.80954e-12</wgt>
  <wgt id="286">4.17232e-12</wgt>
  <wgt id="287">4.02065e-12</wgt>
  <wgt id="288">3.99086e-12</wgt>
  <wgt id="289">4.03694e-12</wgt>
  <wgt id="290">3.94019e-12</wgt>
  <wgt id="291">3.99519e-12</wgt>
  <wgt id="292">4.00977e-12</wgt>
  <wgt id="293">3.97551e-12</wgt>
  <wgt id="294">4.03954e-12</wgt>
  <wgt id="295">3.92921e-12</wgt>
  <wgt id="296">4.10337e-12</wgt>
  <wgt id="297">4.00473e-12</wgt>
  <wgt id="298">4.02437e-12</wgt>
  <wgt id="299">3.99442e-12</wgt>
  <wgt id="300">4.04256e-12</wgt>
  <wgt id="301">3.944e-12</wgt>
  <wgt id="302">4.16256e-12</wgt>
  <wgt id="303">3.9731e-12</wgt>
  <wgt id="304">4.02725e-12</wgt>
  <wgt id="305">4.00753e-12</wgt>
  <wgt id="306">4.01151e-12</wgt>
  <wgt id="307">4.00321e-12</wgt>
  <wgt id="308">4.01087e-12</wgt>
  <wgt id="309">4.0053e-12</wgt>
  <wgt id="310">4.03527e-12</wgt>
  <wgt id="311">3.98185e-12</wgt>
  <wgt id="312">4.01276e-12</wgt>
  <wgt id="313">4.00201e-12</wgt>
  <wgt id="314">4.00532e-12</wgt>
  <wgt id="315">4.00959e-12</wgt>
  <wgt id="316">4.00281e-12</wgt>
  <wgt id="317">4.01779e-12</wgt>
  <wgt id="318">4.01051e-12</wgt>
  <wgt id="319">4.00233e-12</wgt>
  <wgt id="320">4.02136e-12</wgt>
  <wgt id="321">3.99984e-12</wgt>
  <wgt id="322">3.99789e-12</wgt>
  <wgt id="323">4.01871e-12</wgt>
  <wgt id="324">3.99759e-12</wgt>
  <wgt id="325">4.01615e-12</wgt>
  <wgt id="326">3.99242e-12</wgt>
  <wgt id="327">4.02694e-12</wgt>
  <wgt id="328">3.98667e-12</wgt>
  <wgt id="329">4.01924e-12</wgt>
  <wgt id="330">4.12594e-12</wgt>
  <wgt id="331">3.89465e-12</wgt>
  <wgt id="332">3.99243e-12</wgt>
  <wgt id="333">4.00838e-12</wgt>
  <wgt id="334">3.91425e-12</wgt>
  <wgt id="335">4.12364e-12</wgt>
  <wgt id="336">3.86447e-12</wgt>
  <wgt id="337">4.18241e-12</wgt>
  <wgt id="338">4.05345e-12</wgt>
  <wgt id="339">3.965e-12</wgt>
  <wgt id="340">4.03494e-12</wgt>
  <wgt id="341">3.93773e-12</wgt>
  <wgt id="342">3.99863e-12</wgt>
  <wgt id="343">4.00292e-12</wgt>
  <wgt id="344">3.97861e-12</wgt>
  <wgt id="345">4.0411e-12</wgt>
  <wgt id="346">3.92627e-12</wgt>
  <wgt id="347">4.10101e-12</wgt>
  <wgt id="348">4.00603e-12</wgt>
  <wgt id="349">4.02186e-12</wgt>
  <wgt id="350">3.99102e-12</wgt>
  <wgt id="351">4.04943e-12</wgt>
  <wgt id="352">3.93885e-12</wgt>
  <wgt id="353">4.16643e-12</wgt>
  <wgt id="354">3.95574e-12</wgt>
  <wgt id="355">4.03888e-12</wgt>
  <wgt id="356">4.00755e-12</wgt>
  <wgt id="357">4.02054e-12</wgt>
  <wgt id="358">4.00753e-12</wgt>
  <wgt id="359">4.01795e-12</wgt>
  <wgt id="360">4.04569e-12</wgt>
  <wgt id="361">4.02257e-12</wgt>
  <wgt id="362">4.09553e-12</wgt>
  <wgt id="363">4.08552e-12</wgt>
  <wgt id="364">4.06973e-12</wgt>
  <wgt id="365">4.05555e-12</wgt>
  <wgt id="366">4.04e-12</wgt>
  <wgt id="367">4.0086e-12</wgt>
  <wgt id="368">3.99063e-12</wgt>
  <wgt id="369">3.97133e-12</wgt>
  <wgt id="370">4.02257e-12</wgt>
  <wgt id="371">4.04027e-12</wgt>
  <wgt id="372">4.0305e-12</wgt>
  <wgt id="373">4.01605e-12</wgt>
  <wgt id="374">4.01639e-12</wgt>
  <wgt id="375">4.36714e-12</wgt>
  <wgt id="376">4.36771e-12</wgt>
  <wgt id="377">4.36652e-12</wgt>
  <wgt id="378">4.38327e-12</wgt>
  <wgt id="379">4.35149e-12</wgt>
  <wgt id="380">4.3791e-12</wgt>
  <wgt id="381">4.36262e-12</wgt>
  <wgt id="382">4.38995e-12</wgt>
  <wgt id="383">4.34484e-12</wgt>
  <wgt id="384">4.37003e-12</wgt>
  <wgt id="385">4.36429e-12</wgt>
  <wgt id="386">4.38436e-12</wgt>
  <wgt id="387">4.36004e-12</wgt>
  <wgt id="388">4.36305e-12</wgt>
  <wgt id="389">4.37241e-12</wgt>
  <wgt id="390">4.379e-12</wgt>
  <wgt id="391">4.35496e-12</wgt>
  <wgt id="392">4.3316e-12</wgt>
  <wgt id="393">4.38773e-12</wgt>
  <wgt id="394">4.37272e-12</wgt>
  <wgt id="395">4.35994e-12</wgt>
  <wgt id="396">4.37168e-12</wgt>
  <wgt id="397">4.36423e-12</wgt>
  <wgt id="398">4.3508e-12</wgt>
  <wgt id="399">4.38329e-12</wgt>
  <wgt id="400">4.36002e-12</wgt>
  <wgt id="401">4.38392e-12</wgt>
  <wgt id="402">4.33016e-12</wgt>
  <wgt id="403">4.38555e-12</wgt>
  <wgt id="404">4.47517e-12</wgt>
  <wgt id="405">4.10792e-12</wgt>
  <wgt id="406">4.28995e-12</wgt>
  <wgt id="407">4.53658e-12</wgt>
  <wgt id="408">4.40721e-12</wgt>
  <wgt id="409">4.29135e-12</wgt>
  <wgt id="410">4.2406e-12</wgt>
  <wgt id="411">4.42658e-12</wgt>
  <wgt id="412">4.35892e-12</wgt>
  <wgt id="413">4.38004e-12</wgt>
  <wgt id="414">4.3166e-12</wgt>
  <wgt id="415">4.40652e-12</wgt>
  <wgt id="416">4.49235e-12</wgt>
  <wgt id="417">4.19453e-12</wgt>
  <wgt id="418">4.37375e-12</wgt>
  <wgt id="419">4.3316e-12</wgt>
  <wgt id="420">4.44442e-12</wgt>
  <wgt id="421">4.32033e-12</wgt>
  <wgt id="422">4.35515e-12</wgt>
  <wgt id="423">4.37368e-12</wgt>
  <wgt id="424">4.46745e-12</wgt>
  <wgt id="425">4.30249e-12</wgt>
  <wgt id="426">4.36714e-12</wgt>
  <wgt id="427">4.31617e-12</wgt>
  <wgt id="428">4.50362e-12</wgt>
  <wgt id="429">4.41215e-12</wgt>
  <wgt id="430">4.54141e-12</wgt>
  <wgt id="431">4.51571e-12</wgt>
  <wgt id="432">4.49139e-12</wgt>
  <wgt id="433">4.46783e-12</wgt>
  <wgt id="434">4.43887e-12</wgt>
  <wgt id="435">4.37914e-12</wgt>
  <wgt id="436">4.34889e-12</wgt>
  <wgt id="437">4.31963e-12</wgt>
  <wgt id="438">4.41215e-12</wgt>
  <wgt id="439">4.42651e-12</wgt>
  <wgt id="440">4.41783e-12</wgt>
  <wgt id="441">4.40792e-12</wgt>
  <wgt id="442">4.40451e-12</wgt>
  <wgt id="443">4.20572e-12</wgt>
  <wgt id="444">4.23498e-12</wgt>
  <wgt id="445">4.20385e-12</wgt>
  <wgt id="446">4.17705e-12</wgt>
  <wgt id="447">4.19619e-12</wgt>
  <wgt id="448">4.09513e-12</wgt>
  <wgt id="449">4.27632e-12</wgt>
  <wgt id="450">4.20963e-12</wgt>
  <wgt id="451">4.19717e-12</wgt>
  <wgt id="452">4.30179e-12</wgt>
  <wgt id="453">4.24782e-12</wgt>
  <wgt id="454">4.02379e-12</wgt>
  <wgt id="455">4.21866e-12</wgt>
  <wgt id="456">4.20259e-12</wgt>
  <wgt id="457">4.22239e-12</wgt>
  <wgt id="458">4.26174e-12</wgt>
  <wgt id="459">4.23786e-12</wgt>
  <wgt id="460">4.24501e-12</wgt>
  <wgt id="461">4.11987e-12</wgt>
  <wgt id="462">4.17201e-12</wgt>
  <wgt id="463">4.15273e-12</wgt>
  <wgt id="464">4.18259e-12</wgt>
  <wgt id="465">4.2518e-12</wgt>
  <wgt id="466">4.14461e-12</wgt>
  <wgt id="467">4.16549e-12</wgt>
  <wgt id="468">4.19542e-12</wgt>
  <wgt id="469">4.19457e-12</wgt>
  <wgt id="470">4.16029e-12</wgt>
  <wgt id="471">4.16418e-12</wgt>
  <wgt id="472">4.22731e-12</wgt>
  <wgt id="473">4.06735e-12</wgt>
  <wgt id="474">3.0282e-12</wgt>
  <wgt id="475">3.13956e-12</wgt>
  <wgt id="476">2.97797e-12</wgt>
  <wgt id="477">2.96248e-12</wgt>
  <wgt id="478">3.05018e-12</wgt>
  <wgt id="479">2.95254e-12</wgt>
  <wgt id="480">3.15355e-12</wgt>
  <wgt id="481">3.00422e-12</wgt>
  <wgt id="482">2.96145e-12</wgt>
  <wgt id="483">2.9593e-12</wgt>
  <wgt id="484">3.15811e-12</wgt>
  <wgt id="485">2.95786e-12</wgt>
  <wgt id="486">3.14772e-12</wgt>
  <wgt id="487">3.04924e-12</wgt>
  <wgt id="488">3.08105e-12</wgt>
  <wgt id="489">2.87072e-12</wgt>
  <wgt id="490">2.91036e-12</wgt>
  <wgt id="491">3.00344e-12</wgt>
  <wgt id="492">2.95902e-12</wgt>
  <wgt id="493">2.89318e-12</wgt>
  <wgt id="494">2.91826e-12</wgt>
  <wgt id="495">3.06215e-12</wgt>
  <wgt id="496">2.92588e-12</wgt>
  <wgt id="497">2.89238e-12</wgt>
  <wgt id="498">3.10004e-12</wgt>
  <wgt id="499">2.98607e-12</wgt>
  <wgt id="500">2.96788e-12</wgt>
  <wgt id="501">3.16236e-12</wgt>
  <wgt id="502">3.00506e-12</wgt>
  <wgt id="503">3.0228e-12</wgt>
  <wgt id="504">3.08626e-12</wgt>
  <wgt id="505">3.03061e-12</wgt>
  <wgt id="506">3.00654e-12</wgt>
  <wgt id="507">3.02115e-12</wgt>
  <wgt id="508">3.11737e-12</wgt>
  <wgt id="509">2.87012e-12</wgt>
  <wgt id="510">3.10724e-12</wgt>
  <wgt id="511">2.94061e-12</wgt>
  <wgt id="512">3.12136e-12</wgt>
  <wgt id="513">3.15722e-12</wgt>
  <wgt id="514">3.06013e-12</wgt>
  <wgt id="515">3.01633e-12</wgt>
  <wgt id="516">3.18497e-12</wgt>
  <wgt id="517">3.09758e-12</wgt>
  <wgt id="518">3.10884e-12</wgt>
  <wgt id="519">2.93248e-12</wgt>
  <wgt id="520">3.0832e-12</wgt>
  <wgt id="521">3.09464e-12</wgt>
  <wgt id="522">3.15831e-12</wgt>
  <wgt id="523">3.02055e-12</wgt>
  <wgt id="524">3.03659e-12</wgt>
  <wgt id="525">3.10552e-12</wgt>
  <wgt id="526">3.07899e-12</wgt>
  <wgt id="527">3.05021e-12</wgt>
  <wgt id="528">3.04877e-12</wgt>
  <wgt id="529">2.97172e-12</wgt>
  <wgt id="530">3.10239e-12</wgt>
  <wgt id="531">2.97349e-12</wgt>
  <wgt id="532">3.22816e-12</wgt>
  <wgt id="533">2.89495e-12</wgt>
  <wgt id="534">3.01367e-12</wgt>
  <wgt id="535">3.04551e-12</wgt>
  <wgt id="536">3.02474e-12</wgt>
  <wgt id="537">3.00571e-12</wgt>
  <wgt id="538">3.05058e-12</wgt>
  <wgt id="539">2.97137e-12</wgt>
  <wgt id="540">3.02658e-12</wgt>
  <wgt id="541">2.94384e-12</wgt>
  <wgt id="542">2.99092e-12</wgt>
  <wgt id="543">3.00487e-12</wgt>
  <wgt id="544">3.1506e-12</wgt>
  <wgt id="545">2.96114e-12</wgt>
  <wgt id="546">2.93444e-12</wgt>
  <wgt id="547">2.94615e-12</wgt>
  <wgt id="548">2.90624e-12</wgt>
  <wgt id="549">2.97496e-12</wgt>
  <wgt id="550">2.96956e-12</wgt>
  <wgt id="551">3.06514e-12</wgt>
  <wgt id="552">2.92826e-12</wgt>
  <wgt id="553">2.98322e-12</wgt>
  <wgt id="554">3.23825e-12</wgt>
  <wgt id="555">3.10902e-12</wgt>
  <wgt id="556">2.91036e-12</wgt>
  <wgt id="557">3.10085e-12</wgt>
  <wgt id="558">2.95439e-12</wgt>
  <wgt id="559">2.97039e-12</wgt>
  <wgt id="560">3.32204e-12</wgt>
  <wgt id="561">3.00226e-12</wgt>
  <wgt id="562">3.10841e-12</wgt>
  <wgt id="563">3.05104e-12</wgt>
  <wgt id="564">3.09487e-12</wgt>
  <wgt id="565">2.96005e-12</wgt>
  <wgt id="566">3.05828e-12</wgt>
  <wgt id="567">3.00139e-12</wgt>
  <wgt id="568">3.00076e-12</wgt>
  <wgt id="569">3.07189e-12</wgt>
  <wgt id="570">2.90454e-12</wgt>
  <wgt id="571">3.35741e-12</wgt>
  <wgt id="572">2.96353e-12</wgt>
  <wgt id="573">2.91714e-12</wgt>
  <wgt id="574">2.93323e-12</wgt>
  <wgt id="575">3.34584e-12</wgt>
  <wgt id="576">3.40842e-12</wgt>
  <wgt id="577">3.44187e-12</wgt>
  <wgt id="578">3.44301e-12</wgt>
  <wgt id="579">3.43573e-12</wgt>
  <wgt id="580">3.46473e-12</wgt>
  <wgt id="581">3.60874e-12</wgt>
  <wgt id="582">3.39413e-12</wgt>
  <wgt id="583">3.38158e-12</wgt>
  <wgt id="584">3.33594e-12</wgt>
  <wgt id="585">3.27935e-12</wgt>
  <wgt id="586">3.23413e-12</wgt>
  <wgt id="587">3.39845e-12</wgt>
  <wgt id="588">3.38968e-12</wgt>
  <wgt id="589">3.47557e-12</wgt>
  <wgt id="590">3.36523e-12</wgt>
  <wgt id="591">3.46298e-12</wgt>
  <wgt id="592">3.18041e-12</wgt>
  <wgt id="593">3.31022e-12</wgt>
  <wgt id="594">3.40099e-12</wgt>
  <wgt id="595">3.37552e-12</wgt>
  <wgt id="596">3.49282e-12</wgt>
  <wgt id="597">3.29422e-12</wgt>
  <wgt id="598">3.22837e-12</wgt>
  <wgt id="599">3.498e-12</wgt>
  <wgt id="600">3.364e-12</wgt>
  <wgt id="601">3.24142e-12</wgt>
  <wgt id="602">3.25023e-12</wgt>
  <wgt id="603">3.24364e-12</wgt>
  <wgt id="604">3.40194e-12</wgt>
  <wgt id="605">3.45913e-12</wgt>
  <wgt id="606">3.32872e-12</wgt>
  <wgt id="607">3.35435e-12</wgt>
  <wgt id="608">3.41182e-12</wgt>
  <wgt id="609">3.20987e-12</wgt>
  <wgt id="610">3.22575e-12</wgt>
  <wgt id="611">3.32707e-12</wgt>
  <wgt id="612">3.5685e-12</wgt>
  <wgt id="613">3.29474e-12</wgt>
  <wgt id="614">3.36329e-12</wgt>
  <wgt id="615">3.30869e-12</wgt>
  <wgt id="616">3.45046e-12</wgt>
  <wgt id="617">3.46261e-12</wgt>
  <wgt id="618">3.54181e-12</wgt>
  <wgt id="619">3.29602e-12</wgt>
  <wgt id="620">3.47875e-12</wgt>
  <wgt id="621">3.35468e-12</wgt>
  <wgt id="622">3.39845e-12</wgt>
  <wgt id="623">3.42344e-12</wgt>
  <wgt id="624">3.35218e-12</wgt>
  <wgt id="625">3.27188e-12</wgt>
  <wgt id="626">3.19802e-12</wgt>
  <wgt id="627">3.16854e-12</wgt>
  <wgt id="628">3.46101e-12</wgt>
  <wgt id="629">3.2984e-12</wgt>
  <wgt id="630">3.24408e-12</wgt>
  <wgt id="631">3.378e-12</wgt>
  <wgt id="632">3.16863e-12</wgt>
  <wgt id="633">3.32127e-12</wgt>
  <wgt id="634">3.29262e-12</wgt>
  <wgt id="635">3.194e-12</wgt>
  <wgt id="636">3.38121e-12</wgt>
  <wgt id="637">3.35015e-12</wgt>
  <wgt id="638">3.21929e-12</wgt>
  <wgt id="639">3.27924e-12</wgt>
  <wgt id="640">3.33141e-12</wgt>
  <wgt id="641">3.41412e-12</wgt>
  <wgt id="642">3.26034e-12</wgt>
  <wgt id="643">3.31141e-12</wgt>
  <wgt id="644">3.11212e-12</wgt>
  <wgt id="645">3.3658e-12</wgt>
  <wgt id="646">3.3054e-12</wgt>
  <wgt id="647">3.31842e-12</wgt>
  <wgt id="648">3.40335e-12</wgt>
  <wgt id="649">3.3804e-12</wgt>
  <wgt id="650">3.2477e-12</wgt>
  <wgt id="651">3.43708e-12</wgt>
  <wgt id="652">3.28912e-12</wgt>
  <wgt id="653">3.2429e-12</wgt>
  <wgt id="654">3.31053e-12</wgt>
  <wgt id="655">3.2831e-12</wgt>
  <wgt id="656">3.35416e-12</wgt>
  <wgt id="657">3.54251e-12</wgt>
  <wgt id="658">3.36422e-12</wgt>
  <wgt id="659">3.21136e-12</wgt>
  <wgt id="660">3.36891e-12</wgt>
  <wgt id="661">3.28772e-12</wgt>
  <wgt id="662">3.32177e-12</wgt>
  <wgt id="663">3.36411e-12</wgt>
  <wgt id="664">3.31951e-12</wgt>
  <wgt id="665">3.33693e-12</wgt>
  <wgt id="666">3.30348e-12</wgt>
  <wgt id="667">3.474e-12</wgt>
  <wgt id="668">3.33923e-12</wgt>
  <wgt id="669">3.40843e-12</wgt>
  <wgt id="670">3.44663e-12</wgt>
  <wgt id="671">3.33464e-12</wgt>
  <wgt id="672">3.20827e-12</wgt>
  <wgt id="673">3.40924e-12</wgt>
  <wgt id="674">3.26999e-12</wgt>
  <wgt id="675">3.29012e-12</wgt>
  <wgt id="676">4.26638e-12</wgt>
  <wgt id="677">4.31459e-12</wgt>
  <wgt id="678">4.52298e-12</wgt>
  <wgt id="679">4.06103e-12</wgt>
  <wgt id="680">4.21532e-12</wgt>
  <wgt id="681">4.30082e-12</wgt>
  <wgt id="682">4.41605e-12</wgt>
  <wgt id="683">4.14974e-12</wgt>
  <wgt id="684">4.45967e-12</wgt>
  <wgt id="685">4.11306e-12</wgt>
  <wgt id="686">4.15448e-12</wgt>
  <wgt id="687">4.46206e-12</wgt>
  <wgt id="688">4.19413e-12</wgt>
  <wgt id="689">4.55228e-12</wgt>
  <wgt id="690">4.44288e-12</wgt>
  <wgt id="691">4.46462e-12</wgt>
  <wgt id="692">4.20682e-12</wgt>
  <wgt id="693">5.16918e-12</wgt>
  <wgt id="694">4.56865e-12</wgt>
  <wgt id="695">4.10955e-12</wgt>
  <wgt id="696">4.07529e-12</wgt>
  <wgt id="697">4.05989e-12</wgt>
  <wgt id="698">3.80244e-12</wgt>
  <wgt id="699">3.7915e-12</wgt>
  <wgt id="700">3.72899e-12</wgt>
  <wgt id="701">4.27476e-12</wgt>
  <wgt id="702">4.16552e-12</wgt>
  <wgt id="703">4.9893e-12</wgt>
  <wgt id="704">4.72251e-12</wgt>
  <wgt id="705">4.57712e-12</wgt>
  <wgt id="706">4.00375e-12</wgt>
  <wgt id="707">4.07132e-12</wgt>
  <wgt id="708">4.18552e-12</wgt>
  <wgt id="709">4.17693e-12</wgt>
  <wgt id="710">3.84077e-12</wgt>
  <wgt id="711">4.27479e-12</wgt>
  <wgt id="712">4.13179e-12</wgt>
  <wgt id="713">4.60331e-12</wgt>
  <wgt id="714">4.09614e-12</wgt>
  <wgt id="715">4.18404e-12</wgt>
  <wgt id="716">4.11495e-12</wgt>
  <wgt id="717">3.96557e-12</wgt>
  <wgt id="718">4.30115e-12</wgt>
  <wgt id="719">3.86655e-12</wgt>
  <wgt id="720">4.10324e-12</wgt>
  <wgt id="721">3.81673e-12</wgt>
  <wgt id="722">3.67485e-12</wgt>
  <wgt id="723">4.61079e-12</wgt>
  <wgt id="724">4.51211e-12</wgt>
  <wgt id="725">4.48424e-12</wgt>
  <wgt id="726">4.28607e-12</wgt>
  <wgt id="727">4.19739e-12</wgt>
  <wgt id="728">4.14643e-12</wgt>
  <wgt id="729">4.04348e-12</wgt>
  <wgt id="730">4.63505e-12</wgt>
  <wgt id="731">4.19939e-12</wgt>
  <wgt id="732">4.76579e-12</wgt>
  <wgt id="733">4.16769e-12</wgt>
  <wgt id="734">4.37818e-12</wgt>
  <wgt id="735">4.28211e-12</wgt>
  <wgt id="736">4.11968e-12</wgt>
  <wgt id="737">4.28089e-12</wgt>
  <wgt id="738">4.05878e-12</wgt>
  <wgt id="739">4.44187e-12</wgt>
  <wgt id="740">4.81086e-12</wgt>
  <wgt id="741">3.93502e-12</wgt>
  <wgt id="742">4.21027e-12</wgt>
  <wgt id="743">4.00815e-12</wgt>
  <wgt id="744">4.18063e-12</wgt>
  <wgt id="745">4.50757e-12</wgt>
  <wgt id="746">4.60357e-12</wgt>
  <wgt id="747">3.76435e-12</wgt>
  <wgt id="748">4.19444e-12</wgt>
  <wgt id="749">4.46226e-12</wgt>
  <wgt id="750">4.45963e-12</wgt>
  <wgt id="751">4.35815e-12</wgt>
  <wgt id="752">3.89175e-12</wgt>
  <wgt id="753">3.98368e-12</wgt>
  <wgt id="754">4.4482e-12</wgt>
  <wgt id="755">4.25234e-12</wgt>
  <wgt id="756">4.24675e-12</wgt>
  <wgt id="757">3.86711e-12</wgt>
  <wgt id="758">4.25273e-12</wgt>
  <wgt id="759">4.51069e-12</wgt>
  <wgt id="760">4.25475e-12</wgt>
  <wgt id="761">4.54502e-12</wgt>
  <wgt id="762">4.57244e-12</wgt>
  <wgt id="763">4.25902e-12</wgt>
  <wgt id="764">4.46387e-12</wgt>
  <wgt id="765">4.31429e-12</wgt>
  <wgt id="766">4.27414e-12</wgt>
  <wgt id="767">4.36448e-12</wgt>
  <wgt id="768">3.98393e-12</wgt>
  <wgt id="769">4.52706e-12</wgt>
  <wgt id="770">4.14433e-12</wgt>
  <wgt id="771">5.0953e-12</wgt>
  <wgt id="772">4.06964e-12</wgt>
  <wgt id="773">4.2337e-12</wgt>
  <wgt id="774">3.64519e-12</wgt>
  <wgt id="775">4.47942e-12</wgt>
  <wgt id="776">4.68991e-12</wgt>
  <wgt id="777">3.97846e-12</wgt>
  <wgt id="778">3.05335e-12</wgt>
  <wgt id="779">2.34957e-12</wgt>
  <wgt id="780">1.77667e-12</wgt>
  <wgt id="781">3.39015e-12</wgt>
  <wgt id="782">3.36368e-12</wgt>
  <wgt id="783">2.33715e-12</wgt>
  <wgt id="784">2.53428e-12</wgt>
  <wgt id="785">3.97218e-12</wgt>
  <wgt id="786">2.21702e-12</wgt>
  <wgt id="787">3.60281e-12</wgt>
  <wgt id="788">1.58558e-12</wgt>
  <wgt id="789">2.41851e-12</wgt>
  <wgt id="790">2.17446e-12</wgt>
  <wgt id="791">3.05088e-12</wgt>
  <wgt id="792">4.05007e-12</wgt>
  <wgt id="793">2.99732e-12</wgt>
  <wgt id="794">2.12537e-12</wgt>
  <wgt id="795">3.75912e-12</wgt>
  <wgt id="796">4.0866e-12</wgt>
  <wgt id="797">3.71522e-12</wgt>
  <wgt id="798">2.67158e-12</wgt>
  <wgt id="799">3.56488e-12</wgt>
  <wgt id="800">2.47481e-12</wgt>
  <wgt id="801">2.81585e-12</wgt>
  <wgt id="802">2.10867e-12</wgt>
  <wgt id="803">4.39697e-12</wgt>
  <wgt id="804">3.73288e-12</wgt>
  <wgt id="805">3.75352e-12</wgt>
  <wgt id="806">3.34798e-12</wgt>
  <wgt id="807">2.90727e-12</wgt>
  <wgt id="808">2.93449e-12</wgt>
  <wgt id="809">2.80262e-12</wgt>
  <wgt id="810">3.41464e-12</wgt>
  <wgt id="811">3.30353e-12</wgt>
  <wgt id="812">2.16172e-12</wgt>
  <wgt id="813">2.26745e-12</wgt>
  <wgt id="814">2.46409e-12</wgt>
  <wgt id="815">2.3328e-12</wgt>
  <wgt id="816">2.15101e-12</wgt>
  <wgt id="817">3.15054e-12</wgt>
  <wgt id="818">3.29062e-12</wgt>
  <wgt id="819">2.34541e-12</wgt>
  <wgt id="820">3.00822e-12</wgt>
  <wgt id="821">3.57562e-12</wgt>
  <wgt id="822">2.44757e-12</wgt>
  <wgt id="823">3.64495e-12</wgt>
  <wgt id="824">4.3111e-12</wgt>
  <wgt id="825">2.04802e-12</wgt>
  <wgt id="826">3.38886e-12</wgt>
  <wgt id="827">1.69351e-12</wgt>
  <wgt id="828">3.91047e-12</wgt>
  <wgt id="829">3.17295e-12</wgt>
  <wgt id="830">1.93364e-12</wgt>
  <wgt id="831">3.37424e-12</wgt>
  <wgt id="832">5.16181e-12</wgt>
  <wgt id="833">2.71084e-12</wgt>
  <wgt id="834">4.90338e-12</wgt>
  <wgt id="835">2.40057e-12</wgt>
  <wgt id="836">2.87545e-12</wgt>
  <wgt id="837">3.51732e-12</wgt>
  <wgt id="838">2.77971e-12</wgt>
  <wgt id="839">3.34684e-12</wgt>
  <wgt id="840">2.75976e-12</wgt>
  <wgt id="841">3.95058e-12</wgt>
  <wgt id="842">2.80515e-12</wgt>
  <wgt id="843">3.11021e-12</wgt>
  <wgt id="844">3.24517e-12</wgt>
  <wgt id="845">4.64688e-12</wgt>
  <wgt id="846">3.0857e-12</wgt>
  <wgt id="847">3.13991e-12</wgt>
  <wgt id="848">2.41664e-12</wgt>
  <wgt id="849">3.17628e-12</wgt>
  <wgt id="850">4.20143e-12</wgt>
  <wgt id="851">3.4239e-12</wgt>
  <wgt id="852">2.31947e-12</wgt>
  <wgt id="853">3.47964e-12</wgt>
  <wgt id="854">3.87784e-12</wgt>
  <wgt id="855">3.6284e-12</wgt>
  <wgt id="856">1.96461e-12</wgt>
  <wgt id="857">2.9458e-12</wgt>
  <wgt id="858">2.90911e-12</wgt>
  <wgt id="859">2.86771e-12</wgt>
  <wgt id="860">3.49567e-12</wgt>
  <wgt id="861">2.62642e-12</wgt>
  <wgt id="862">3.10632e-12</wgt>
  <wgt id="863">3.32813e-12</wgt>
  <wgt id="864">3.23021e-12</wgt>
  <wgt id="865">4.57479e-12</wgt>
  <wgt id="866">5.03192e-12</wgt>
  <wgt id="867">3.12954e-12</wgt>
  <wgt id="868">3.05842e-12</wgt>
  <wgt id="869">2.19089e-12</wgt>
  <wgt id="870">2.35417e-12</wgt>
  <wgt id="871">2.28251e-12</wgt>
  <wgt id="872">3.86678e-12</wgt>
  <wgt id="873">2.50751e-12</wgt>
  <wgt id="874">3.27505e-12</wgt>
  <wgt id="875">2.57659e-12</wgt>
  <wgt id="876">3.82233e-12</wgt>
  <wgt id="877">3.52075e-12</wgt>
  <wgt id="878">2.50576e-12</wgt>
  <wgt id="879">4.26638e-12</wgt>
  <wgt id="880">4.31459e-12</wgt>
  <wgt id="881">4.52298e-12</wgt>
  <wgt id="882">4.06103e-12</wgt>
  <wgt id="883">4.21532e-12</wgt>
  <wgt id="884">4.30082e-12</wgt>
  <wgt id="885">4.41605e-12</wgt>
  <wgt id="886">4.14974e-12</wgt>
  <wgt id="887">4.45967e-12</wgt>
  <wgt id="888">4.11306e-12</wgt>
  <wgt id="889">4.15448e-12</wgt>
  <wgt id="890">4.46206e-12</wgt>
  <wgt id="891">4.19413e-12</wgt>
  <wgt id="892">4.55228e-12</wgt>
  <wgt id="893">4.44288e-12</wgt>
  <wgt id="894">4.46462e-12</wgt>
  <wgt id="895">4.20682e-12</wgt>
  <wgt id="896">5.16918e-12</wgt>
  <wgt id="897">4.56865e-12</wgt>
  <wgt id="898">4.10955e-12</wgt>
  <wgt id="899">4.07529e-12</wgt>
  <wgt id="900">4.05989e-12</wgt>
  <wgt id="901">3.80244e-12</wgt>
  <wgt id="902">3.7915e-12</wgt>
  <wgt id="903">3.72899e-12</wgt>
  <wgt id="904">4.27476e-12</wgt>
  <wgt id="905">4.16552e-12</wgt>
  <wgt id="906">4.9893e-12</wgt>
  <wgt id="907">4.72251e-12</wgt>
  <wgt id="908">4.57712e-12</wgt>
  <wgt id="909">4.00375e-12</wgt>
  <wgt id="910">4.07132e-12</wgt>
  <wgt id="911">4.18552e-12</wgt>
  <wgt id="912">4.17693e-12</wgt>
  <wgt id="913">3.84077e-12</wgt>
  <wgt id="914">4.27479e-12</wgt>
  <wgt id="915">4.13179e-12</wgt>
  <wgt id="916">4.60331e-12</wgt>
  <wgt id="917">4.09614e-12</wgt>
  <wgt id="918">4.18404e-12</wgt>
  <wgt id="919">4.11495e-12</wgt>
  <wgt id="920">3.96557e-12</wgt>
  <wgt id="921">4.30115e-12</wgt>
  <wgt id="922">3.86655e-12</wgt>
  <wgt id="923">4.10324e-12</wgt>
  <wgt id="924">3.81673e-12</wgt>
  <wgt id="925">3.67485e-12</wgt>
  <wgt id="926">4.61079e-12</wgt>
  <wgt id="927">4.51211e-12</wgt>
  <wgt id="928">4.48424e-12</wgt>
  <wgt id="929">4.28607e-12</wgt>
  <wgt id="930">4.19739e-12</wgt>
  <wgt id="931">4.14643e-12</wgt>
  <wgt id="932">4.04348e-12</wgt>
  <wgt id="933">4.63505e-12</wgt>
  <wgt id="934">4.19939e-12</wgt>
  <wgt id="935">4.76579e-12</wgt>
  <wgt id="936">4.16769e-12</wgt>
  <wgt id="937">4.37818e-12</wgt>
  <wgt id="938">4.28211e-12</wgt>
  <wgt id="939">4.11968e-12</wgt>
  <wgt id="940">4.28089e-12</wgt>
  <wgt id="941">4.05878e-12</wgt>
  <wgt id="942">4.44187e-12</wgt>
  <wgt id="943">4.81086e-12</wgt>
  <wgt id="944">3.93502e-12</wgt>
  <wgt id="945">4.21027e-12</wgt>
  <wgt id="946">4.00815e-12</wgt>
  <wgt id="947">4.18063e-12</wgt>
  <wgt id="948">4.50757e-12</wgt>
  <wgt id="949">4.60357e-12</wgt>
  <wgt id="950">3.76435e-12</wgt>
  <wgt id="951">4.19444e-12</wgt>
  <wgt id="952">4.46226e-12</wgt>
  <wgt id="953">4.45963e-12</wgt>
  <wgt id="954">4.35815e-12</wgt>
  <wgt id="955">3.89175e-12</wgt>
  <wgt id="956">3.98368e-12</wgt>
  <wgt id="957">4.4482e-12</wgt>
  <wgt id="958">4.25234e-12</wgt>
  <wgt id="959">4.24675e-12</wgt>
  <wgt id="960">3.86711e-12</wgt>
  <wgt id="961">4.25273e-12</wgt>
  <wgt id="962">4.51069e-12</wgt>
  <wgt id="963">4.25475e-12</wgt>
  <wgt id="964">4.54502e-12</wgt>
  <wgt id="965">4.57244e-12</wgt>
  <wgt id="966">4.25902e-12</wgt>
  <wgt id="967">4.46387e-12</wgt>
  <wgt id="968">4.31429e-12</wgt>
  <wgt id="969">4.27414e-12</wgt>
  <wgt id="970">4.36448e-12</wgt>
  <wgt id="971">3.98393e-12</wgt>
  <wgt id="972">4.52706e-12</wgt>
  <wgt id="973">4.14433e-12</wgt>
  <wgt id="974">5.0953e-12</wgt>
  <wgt id="975">4.06964e-12</wgt>
  <wgt id="976">4.2337e-12</wgt>
  <wgt id="977">3.64519e-12</wgt>
  <wgt id="978">4.47942e-12</wgt>
  <wgt id="979">4.68991e-12</wgt>
  <wgt id="980">4.2547e-12</wgt>
  <wgt id="981">4.30537e-12</wgt>
  <wgt id="982">4.13641e-12</wgt>
</rwgt>
</event>
<event>
 5   1  0.3028200E-11  0.2345788E+04  0.7818608E-02  0.7696085E-01
       21   -1    0    0  502  501  0.00000000000E+00  0.00000000000E+00  0.93413733397E+03  0.93413733397E+03  0.00000000000E+00 0.  1.
       21   -1    0    0  501  502 -0.00000000000E+00 -0.00000000000E+00 -0.14726747150E+04  0.14726747150E+04  0.00000000000E+00 0. -1.
       39    2    1    2    0    0  0.00000000000E+00  0.00000000000E+00 -0.53853738100E+03  0.24068120489E+04  0.23457880825E+04 0.  0.
       25    1    3    3    0    0  0.22130705338E+03 -0.99491023112E+03 -0.85078643678E+03  0.13335238059E+04  0.12500000000E+03 0.  0.
       25    1    3    3    0    0 -0.22130705338E+03  0.99491023112E+03  0.31224905578E+03  0.10732882431E+04  0.12500000000E+03 0.  0.
<mgrwt>
<rscale>  0 0.23457881E+04</rscale>
<asrwt>0</asrwt>
<pdfrwt beam="1">  1       21 0.14371344E+00 0.23457881E+04</pdfrwt>
<pdfrwt beam="2">  1       21 0.22656534E+00 0.23457881E+04</pdfrwt>
<totfact> 0.11265630E+01</totfact>
</mgrwt>
<rwgt>
  <wgt id="1">3.0282e-12</wgt>
  <wgt id="2">2.63336e-12</wgt>
  <wgt id="3">3.5189e-12</wgt>
  <wgt id="4">3.0282e-12</wgt>
  <wgt id="5">2.63336e-12</wgt>
  <wgt id="6">3.5189e-12</wgt>
  <wgt id="7">3.0282e-12</wgt>
  <wgt id="8">2.63336e-12</wgt>
  <wgt id="9">3.5189e-12</wgt>
  <wgt id="10">3.14157e-12</wgt>
  <wgt id="11">3.13888e-12</wgt>
  <wgt id="12">3.13566e-12</wgt>
  <wgt id="13">3.13106e-12</wgt>
  <wgt id="14">3.15306e-12</wgt>
  <wgt id="15">3.14657e-12</wgt>
  <wgt id="16">3.13588e-12</wgt>
  <wgt id="17">3.14839e-12</wgt>
  <wgt id="18">3.13582e-12</wgt>
  <wgt id="19">3.1488e-12</wgt>
  <wgt id="20">3.13286e-12</wgt>
  <wgt id="21">3.12181e-12</wgt>
  <wgt id="22">3.12878e-12</wgt>
  <wgt id="23">3.11159e-12</wgt>
  <wgt id="24">3.12641e-12</wgt>
  <wgt id="25">3.13373e-12</wgt>
  <wgt id="26">3.15374e-12</wgt>
  <wgt id="27">3.1409e-12</wgt>
  <wgt id="28">3.12678e-12</wgt>
  <wgt id="29">3.14416e-12</wgt>
  <wgt id="30">3.13183e-12</wgt>
  <wgt id="31">3.15129e-12</wgt>
  <wgt id="32">3.13536e-12</wgt>
  <wgt id="33">3.14912e-12</wgt>
  <wgt id="34">3.13044e-12</wgt>
  <wgt id="35">3.13808e-12</wgt>
  <wgt id="36">3.15211e-12</wgt>
  <wgt id="37">3.13331e-12</wgt>
  <wgt id="38">3.1322e-12</wgt>
  <wgt id="39">3.17607e-12</wgt>
  <wgt id="40">3.14716e-12</wgt>
  <wgt id="41">3.14053e-12</wgt>
  <wgt id="42">3.14771e-12</wgt>
  <wgt id="43">3.14166e-12</wgt>
  <wgt id="44">3.13415e-12</wgt>
  <wgt id="45">3.1485e-12</wgt>
  <wgt id="46">3.14499e-12</wgt>
  <wgt id="47">3.13348e-12</wgt>
  <wgt id="48">3.14195e-12</wgt>
  <wgt id="49">3.14329e-12</wgt>
  <wgt id="50">3.15389e-12</wgt>
  <wgt id="51">3.15149e-12</wgt>
  <wgt id="52">3.14083e-12</wgt>
  <wgt id="53">3.12211e-12</wgt>
  <wgt id="54">3.13635e-12</wgt>
  <wgt id="55">3.14134e-12</wgt>
  <wgt id="56">3.15301e-12</wgt>
  <wgt id="57">3.15035e-12</wgt>
  <wgt id="58">3.12273e-12</wgt>
  <wgt id="59">3.13161e-12</wgt>
  <wgt id="60">3.14277e-12</wgt>
  <wgt id="61">3.12986e-12</wgt>
  <wgt id="62">3.13683e-12</wgt>
  <wgt id="63">3.14168e-12</wgt>
  <wgt id="64">3.14411e-12</wgt>
  <wgt id="65">3.14552e-12</wgt>
  <wgt id="66">3.13737e-12</wgt>
  <wgt id="67">3.13157e-12</wgt>
  <wgt id="68">3.13896e-12</wgt>
  <wgt id="69">3.14171e-12</wgt>
  <wgt id="70">3.14061e-12</wgt>
  <wgt id="71">3.14058e-12</wgt>
  <wgt id="72">3.1358e-12</wgt>
  <wgt id="73">3.14447e-12</wgt>
  <wgt id="74">3.14335e-12</wgt>
  <wgt id="75">3.13853e-12</wgt>
  <wgt id="76">3.14989e-12</wgt>
  <wgt id="77">3.14063e-12</wgt>
  <wgt id="78">3.14151e-12</wgt>
  <wgt id="79">3.14867e-12</wgt>
  <wgt id="80">3.12852e-12</wgt>
  <wgt id="81">3.13884e-12</wgt>
  <wgt id="82">3.1417e-12</wgt>
  <wgt id="83">3.12931e-12</wgt>
  <wgt id="84">3.13641e-12</wgt>
  <wgt id="85">3.1347e-12</wgt>
  <wgt id="86">3.15065e-12</wgt>
  <wgt id="87">3.12468e-12</wgt>
  <wgt id="88">3.14509e-12</wgt>
  <wgt id="89">3.14439e-12</wgt>
  <wgt id="90">3.14788e-12</wgt>
  <wgt id="91">3.14456e-12</wgt>
  <wgt id="92">3.14781e-12</wgt>
  <wgt id="93">3.14271e-12</wgt>
  <wgt id="94">3.13857e-12</wgt>
  <wgt id="95">3.14582e-12</wgt>
  <wgt id="96">3.14398e-12</wgt>
  <wgt id="97">3.13597e-12</wgt>
  <wgt id="98">3.14307e-12</wgt>
  <wgt id="99">3.13738e-12</wgt>
  <wgt id="100">3.14514e-12</wgt>
  <wgt id="101">3.14177e-12</wgt>
  <wgt id="102">3.13892e-12</wgt>
  <wgt id="103">3.14598e-12</wgt>
  <wgt id="104">3.14008e-12</wgt>
  <wgt id="105">3.14575e-12</wgt>
  <wgt id="106">3.13682e-12</wgt>
  <wgt id="107">3.15083e-12</wgt>
  <wgt id="108">3.13804e-12</wgt>
  <wgt id="109">3.14214e-12</wgt>
  <wgt id="110">3.14171e-12</wgt>
  <wgt id="111">3.17039e-12</wgt>
  <wgt id="112">3.14509e-12</wgt>
  <wgt id="113">4.262e-12</wgt>
  <wgt id="114">4.35898e-12</wgt>
  <wgt id="115">4.2961e-12</wgt>
  <wgt id="116">6.0243e-12</wgt>
  <wgt id="117">3.50312e-12</wgt>
  <wgt id="118">3.51555e-12</wgt>
  <wgt id="119">3.49588e-12</wgt>
  <wgt id="120">3.50336e-12</wgt>
  <wgt id="121">3.503e-12</wgt>
  <wgt id="122">3.49682e-12</wgt>
  <wgt id="123">3.51139e-12</wgt>
  <wgt id="124">3.49804e-12</wgt>
  <wgt id="125">3.50617e-12</wgt>
  <wgt id="126">3.50938e-12</wgt>
  <wgt id="127">3.49891e-12</wgt>
  <wgt id="128">3.51402e-12</wgt>
  <wgt id="129">3.49224e-12</wgt>
  <wgt id="130">3.52332e-12</wgt>
  <wgt id="131">3.48246e-12</wgt>
  <wgt id="132">3.41115e-12</wgt>
  <wgt id="133">3.61196e-12</wgt>
  <wgt id="134">3.46521e-12</wgt>
  <wgt id="135">3.53274e-12</wgt>
  <wgt id="136">3.54886e-12</wgt>
  <wgt id="137">3.44758e-12</wgt>
  <wgt id="138">3.64127e-12</wgt>
  <wgt id="139">3.36972e-12</wgt>
  <wgt id="140">3.48049e-12</wgt>
  <wgt id="141">3.52063e-12</wgt>
  <wgt id="142">3.50343e-12</wgt>
  <wgt id="143">3.50855e-12</wgt>
  <wgt id="144">3.39985e-12</wgt>
  <wgt id="145">3.59937e-12</wgt>
  <wgt id="146">3.53595e-12</wgt>
  <wgt id="147">3.47687e-12</wgt>
  <wgt id="148">3.51403e-12</wgt>
  <wgt id="149">3.50224e-12</wgt>
  <wgt id="150">3.53342e-12</wgt>
  <wgt id="151">3.489e-12</wgt>
  <wgt id="152">3.50474e-12</wgt>
  <wgt id="153">3.50237e-12</wgt>
  <wgt id="154">3.52917e-12</wgt>
  <wgt id="155">3.47115e-12</wgt>
  <wgt id="156">3.57736e-12</wgt>
  <wgt id="157">3.42651e-12</wgt>
  <wgt id="158">4.213e-12</wgt>
  <wgt id="159">4.2308e-12</wgt>
  <wgt id="160">4.19901e-12</wgt>
  <wgt id="161">4.20253e-12</wgt>
  <wgt id="162">4.22513e-12</wgt>
  <wgt id="163">4.20834e-12</wgt>
  <wgt id="164">4.22007e-12</wgt>
  <wgt id="165">4.21476e-12</wgt>
  <wgt id="166">4.21174e-12</wgt>
  <wgt id="167">4.20999e-12</wgt>
  <wgt id="168">4.2176e-12</wgt>
  <wgt id="169">4.19506e-12</wgt>
  <wgt id="170">4.22424e-12</wgt>
  <wgt id="171">4.20853e-12</wgt>
  <wgt id="172">4.21955e-12</wgt>
  <wgt id="173">4.21212e-12</wgt>
  <wgt id="174">4.21338e-12</wgt>
  <wgt id="175">4.09407e-12</wgt>
  <wgt id="176">4.36849e-12</wgt>
  <wgt id="177">4.23558e-12</wgt>
  <wgt id="178">4.19252e-12</wgt>
  <wgt id="179">4.3936e-12</wgt>
  <wgt id="180">3.92896e-12</wgt>
  <wgt id="181">4.08846e-12</wgt>
  <wgt id="182">4.29537e-12</wgt>
  <wgt id="183">4.1371e-12</wgt>
  <wgt id="184">4.2508e-12</wgt>
  <wgt id="185">4.1778e-12</wgt>
  <wgt id="186">4.25589e-12</wgt>
  <wgt id="187">4.17425e-12</wgt>
  <wgt id="188">4.28273e-12</wgt>
  <wgt id="189">4.18524e-12</wgt>
  <wgt id="190">4.22438e-12</wgt>
  <wgt id="191">4.22482e-12</wgt>
  <wgt id="192">4.20607e-12</wgt>
  <wgt id="193">4.27419e-12</wgt>
  <wgt id="194">4.18288e-12</wgt>
  <wgt id="195">4.10393e-12</wgt>
  <wgt id="196">4.40512e-12</wgt>
  <wgt id="197">4.23433e-12</wgt>
  <wgt id="198">4.20808e-12</wgt>
  <wgt id="199">4.213e-12</wgt>
  <wgt id="200">4.24952e-12</wgt>
  <wgt id="201">4.23644e-12</wgt>
  <wgt id="202">4.22346e-12</wgt>
  <wgt id="203">4.20418e-12</wgt>
  <wgt id="204">4.19492e-12</wgt>
  <wgt id="205">4.18746e-12</wgt>
  <wgt id="206">4.08835e-12</wgt>
  <wgt id="207">4.11234e-12</wgt>
  <wgt id="208">4.06487e-12</wgt>
  <wgt id="209">4.10132e-12</wgt>
  <wgt id="210">4.07937e-12</wgt>
  <wgt id="211">4.08704e-12</wgt>
  <wgt id="212">4.08957e-12</wgt>
  <wgt id="213">4.08822e-12</wgt>
  <wgt id="214">4.08899e-12</wgt>
  <wgt id="215">4.0916e-12</wgt>
  <wgt id="216">4.08636e-12</wgt>
  <wgt id="217">4.09993e-12</wgt>
  <wgt id="218">4.07958e-12</wgt>
  <wgt id="219">4.08438e-12</wgt>
  <wgt id="220">4.09117e-12</wgt>
  <wgt id="221">4.08717e-12</wgt>
  <wgt id="222">4.09198e-12</wgt>
  <wgt id="223">3.87097e-12</wgt>
  <wgt id="224">4.28669e-12</wgt>
  <wgt id="225">4.03925e-12</wgt>
  <wgt id="226">4.15056e-12</wgt>
  <wgt id="227">4.04992e-12</wgt>
  <wgt id="228">4.10543e-12</wgt>
  <wgt id="229">4.03167e-12</wgt>
  <wgt id="230">4.11686e-12</wgt>
  <wgt id="231">4.20704e-12</wgt>
  <wgt id="232">3.99119e-12</wgt>
  <wgt id="233">4.06703e-12</wgt>
  <wgt id="234">4.12286e-12</wgt>
  <wgt id="235">3.99755e-12</wgt>
  <wgt id="236">4.17132e-12</wgt>
  <wgt id="237">4.02831e-12</wgt>
  <wgt id="238">4.10899e-12</wgt>
  <wgt id="239">4.0628e-12</wgt>
  <wgt id="240">4.13525e-12</wgt>
  <wgt id="241">4.04625e-12</wgt>
  <wgt id="242">4.13936e-12</wgt>
  <wgt id="243">4.14092e-12</wgt>
  <wgt id="244">4.10778e-12</wgt>
  <wgt id="245">4.08581e-12</wgt>
  <wgt id="246">4.11787e-12</wgt>
  <wgt id="247">4.08835e-12</wgt>
  <wgt id="248">4.12463e-12</wgt>
  <wgt id="249">4.11087e-12</wgt>
  <wgt id="250">4.09802e-12</wgt>
  <wgt id="251">4.07908e-12</wgt>
  <wgt id="252">4.06993e-12</wgt>
  <wgt id="253">4.06363e-12</wgt>
  <wgt id="254">3.9994e-12</wgt>
  <wgt id="255">4.00318e-12</wgt>
  <wgt id="256">3.99532e-12</wgt>
  <wgt id="257">4.00239e-12</wgt>
  <wgt id="258">3.99729e-12</wgt>
  <wgt id="259">4.02609e-12</wgt>
  <wgt id="260">3.97366e-12</wgt>
  <wgt id="261">4.00517e-12</wgt>
  <wgt id="262">3.99239e-12</wgt>
  <wgt id="263">3.99735e-12</wgt>
  <wgt id="264">4.00157e-12</wgt>
  <wgt id="265">3.99473e-12</wgt>
  <wgt id="266">4.00889e-12</wgt>
  <wgt id="267">4.00058e-12</wgt>
  <wgt id="268">3.99753e-12</wgt>
  <wgt id="269">4.01227e-12</wgt>
  <wgt id="270">3.99064e-12</wgt>
  <wgt id="271">3.99237e-12</wgt>
  <wgt id="272">4.0074e-12</wgt>
  <wgt id="273">3.98712e-12</wgt>
  <wgt id="274">4.00875e-12</wgt>
  <wgt id="275">3.98237e-12</wgt>
  <wgt id="276">4.01702e-12</wgt>
  <wgt id="277">3.97653e-12</wgt>
  <wgt id="278">4.02046e-12</wgt>
  <wgt id="279">3.92291e-12</wgt>
  <wgt id="280">4.09543e-12</wgt>
  <wgt id="281">3.98188e-12</wgt>
  <wgt id="282">4.00059e-12</wgt>
  <wgt id="283">3.8842e-12</wgt>
  <wgt id="284">4.14124e-12</wgt>
  <wgt id="285">3.80854e-12</wgt>
  <wgt id="286">4.15731e-12</wgt>
  <wgt id="287">4.0121e-12</wgt>
  <wgt id="288">3.98335e-12</wgt>
  <wgt id="289">4.02764e-12</wgt>
  <wgt id="290">3.93413e-12</wgt>
  <wgt id="291">3.9881e-12</wgt>
  <wgt id="292">4.0019e-12</wgt>
  <wgt id="293">3.96857e-12</wgt>
  <wgt id="294">4.03007e-12</wgt>
  <wgt id="295">3.92371e-12</wgt>
  <wgt id="296">4.09172e-12</wgt>
  <wgt id="297">3.99839e-12</wgt>
  <wgt id="298">4.01459e-12</wgt>
  <wgt id="299">3.98659e-12</wgt>
  <wgt id="300">4.03344e-12</wgt>
  <wgt id="301">3.94247e-12</wgt>
  <wgt id="302">4.14175e-12</wgt>
  <wgt id="303">3.96822e-12</wgt>
  <wgt id="304">4.0172e-12</wgt>
  <wgt id="305">4.0087e-12</wgt>
  <wgt id="306">4.01278e-12</wgt>
  <wgt id="307">4.00417e-12</wgt>
  <wgt id="308">4.01212e-12</wgt>
  <wgt id="309">4.00649e-12</wgt>
  <wgt id="310">4.03651e-12</wgt>
  <wgt id="311">3.98282e-12</wgt>
  <wgt id="312">4.01333e-12</wgt>
  <wgt id="313">4.00389e-12</wgt>
  <wgt id="314">4.00663e-12</wgt>
  <wgt id="315">4.01045e-12</wgt>
  <wgt id="316">4.00412e-12</wgt>
  <wgt id="317">4.01847e-12</wgt>
  <wgt id="318">4.01162e-12</wgt>
  <wgt id="319">4.00346e-12</wgt>
  <wgt id="320">4.02228e-12</wgt>
  <wgt id="321">4.00107e-12</wgt>
  <wgt id="322">3.99955e-12</wgt>
  <wgt id="323">4.01912e-12</wgt>
  <wgt id="324">3.99842e-12</wgt>
  <wgt id="325">4.0175e-12</wgt>
  <wgt id="326">3.99485e-12</wgt>
  <wgt id="327">4.02635e-12</wgt>
  <wgt id="328">3.98789e-12</wgt>
  <wgt id="329">4.02028e-12</wgt>
  <wgt id="330">4.12636e-12</wgt>
  <wgt id="331">3.89651e-12</wgt>
  <wgt id="332">3.9939e-12</wgt>
  <wgt id="333">4.00907e-12</wgt>
  <wgt id="334">3.91838e-12</wgt>
  <wgt id="335">4.12073e-12</wgt>
  <wgt id="336">3.87015e-12</wgt>
  <wgt id="337">4.17735e-12</wgt>
  <wgt id="338">4.05322e-12</wgt>
  <wgt id="339">3.96734e-12</wgt>
  <wgt id="340">4.03502e-12</wgt>
  <wgt id="341">3.9405e-12</wgt>
  <wgt id="342">4.00078e-12</wgt>
  <wgt id="343">4.00448e-12</wgt>
  <wgt id="344">3.98069e-12</wgt>
  <wgt id="345">4.04095e-12</wgt>
  <wgt id="346">3.93001e-12</wgt>
  <wgt id="347">4.09905e-12</wgt>
  <wgt id="348">4.00932e-12</wgt>
  <wgt id="349">4.02147e-12</wgt>
  <wgt id="350">3.99244e-12</wgt>
  <wgt id="351">4.04958e-12</wgt>
  <wgt id="352">3.94613e-12</wgt>
  <wgt id="353">4.15668e-12</wgt>
  <wgt id="354">3.96144e-12</wgt>
  <wgt id="355">4.03751e-12</wgt>
  <wgt id="356">3.9994e-12</wgt>
  <wgt id="357">4.02421e-12</wgt>
  <wgt id="358">4.0087e-12</wgt>
  <wgt id="359">4.01254e-12</wgt>
  <wgt id="360">4.0289e-12</wgt>
  <wgt id="361">4.01251e-12</wgt>
  <wgt id="362">4.08258e-12</wgt>
  <wgt id="363">4.0729e-12</wgt>
  <wgt id="364">4.05847e-12</wgt>
  <wgt id="365">4.04479e-12</wgt>
  <wgt id="366">4.02943e-12</wgt>
  <wgt id="367">3.99847e-12</wgt>
  <wgt id="368">3.98105e-12</wgt>
  <wgt id="369">3.96221e-12</wgt>
  <wgt id="370">4.01251e-12</wgt>
  <wgt id="371">4.03052e-12</wgt>
  <wgt id="372">4.02071e-12</wgt>
  <wgt id="373">4.00592e-12</wgt>
  <wgt id="374">4.00519e-12</wgt>
  <wgt id="375">4.3014e-12</wgt>
  <wgt id="376">4.30193e-12</wgt>
  <wgt id="377">4.30056e-12</wgt>
  <wgt id="378">4.31721e-12</wgt>
  <wgt id="379">4.28575e-12</wgt>
  <wgt id="380">4.31294e-12</wgt>
  <wgt id="381">4.2969e-12</wgt>
  <wgt id="382">4.32362e-12</wgt>
  <wgt id="383">4.27936e-12</wgt>
  <wgt id="384">4.30427e-12</wgt>
  <wgt id="385">4.29864e-12</wgt>
  <wgt id="386">4.31849e-12</wgt>
  <wgt id="387">4.29403e-12</wgt>
  <wgt id="388">4.29727e-12</wgt>
  <wgt id="389">4.30632e-12</wgt>
  <wgt id="390">4.3129e-12</wgt>
  <wgt id="391">4.28937e-12</wgt>
  <wgt id="392">4.26814e-12</wgt>
  <wgt id="393">4.32046e-12</wgt>
  <wgt id="394">4.30734e-12</wgt>
  <wgt id="395">4.29345e-12</wgt>
  <wgt id="396">4.30468e-12</wgt>
  <wgt id="397">4.29916e-12</wgt>
  <wgt id="398">4.28365e-12</wgt>
  <wgt id="399">4.31867e-12</wgt>
  <wgt id="400">4.29431e-12</wgt>
  <wgt id="401">4.31752e-12</wgt>
  <wgt id="402">4.26611e-12</wgt>
  <wgt id="403">4.31741e-12</wgt>
  <wgt id="404">4.40182e-12</wgt>
  <wgt id="405">4.05925e-12</wgt>
  <wgt id="406">4.22911e-12</wgt>
  <wgt id="407">4.45835e-12</wgt>
  <wgt id="408">4.33851e-12</wgt>
  <wgt id="409">4.23057e-12</wgt>
  <wgt id="410">4.1832e-12</wgt>
  <wgt id="411">4.35636e-12</wgt>
  <wgt id="412">4.29358e-12</wgt>
  <wgt id="413">4.31288e-12</wgt>
  <wgt id="414">4.25421e-12</wgt>
  <wgt id="415">4.33826e-12</wgt>
  <wgt id="416">4.41661e-12</wgt>
  <wgt id="417">4.14233e-12</wgt>
  <wgt id="418">4.30726e-12</wgt>
  <wgt id="419">4.26951e-12</wgt>
  <wgt id="420">4.36788e-12</wgt>
  <wgt id="421">4.26296e-12</wgt>
  <wgt id="422">4.29353e-12</wgt>
  <wgt id="423">4.30599e-12</wgt>
  <wgt id="424">4.39057e-12</wgt>
  <wgt id="425">4.245e-12</wgt>
  <wgt id="426">4.3014e-12</wgt>
  <wgt id="427">4.26041e-12</wgt>
  <wgt id="428">4.41832e-12</wgt>
  <wgt id="429">4.34117e-12</wgt>
  <wgt id="430">4.4632e-12</wgt>
  <wgt id="431">4.43876e-12</wgt>
  <wgt id="432">4.41581e-12</wgt>
  <wgt id="433">4.39358e-12</wgt>
  <wgt id="434">4.36648e-12</wgt>
  <wgt id="435">4.3099e-12</wgt>
  <wgt id="436">4.28095e-12</wgt>
  <wgt id="437">4.25316e-12</wgt>
  <wgt id="438">4.34117e-12</wgt>
  <wgt id="439">4.35547e-12</wgt>
  <wgt id="440">4.34706e-12</wgt>
  <wgt id="441">4.33683e-12</wgt>
  <wgt id="442">4.33328e-12</wgt>
  <wgt id="443">4.18252e-12</wgt>
  <wgt id="444">4.20721e-12</wgt>
  <wgt id="445">4.1711e-12</wgt>
  <wgt id="446">4.15535e-12</wgt>
  <wgt id="447">4.16986e-12</wgt>
  <wgt id="448">4.07335e-12</wgt>
  <wgt id="449">4.24812e-12</wgt>
  <wgt id="450">4.17398e-12</wgt>
  <wgt id="451">4.17525e-12</wgt>
  <wgt id="452">4.27583e-12</wgt>
  <wgt id="453">4.22185e-12</wgt>
  <wgt id="454">4.01271e-12</wgt>
  <wgt id="455">4.19036e-12</wgt>
  <wgt id="456">4.15364e-12</wgt>
  <wgt id="457">4.19915e-12</wgt>
  <wgt id="458">4.23251e-12</wgt>
  <wgt id="459">4.2116e-12</wgt>
  <wgt id="460">4.21118e-12</wgt>
  <wgt id="461">4.10406e-12</wgt>
  <wgt id="462">4.14932e-12</wgt>
  <wgt id="463">4.13529e-12</wgt>
  <wgt id="464">4.15963e-12</wgt>
  <wgt id="465">4.22628e-12</wgt>
  <wgt id="466">4.13131e-12</wgt>
  <wgt id="467">4.14285e-12</wgt>
  <wgt id="468">4.17163e-12</wgt>
  <wgt id="469">4.17141e-12</wgt>
  <wgt id="470">4.14316e-12</wgt>
  <wgt id="471">4.14494e-12</wgt>
  <wgt id="472">4.20206e-12</wgt>
  <wgt id="473">4.04948e-12</wgt>
  <wgt id="474">3.0282e-12</wgt>
  <wgt id="475">3.18494e-12</wgt>
  <wgt id="476">2.96863e-12</wgt>
  <wgt id="477">2.93507e-12</wgt>
  <wgt id="478">3.04705e-12</wgt>
  <wgt id="479">2.96802e-12</wgt>
  <wgt id="480">3.14232e-12</wgt>
  <wgt id="481">2.98178e-12</wgt>
  <wgt id="482">2.93561e-12</wgt>
  <wgt id="483">2.95208e-12</wgt>
  <wgt id="484">3.19292e-12</wgt>
  <wgt id="485">3.00338e-12</wgt>
  <wgt id="486">3.12317e-12</wgt>
  <wgt id="487">3.07147e-12</wgt>
  <wgt id="488">3.07686e-12</wgt>
  <wgt id="489">2.90569e-12</wgt>
  <wgt id="490">2.92133e-12</wgt>
  <wgt id="491">3.00069e-12</wgt>
  <wgt id="492">2.94706e-12</wgt>
  <wgt id="493">2.91059e-12</wgt>
  <wgt id="494">2.9332e-12</wgt>
  <wgt id="495">3.07761e-12</wgt>
  <wgt id="496">2.92935e-12</wgt>
  <wgt id="497">2.90648e-12</wgt>
  <wgt id="498">3.08449e-12</wgt>
  <wgt id="499">2.96717e-12</wgt>
  <wgt id="500">2.97464e-12</wgt>
  <wgt id="501">3.16408e-12</wgt>
  <wgt id="502">2.9723e-12</wgt>
  <wgt id="503">3.0265e-12</wgt>
  <wgt id="504">3.06479e-12</wgt>
  <wgt id="505">3.00927e-12</wgt>
  <wgt id="506">3.05544e-12</wgt>
  <wgt id="507">3.01093e-12</wgt>
  <wgt id="508">3.09218e-12</wgt>
  <wgt id="509">2.91419e-12</wgt>
  <wgt id="510">3.10919e-12</wgt>
  <wgt id="511">2.95731e-12</wgt>
  <wgt id="512">3.09131e-12</wgt>
  <wgt id="513">3.15709e-12</wgt>
  <wgt id="514">3.02765e-12</wgt>
  <wgt id="515">2.99943e-12</wgt>
  <wgt id="516">3.14136e-12</wgt>
  <wgt id="517">3.09515e-12</wgt>
  <wgt id="518">3.10413e-12</wgt>
  <wgt id="519">2.94175e-12</wgt>
  <wgt id="520">3.06865e-12</wgt>
  <wgt id="521">3.12073e-12</wgt>
  <wgt id="522">3.15156e-12</wgt>
  <wgt id="523">3.06517e-12</wgt>
  <wgt id="524">3.05487e-12</wgt>
  <wgt id="525">3.11795e-12</wgt>
  <wgt id="526">3.0529e-12</wgt>
  <wgt id="527">3.06675e-12</wgt>
  <wgt id="528">3.04503e-12</wgt>
  <wgt id="529">2.9793e-12</wgt>
  <wgt id="530">3.07531e-12</wgt>
  <wgt id="531">2.98794e-12</wgt>
  <wgt id="532">3.20868e-12</wgt>
  <wgt id="533">2.86738e-12</wgt>
  <wgt id="534">3.03117e-12</wgt>
  <wgt id="535">3.06818e-12</wgt>
  <wgt id="536">3.01152e-12</wgt>
  <wgt id="537">3.02903e-12</wgt>
  <wgt id="538">3.06211e-12</wgt>
  <wgt id="539">2.97155e-12</wgt>
  <wgt id="540">2.98893e-12</wgt>
  <wgt id="541">2.94045e-12</wgt>
  <wgt id="542">2.983e-12</wgt>
  <wgt id="543">3.01848e-12</wgt>
  <wgt id="544">3.16888e-12</wgt>
  <wgt id="545">2.98004e-12</wgt>
  <wgt id="546">2.97032e-12</wgt>
  <wgt id="547">2.94308e-12</wgt>
  <wgt id="548">2.90576e-12</wgt>
  <wgt id="549">2.97689e-12</wgt>
  <wgt id="550">2.9863e-12</wgt>
  <wgt id="551">3.06354e-12</wgt>
  <wgt id="552">2.97284e-12</wgt>
  <wgt id="553">3.00844e-12</wgt>
  <wgt id="554">3.24741e-12</wgt>
  <wgt id="555">3.10856e-12</wgt>
  <wgt id="556">2.92133e-12</wgt>
  <wgt id="557">3.08911e-12</wgt>
  <wgt id="558">2.94114e-12</wgt>
  <wgt id="559">2.97856e-12</wgt>
  <wgt id="560">3.29851e-12</wgt>
  <wgt id="561">2.98037e-12</wgt>
  <wgt id="562">3.09053e-12</wgt>
  <wgt id="563">2.97839e-12</wgt>
  <wgt id="564">3.05781e-12</wgt>
  <wgt id="565">2.93317e-12</wgt>
  <wgt id="566">3.0711e-12</wgt>
  <wgt id="567">2.99283e-12</wgt>
  <wgt id="568">3.01469e-12</wgt>
  <wgt id="569">3.07651e-12</wgt>
  <wgt id="570">2.92207e-12</wgt>
  <wgt id="571">3.35565e-12</wgt>
  <wgt id="572">2.96379e-12</wgt>
  <wgt id="573">2.90519e-12</wgt>
  <wgt id="574">2.92713e-12</wgt>
  <wgt id="575">3.33715e-12</wgt>
  <wgt id="576">3.33942e-12</wgt>
  <wgt id="577">3.43045e-12</wgt>
  <wgt id="578">3.42773e-12</wgt>
  <wgt id="579">3.40446e-12</wgt>
  <wgt id="580">3.4209e-12</wgt>
  <wgt id="581">3.56847e-12</wgt>
  <wgt id="582">3.3311e-12</wgt>
  <wgt id="583">3.37142e-12</wgt>
  <wgt id="584">3.33559e-12</wgt>
  <wgt id="585">3.32404e-12</wgt>
  <wgt id="586">3.24848e-12</wgt>
  <wgt id="587">3.38502e-12</wgt>
  <wgt id="588">3.33715e-12</wgt>
  <wgt id="589">3.42197e-12</wgt>
  <wgt id="590">3.37712e-12</wgt>
  <wgt id="591">3.46075e-12</wgt>
  <wgt id="592">3.22821e-12</wgt>
  <wgt id="593">3.31515e-12</wgt>
  <wgt id="594">3.42625e-12</wgt>
  <wgt id="595">3.33808e-12</wgt>
  <wgt id="596">3.40213e-12</wgt>
  <wgt id="597">3.25298e-12</wgt>
  <wgt id="598">3.23273e-12</wgt>
  <wgt id="599">3.48835e-12</wgt>
  <wgt id="600">3.32174e-12</wgt>
  <wgt id="601">3.24025e-12</wgt>
  <wgt id="602">3.25401e-12</wgt>
  <wgt id="603">3.26294e-12</wgt>
  <wgt id="604">3.38763e-12</wgt>
  <wgt id="605">3.4647e-12</wgt>
  <wgt id="606">3.28596e-12</wgt>
  <wgt id="607">3.31328e-12</wgt>
  <wgt id="608">3.37376e-12</wgt>
  <wgt id="609">3.17214e-12</wgt>
  <wgt id="610">3.21545e-12</wgt>
  <wgt id="611">3.35372e-12</wgt>
  <wgt id="612">3.57699e-12</wgt>
  <wgt id="613">3.31592e-12</wgt>
  <wgt id="614">3.37016e-12</wgt>
  <wgt id="615">3.2812e-12</wgt>
  <wgt id="616">3.49932e-12</wgt>
  <wgt id="617">3.45482e-12</wgt>
  <wgt id="618">3.4576e-12</wgt>
  <wgt id="619">3.29745e-12</wgt>
  <wgt id="620">3.47046e-12</wgt>
  <wgt id="621">3.36664e-12</wgt>
  <wgt id="622">3.38502e-12</wgt>
  <wgt id="623">3.42514e-12</wgt>
  <wgt id="624">3.33152e-12</wgt>
  <wgt id="625">3.28553e-12</wgt>
  <wgt id="626">3.23387e-12</wgt>
  <wgt id="627">3.19271e-12</wgt>
  <wgt id="628">3.49756e-12</wgt>
  <wgt id="629">3.27367e-12</wgt>
  <wgt id="630">3.22876e-12</wgt>
  <wgt id="631">3.35673e-12</wgt>
  <wgt id="632">3.20018e-12</wgt>
  <wgt id="633">3.30563e-12</wgt>
  <wgt id="634">3.31485e-12</wgt>
  <wgt id="635">3.23962e-12</wgt>
  <wgt id="636">3.364e-12</wgt>
  <wgt id="637">3.33613e-12</wgt>
  <wgt id="638">3.21388e-12</wgt>
  <wgt id="639">3.287e-12</wgt>
  <wgt id="640">3.33499e-12</wgt>
  <wgt id="641">3.37474e-12</wgt>
  <wgt id="642">3.24134e-12</wgt>
  <wgt id="643">3.31423e-12</wgt>
  <wgt id="644">3.1667e-12</wgt>
  <wgt id="645">3.36232e-12</wgt>
  <wgt id="646">3.35438e-12</wgt>
  <wgt id="647">3.29777e-12</wgt>
  <wgt id="648">3.36987e-12</wgt>
  <wgt id="649">3.38065e-12</wgt>
  <wgt id="650">3.26159e-12</wgt>
  <wgt id="651">3.38258e-12</wgt>
  <wgt id="652">3.30463e-12</wgt>
  <wgt id="653">3.2415e-12</wgt>
  <wgt id="654">3.30752e-12</wgt>
  <wgt id="655">3.28043e-12</wgt>
  <wgt id="656">3.348e-12</wgt>
  <wgt id="657">3.48297e-12</wgt>
  <wgt id="658">3.35198e-12</wgt>
  <wgt id="659">3.20614e-12</wgt>
  <wgt id="660">3.38698e-12</wgt>
  <wgt id="661">3.28328e-12</wgt>
  <wgt id="662">3.32545e-12</wgt>
  <wgt id="663">3.34278e-12</wgt>
  <wgt id="664">3.29641e-12</wgt>
  <wgt id="665">3.32858e-12</wgt>
  <wgt id="666">3.30717e-12</wgt>
  <wgt id="667">3.45002e-12</wgt>
  <wgt id="668">3.33173e-12</wgt>
  <wgt id="669">3.41217e-12</wgt>
  <wgt id="670">3.41298e-12</wgt>
  <wgt id="671">3.31089e-12</wgt>
  <wgt id="672">3.19823e-12</wgt>
  <wgt id="673">3.36245e-12</wgt>
  <wgt id="674">3.26833e-12</wgt>
  <wgt id="675">3.28637e-12</wgt>
  <wgt id="676">4.21723e-12</wgt>
  <wgt id="677">4.26611e-12</wgt>
  <wgt id="678">4.43441e-12</wgt>
  <wgt id="679">3.97872e-12</wgt>
  <wgt id="680">4.12959e-12</wgt>
  <wgt id="681">4.29261e-12</wgt>
  <wgt id="682">4.33974e-12</wgt>
  <wgt id="683">4.14472e-12</wgt>
  <wgt id="684">4.4047e-12</wgt>
  <wgt id="685">4.02506e-12</wgt>
  <wgt id="686">4.13069e-12</wgt>
  <wgt id="687">4.4152e-12</wgt>
  <wgt id="688">4.17498e-12</wgt>
  <wgt id="689">4.52688e-12</wgt>
  <wgt id="690">4.41895e-12</wgt>
  <wgt id="691">4.44245e-12</wgt>
  <wgt id="692">4.17198e-12</wgt>
  <wgt id="693">4.98604e-12</wgt>
  <wgt id="694">4.48206e-12</wgt>
  <wgt id="695">4.07948e-12</wgt>
  <wgt id="696">4.01551e-12</wgt>
  <wgt id="697">4.06537e-12</wgt>
  <wgt id="698">3.8455e-12</wgt>
  <wgt id="699">3.81822e-12</wgt>
  <wgt id="700">3.69559e-12</wgt>
  <wgt id="701">4.22815e-12</wgt>
  <wgt id="702">4.09613e-12</wgt>
  <wgt id="703">4.85642e-12</wgt>
  <wgt id="704">4.62179e-12</wgt>
  <wgt id="705">4.44661e-12</wgt>
  <wgt id="706">3.94798e-12</wgt>
  <wgt id="707">4.04286e-12</wgt>
  <wgt id="708">4.15443e-12</wgt>
  <wgt id="709">4.13872e-12</wgt>
  <wgt id="710">3.80837e-12</wgt>
  <wgt id="711">4.20172e-12</wgt>
  <wgt id="712">4.12492e-12</wgt>
  <wgt id="713">4.54518e-12</wgt>
  <wgt id="714">4.12102e-12</wgt>
  <wgt id="715">4.16119e-12</wgt>
  <wgt id="716">4.06296e-12</wgt>
  <wgt id="717">3.9888e-12</wgt>
  <wgt id="718">4.21777e-12</wgt>
  <wgt id="719">3.83186e-12</wgt>
  <wgt id="720">4.00514e-12</wgt>
  <wgt id="721">3.859e-12</wgt>
  <wgt id="722">3.71744e-12</wgt>
  <wgt id="723">4.5096e-12</wgt>
  <wgt id="724">4.42576e-12</wgt>
  <wgt id="725">4.44288e-12</wgt>
  <wgt id="726">4.25011e-12</wgt>
  <wgt id="727">4.13015e-12</wgt>
  <wgt id="728">4.12123e-12</wgt>
  <wgt id="729">3.92759e-12</wgt>
  <wgt id="730">4.54842e-12</wgt>
  <wgt id="731">4.1603e-12</wgt>
  <wgt id="732">4.65255e-12</wgt>
  <wgt id="733">4.17644e-12</wgt>
  <wgt id="734">4.32034e-12</wgt>
  <wgt id="735">4.21577e-12</wgt>
  <wgt id="736">4.11774e-12</wgt>
  <wgt id="737">4.27101e-12</wgt>
  <wgt id="738">4.01725e-12</wgt>
  <wgt id="739">4.31074e-12</wgt>
  <wgt id="740">4.70214e-12</wgt>
  <wgt id="741">3.80002e-12</wgt>
  <wgt id="742">4.15937e-12</wgt>
  <wgt id="743">4.01266e-12</wgt>
  <wgt id="744">4.13141e-12</wgt>
  <wgt id="745">4.41784e-12</wgt>
  <wgt id="746">4.49588e-12</wgt>
  <wgt id="747">3.79575e-12</wgt>
  <wgt id="748">4.15749e-12</wgt>
  <wgt id="749">4.42854e-12</wgt>
  <wgt id="750">4.33406e-12</wgt>
  <wgt id="751">4.33557e-12</wgt>
  <wgt id="752">3.86517e-12</wgt>
  <wgt id="753">3.98574e-12</wgt>
  <wgt id="754">4.38948e-12</wgt>
  <wgt id="755">4.22333e-12</wgt>
  <wgt id="756">4.2255e-12</wgt>
  <wgt id="757">3.86794e-12</wgt>
  <wgt id="758">4.23677e-12</wgt>
  <wgt id="759">4.35737e-12</wgt>
  <wgt id="760">4.24899e-12</wgt>
  <wgt id="761">4.45697e-12</wgt>
  <wgt id="762">4.48048e-12</wgt>
  <wgt id="763">4.20553e-12</wgt>
  <wgt id="764">4.39034e-12</wgt>
  <wgt id="765">4.2721e-12</wgt>
  <wgt id="766">4.21437e-12</wgt>
  <wgt id="767">4.31835e-12</wgt>
  <wgt id="768">3.96915e-12</wgt>
  <wgt id="769">4.47167e-12</wgt>
  <wgt id="770">4.10889e-12</wgt>
  <wgt id="771">4.99209e-12</wgt>
  <wgt id="772">3.99566e-12</wgt>
  <wgt id="773">4.18558e-12</wgt>
  <wgt id="774">3.70487e-12</wgt>
  <wgt id="775">4.43031e-12</wgt>
  <wgt id="776">4.60913e-12</wgt>
  <wgt id="777">3.99131e-12</wgt>
  <wgt id="778">3.08391e-12</wgt>
  <wgt id="779">2.5011e-12</wgt>
  <wgt id="780">1.99269e-12</wgt>
  <wgt id="781">3.27314e-12</wgt>
  <wgt id="782">3.30228e-12</wgt>
  <wgt id="783">2.52032e-12</wgt>
  <wgt id="784">2.65245e-12</wgt>
  <wgt id="785">3.83023e-12</wgt>
  <wgt id="786">2.33677e-12</wgt>
  <wgt id="787">3.54934e-12</wgt>
  <wgt id="788">1.83219e-12</wgt>
  <wgt id="789">2.48069e-12</wgt>
  <wgt id="790">2.30193e-12</wgt>
  <wgt id="791">2.95717e-12</wgt>
  <wgt id="792">4.05609e-12</wgt>
  <wgt id="793">3.02446e-12</wgt>
  <wgt id="794">2.29024e-12</wgt>
  <wgt id="795">3.66957e-12</wgt>
  <wgt id="796">4.07314e-12</wgt>
  <wgt id="797">3.63524e-12</wgt>
  <wgt id="798">2.79133e-12</wgt>
  <wgt id="799">3.536e-12</wgt>
  <wgt id="800">2.51075e-12</wgt>
  <wgt id="801">2.86286e-12</wgt>
  <wgt id="802">2.29381e-12</wgt>
  <wgt id="803">4.17515e-12</wgt>
  <wgt id="804">3.64278e-12</wgt>
  <wgt id="805">3.69172e-12</wgt>
  <wgt id="806">3.41829e-12</wgt>
  <wgt id="807">2.93576e-12</wgt>
  <wgt id="808">2.98598e-12</wgt>
  <wgt id="809">2.84077e-12</wgt>
  <wgt id="810">3.48043e-12</wgt>
  <wgt id="811">3.35542e-12</wgt>
  <wgt id="812">2.29035e-12</wgt>
  <wgt id="813">2.36407e-12</wgt>
  <wgt id="814">2.57808e-12</wgt>
  <wgt id="815">2.50158e-12</wgt>
  <wgt id="816">2.23536e-12</wgt>
  <wgt id="817">3.21582e-12</wgt>
  <wgt id="818">3.1443e-12</wgt>
  <wgt id="819">2.50129e-12</wgt>
  <wgt id="820">3.07073e-12</wgt>
  <wgt id="821">3.56607e-12</wgt>
  <wgt id="822">2.5247e-12</wgt>
  <wgt id="823">3.60435e-12</wgt>
  <wgt id="824">4.19438e-12</wgt>
  <wgt id="825">2.21201e-12</wgt>
  <wgt id="826">3.31219e-12</wgt>
  <wgt id="827">1.82524e-12</wgt>
  <wgt id="828">3.94738e-12</wgt>
  <wgt id="829">3.20537e-12</wgt>
  <wgt id="830">2.09428e-12</wgt>
  <wgt id="831">3.34909e-12</wgt>
  <wgt id="832">5.10226e-12</wgt>
  <wgt id="833">2.8265e-12</wgt>
  <wgt id="834">4.80454e-12</wgt>
  <wgt id="835">2.48219e-12</wgt>
  <wgt id="836">3.00939e-12</wgt>
  <wgt id="837">3.5169e-12</wgt>
  <wgt id="838">2.89412e-12</wgt>
  <wgt id="839">3.32538e-12</wgt>
  <wgt id="840">2.84959e-12</wgt>
  <wgt id="841">3.86099e-12</wgt>
  <wgt id="842">2.80652e-12</wgt>
  <wgt id="843">3.07123e-12</wgt>
  <wgt id="844">3.23805e-12</wgt>
  <wgt id="845">4.45383e-12</wgt>
  <wgt id="846">2.99178e-12</wgt>
  <wgt id="847">3.13516e-12</wgt>
  <wgt id="848">2.58927e-12</wgt>
  <wgt id="849">3.17705e-12</wgt>
  <wgt id="850">4.09223e-12</wgt>
  <wgt id="851">3.40656e-12</wgt>
  <wgt id="852">2.53786e-12</wgt>
  <wgt id="853">3.42704e-12</wgt>
  <wgt id="854">3.80771e-12</wgt>
  <wgt id="855">3.60467e-12</wgt>
  <wgt id="856">2.14113e-12</wgt>
  <wgt id="857">3.04964e-12</wgt>
  <wgt id="858">3.00199e-12</wgt>
  <wgt id="859">2.87926e-12</wgt>
  <wgt id="860">3.39099e-12</wgt>
  <wgt id="861">2.68855e-12</wgt>
  <wgt id="862">3.13918e-12</wgt>
  <wgt id="863">3.29707e-12</wgt>
  <wgt id="864">3.27234e-12</wgt>
  <wgt id="865">4.485e-12</wgt>
  <wgt id="866">4.91788e-12</wgt>
  <wgt id="867">3.15163e-12</wgt>
  <wgt id="868">3.06551e-12</wgt>
  <wgt id="869">2.3345e-12</wgt>
  <wgt id="870">2.47004e-12</wgt>
  <wgt id="871">2.39458e-12</wgt>
  <wgt id="872">3.75532e-12</wgt>
  <wgt id="873">2.54395e-12</wgt>
  <wgt id="874">3.26862e-12</wgt>
  <wgt id="875">2.65513e-12</wgt>
  <wgt id="876">3.74426e-12</wgt>
  <wgt id="877">3.54501e-12</wgt>
  <wgt id="878">2.60211e-12</wgt>
  <wgt id="879">4.21723e-12</wgt>
  <wgt id="880">4.26611e-12</wgt>
  <wgt id="881">4.43441e-12</wgt>
  <wgt id="882">3.97872e-12</wgt>
  <wgt id="883">4.12959e-12</wgt>
  <wgt id="884">4.29261e-12</wgt>
  <wgt id="885">4.33974e-12</wgt>
  <wgt id="886">4.14472e-12</wgt>
  <wgt id="887">4.4047e-12</wgt>
  <wgt id="888">4.02506e-12</wgt>
  <wgt id="889">4.13069e-12</wgt>
  <wgt id="890">4.4152e-12</wgt>
  <wgt id="891">4.17498e-12</wgt>
  <wgt id="892">4.52688e-12</wgt>
  <wgt id="893">4.41895e-12</wgt>
  <wgt id="894">4.44245e-12</wgt>
  <wgt id="895">4.17198e-12</wgt>
  <wgt id="896">4.98604e-12</wgt>
  <wgt id="897">4.48206e-12</wgt>
  <wgt id="898">4.07948e-12</wgt>
  <wgt id="899">4.01551e-12</wgt>
  <wgt id="900">4.06537e-12</wgt>
  <wgt id="901">3.8455e-12</wgt>
  <wgt id="902">3.81822e-12</wgt>
  <wgt id="903">3.69559e-12</wgt>
  <wgt id="904">4.22815e-12</wgt>
  <wgt id="905">4.09613e-12</wgt>
  <wgt id="906">4.85642e-12</wgt>
  <wgt id="907">4.62179e-12</wgt>
  <wgt id="908">4.44661e-12</wgt>
  <wgt id="909">3.94798e-12</wgt>
  <wgt id="910">4.04286e-12</wgt>
  <wgt id="911">4.15443e-12</wgt>
  <wgt id="912">4.13872e-12</wgt>
  <wgt id="913">3.80837e-12</wgt>
  <wgt id="914">4.20172e-12</wgt>
  <wgt id="915">4.12492e-12</wgt>
  <wgt id="916">4.54518e-12</wgt>
  <wgt id="917">4.12102e-12</wgt>
  <wgt id="918">4.16119e-12</wgt>
  <wgt id="919">4.06296e-12</wgt>
  <wgt id="920">3.9888e-12</wgt>
  <wgt id="921">4.21777e-12</wgt>
  <wgt id="922">3.83186e-12</wgt>
  <wgt id="923">4.00514e-12</wgt>
  <wgt id="924">3.859e-12</wgt>
  <wgt id="925">3.71744e-12</wgt>
  <wgt id="926">4.5096e-12</wgt>
  <wgt id="927">4.42576e-12</wgt>
  <wgt id="928">4.44288e-12</wgt>
  <wgt id="929">4.25011e-12</wgt>
  <wgt id="930">4.13015e-12</wgt>
  <wgt id="931">4.12123e-12</wgt>
  <wgt id="932">3.92759e-12</wgt>
  <wgt id="933">4.54842e-12</wgt>
  <wgt id="934">4.1603e-12</wgt>
  <wgt id="935">4.65255e-12</wgt>
  <wgt id="936">4.17644e-12</wgt>
  <wgt id="937">4.32034e-12</wgt>
  <wgt id="938">4.21577e-12</wgt>
  <wgt id="939">4.11774e-12</wgt>
  <wgt id="940">4.27101e-12</wgt>
  <wgt id="941">4.01725e-12</wgt>
  <wgt id="942">4.31074e-12</wgt>
  <wgt id="943">4.70214e-12</wgt>
  <wgt id="944">3.80002e-12</wgt>
  <wgt id="945">4.15937e-12</wgt>
  <wgt id="946">4.01266e-12</wgt>
  <wgt id="947">4.13141e-12</wgt>
  <wgt id="948">4.41784e-12</wgt>
  <wgt id="949">4.49588e-12</wgt>
  <wgt id="950">3.79575e-12</wgt>
  <wgt id="951">4.15749e-12</wgt>
  <wgt id="952">4.42854e-12</wgt>
  <wgt id="953">4.33406e-12</wgt>
  <wgt id="954">4.33557e-12</wgt>
  <wgt id="955">3.86517e-12</wgt>
  <wgt id="956">3.98574e-12</wgt>
  <wgt id="957">4.38948e-12</wgt>
  <wgt id="958">4.22333e-12</wgt>
  <wgt id="959">4.2255e-12</wgt>
  <wgt id="960">3.86794e-12</wgt>
  <wgt id="961">4.23677e-12</wgt>
  <wgt id="962">4.35737e-12</wgt>
  <wgt id="963">4.24899e-12</wgt>
  <wgt id="964">4.45697e-12</wgt>
  <wgt id="965">4.48048e-12</wgt>
  <wgt id="966">4.20553e-12</wgt>
  <wgt id="967">4.39034e-12</wgt>
  <wgt id="968">4.2721e-12</wgt>
  <wgt id="969">4.21437e-12</wgt>
  <wgt id="970">4.31835e-12</wgt>
  <wgt id="971">3.96915e-12</wgt>
  <wgt id="972">4.47167e-12</wgt>
  <wgt id="973">4.10889e-12</wgt>
  <wgt id="974">4.99209e-12</wgt>
  <wgt id="975">3.99566e-12</wgt>
  <wgt id="976">4.18558e-12</wgt>
  <wgt id="977">3.70487e-12</wgt>
  <wgt id="978">4.43031e-12</wgt>
  <wgt id="979">4.60913e-12</wgt>
  <wgt id="980">4.21319e-12</wgt>
  <wgt id="981">4.24392e-12</wgt>
  <wgt id="982">4.09324e-12</wgt>
</rwgt>
</event>
<event>
 5   1  0.3028200E-11  0.2196183E+04  0.7818608E-02  0.7750308E-01
       21   -1    0    0  502  501  0.00000000000E+00  0.00000000000E+00  0.81770361088E+03  0.81770361088E+03  0.00000000000E+00 0. -1.
       21   -1    0    0  501  502 -0.00000000000E+00 -0.00000000000E+00 -0.14746231035E+04  0.14746231035E+04  0.00000000000E+00 0.  1.
       39    2    1    2    0    0  0.00000000000E+00  0.00000000000E+00 -0.65691949261E+03  0.22923267144E+04  0.21961827214E+04 0.  0.
       25    1    3    3    0    0  0.93654662920E+03  0.34185148632E+03 -0.79079275408E+03  0.12786556250E+04  0.12500000000E+03 0.  0.
       25    1    3    3    0    0 -0.93654662920E+03 -0.34185148632E+03  0.13387326147E+03  0.10136710894E+04  0.12500000000E+03 0.  0.
<mgrwt>
<rscale>  0 0.21961827E+04</rscale>
<asrwt>0</asrwt>
<pdfrwt beam="1">  1       21 0.12580056E+00 0.21961827E+04</pdfrwt>
<pdfrwt beam="2">  1       21 0.22686509E+00 0.21961827E+04</pdfrwt>
<totfact> 0.16902681E+01</totfact>
</mgrwt>
<rwgt>
  <wgt id="1">3.0282e-12</wgt>
  <wgt id="2">2.64121e-12</wgt>
  <wgt id="3">3.50753e-12</wgt>
  <wgt id="4">3.0282e-12</wgt>
  <wgt id="5">2.64121e-12</wgt>
  <wgt id="6">3.50753e-12</wgt>
  <wgt id="7">3.0282e-12</wgt>
  <wgt id="8">2.64121e-12</wgt>
  <wgt id="9">3.50753e-12</wgt>
  <wgt id="10">3.12827e-12</wgt>
  <wgt id="11">3.12595e-12</wgt>
  <wgt id="12">3.12298e-12</wgt>
  <wgt id="13">3.11819e-12</wgt>
  <wgt id="14">3.13955e-12</wgt>
  <wgt id="15">3.13336e-12</wgt>
  <wgt id="16">3.12297e-12</wgt>
  <wgt id="17">3.13608e-12</wgt>
  <wgt id="18">3.12349e-12</wgt>
  <wgt id="19">3.13484e-12</wgt>
  <wgt id="20">3.12025e-12</wgt>
  <wgt id="21">3.10832e-12</wgt>
  <wgt id="22">3.11486e-12</wgt>
  <wgt id="23">3.09823e-12</wgt>
  <wgt id="24">3.11243e-12</wgt>
  <wgt id="25">3.12015e-12</wgt>
  <wgt id="26">3.13928e-12</wgt>
  <wgt id="27">3.1271e-12</wgt>
  <wgt id="28">3.11297e-12</wgt>
  <wgt id="29">3.13068e-12</wgt>
  <wgt id="30">3.1164e-12</wgt>
  <wgt id="31">3.13872e-12</wgt>
  <wgt id="32">3.11983e-12</wgt>
  <wgt id="33">3.13474e-12</wgt>
  <wgt id="34">3.11675e-12</wgt>
  <wgt id="35">3.12246e-12</wgt>
  <wgt id="36">3.13744e-12</wgt>
  <wgt id="37">3.12003e-12</wgt>
  <wgt id="38">3.11977e-12</wgt>
  <wgt id="39">3.1639e-12</wgt>
  <wgt id="40">3.13337e-12</wgt>
  <wgt id="41">3.12712e-12</wgt>
  <wgt id="42">3.13491e-12</wgt>
  <wgt id="43">3.12875e-12</wgt>
  <wgt id="44">3.12212e-12</wgt>
  <wgt id="45">3.13367e-12</wgt>
  <wgt id="46">3.12982e-12</wgt>
  <wgt id="47">3.1225e-12</wgt>
  <wgt id="48">3.12848e-12</wgt>
  <wgt id="49">3.1289e-12</wgt>
  <wgt id="50">3.13739e-12</wgt>
  <wgt id="51">3.13505e-12</wgt>
  <wgt id="52">3.12676e-12</wgt>
  <wgt id="53">3.11251e-12</wgt>
  <wgt id="54">3.12469e-12</wgt>
  <wgt id="55">3.12776e-12</wgt>
  <wgt id="56">3.1402e-12</wgt>
  <wgt id="57">3.13683e-12</wgt>
  <wgt id="58">3.11181e-12</wgt>
  <wgt id="59">3.11962e-12</wgt>
  <wgt id="60">3.13065e-12</wgt>
  <wgt id="61">3.11673e-12</wgt>
  <wgt id="62">3.12218e-12</wgt>
  <wgt id="63">3.1272e-12</wgt>
  <wgt id="64">3.1306e-12</wgt>
  <wgt id="65">3.1327e-12</wgt>
  <wgt id="66">3.12451e-12</wgt>
  <wgt id="67">3.11726e-12</wgt>
  <wgt id="68">3.1262e-12</wgt>
  <wgt id="69">3.12881e-12</wgt>
  <wgt id="70">3.12825e-12</wgt>
  <wgt id="71">3.12749e-12</wgt>
  <wgt id="72">3.12244e-12</wgt>
  <wgt id="73">3.13063e-12</wgt>
  <wgt id="74">3.12935e-12</wgt>
  <wgt id="75">3.12474e-12</wgt>
  <wgt id="76">3.1352e-12</wgt>
  <wgt id="77">3.12744e-12</wgt>
  <wgt id="78">3.12838e-12</wgt>
  <wgt id="79">3.13515e-12</wgt>
  <wgt id="80">3.11678e-12</wgt>
  <wgt id="81">3.12565e-12</wgt>
  <wgt id="82">3.12833e-12</wgt>
  <wgt id="83">3.11718e-12</wgt>
  <wgt id="84">3.12413e-12</wgt>
  <wgt id="85">3.12151e-12</wgt>
  <wgt id="86">3.13717e-12</wgt>
  <wgt id="87">3.11246e-12</wgt>
  <wgt id="88">3.13136e-12</wgt>
  <wgt id="89">3.13092e-12</wgt>
  <wgt id="90">3.13442e-12</wgt>
  <wgt id="91">3.13133e-12</wgt>
  <wgt id="92">3.13417e-12</wgt>
  <wgt id="93">3.12945e-12</wgt>
  <wgt id="94">3.12554e-12</wgt>
  <wgt id="95">3.13231e-12</wgt>
  <wgt id="96">3.13029e-12</wgt>
  <wgt id="97">3.1229e-12</wgt>
  <wgt id="98">3.12956e-12</wgt>
  <wgt id="99">3.124e-12</wgt>
  <wgt id="100">3.13112e-12</wgt>
  <wgt id="101">3.1286e-12</wgt>
  <wgt id="102">3.12586e-12</wgt>
  <wgt id="103">3.13225e-12</wgt>
  <wgt id="104">3.12725e-12</wgt>
  <wgt id="105">3.13243e-12</wgt>
  <wgt id="106">3.12375e-12</wgt>
  <wgt id="107">3.13678e-12</wgt>
  <wgt id="108">3.12518e-12</wgt>
  <wgt id="109">3.12824e-12</wgt>
  <wgt id="110">3.12862e-12</wgt>
  <wgt id="111">3.15786e-12</wgt>
  <wgt id="112">3.13171e-12</wgt>
  <wgt id="113">4.18544e-12</wgt>
  <wgt id="114">4.27836e-12</wgt>
  <wgt id="115">4.21503e-12</wgt>
  <wgt id="116">5.77066e-12</wgt>
  <wgt id="117">3.44984e-12</wgt>
  <wgt id="118">3.46122e-12</wgt>
  <wgt id="119">3.4432e-12</wgt>
  <wgt id="120">3.45019e-12</wgt>
  <wgt id="121">3.44969e-12</wgt>
  <wgt id="122">3.44362e-12</wgt>
  <wgt id="123">3.45816e-12</wgt>
  <wgt id="124">3.4448e-12</wgt>
  <wgt id="125">3.45291e-12</wgt>
  <wgt id="126">3.45544e-12</wgt>
  <wgt id="127">3.44602e-12</wgt>
  <wgt id="128">3.46059e-12</wgt>
  <wgt id="129">3.43916e-12</wgt>
  <wgt id="130">3.46925e-12</wgt>
  <wgt id="131">3.42994e-12</wgt>
  <wgt id="132">3.36155e-12</wgt>
  <wgt id="133">3.55393e-12</wgt>
  <wgt id="134">3.41394e-12</wgt>
  <wgt id="135">3.47787e-12</wgt>
  <wgt id="136">3.493e-12</wgt>
  <wgt id="137">3.3974e-12</wgt>
  <wgt id="138">3.58052e-12</wgt>
  <wgt id="139">3.32332e-12</wgt>
  <wgt id="140">3.42726e-12</wgt>
  <wgt id="141">3.46734e-12</wgt>
  <wgt id="142">3.45013e-12</wgt>
  <wgt id="143">3.45495e-12</wgt>
  <wgt id="144">3.35659e-12</wgt>
  <wgt id="145">3.53603e-12</wgt>
  <wgt id="146">3.47913e-12</wgt>
  <wgt id="147">3.42652e-12</wgt>
  <wgt id="148">3.46016e-12</wgt>
  <wgt id="149">3.44904e-12</wgt>
  <wgt id="150">3.47893e-12</wgt>
  <wgt id="151">3.43628e-12</wgt>
  <wgt id="152">3.45124e-12</wgt>
  <wgt id="153">3.44925e-12</wgt>
  <wgt id="154">3.47681e-12</wgt>
  <wgt id="155">3.41708e-12</wgt>
  <wgt id="156">3.51535e-12</wgt>
  <wgt id="157">3.38e-12</wgt>
  <wgt id="158">4.15058e-12</wgt>
  <wgt id="159">4.168e-12</wgt>
  <wgt id="160">4.13669e-12</wgt>
  <wgt id="161">4.14085e-12</wgt>
  <wgt id="162">4.16172e-12</wgt>
  <wgt id="163">4.14626e-12</wgt>
  <wgt id="164">4.15699e-12</wgt>
  <wgt id="165">4.15233e-12</wgt>
  <wgt id="166">4.14928e-12</wgt>
  <wgt id="167">4.14752e-12</wgt>
  <wgt id="168">4.15499e-12</wgt>
  <wgt id="169">4.13272e-12</wgt>
  <wgt id="170">4.16163e-12</wgt>
  <wgt id="171">4.14642e-12</wgt>
  <wgt id="172">4.1564e-12</wgt>
  <wgt id="173">4.15002e-12</wgt>
  <wgt id="174">4.15078e-12</wgt>
  <wgt id="175">4.03751e-12</wgt>
  <wgt id="176">4.29787e-12</wgt>
  <wgt id="177">4.17143e-12</wgt>
  <wgt id="178">4.13149e-12</wgt>
  <wgt id="179">4.32044e-12</wgt>
  <wgt id="180">3.88237e-12</wgt>
  <wgt id="181">4.03287e-12</wgt>
  <wgt id="182">4.2282e-12</wgt>
  <wgt id="183">4.07868e-12</wgt>
  <wgt id="184">4.18621e-12</wgt>
  <wgt id="185">4.11672e-12</wgt>
  <wgt id="186">4.19089e-12</wgt>
  <wgt id="187">4.11311e-12</wgt>
  <wgt id="188">4.21758e-12</wgt>
  <wgt id="189">4.12445e-12</wgt>
  <wgt id="190">4.1612e-12</wgt>
  <wgt id="191">4.16169e-12</wgt>
  <wgt id="192">4.14394e-12</wgt>
  <wgt id="193">4.20774e-12</wgt>
  <wgt id="194">4.12228e-12</wgt>
  <wgt id="195">4.0556e-12</wgt>
  <wgt id="196">4.32327e-12</wgt>
  <wgt id="197">4.17064e-12</wgt>
  <wgt id="198">4.14585e-12</wgt>
  <wgt id="199">4.15058e-12</wgt>
  <wgt id="200">4.18538e-12</wgt>
  <wgt id="201">4.1728e-12</wgt>
  <wgt id="202">4.16041e-12</wgt>
  <wgt id="203">4.14192e-12</wgt>
  <wgt id="204">4.13312e-12</wgt>
  <wgt id="205">4.12586e-12</wgt>
  <wgt id="206">4.04275e-12</wgt>
  <wgt id="207">4.06623e-12</wgt>
  <wgt id="208">4.01975e-12</wgt>
  <wgt id="209">4.05424e-12</wgt>
  <wgt id="210">4.03476e-12</wgt>
  <wgt id="211">4.04172e-12</wgt>
  <wgt id="212">4.04373e-12</wgt>
  <wgt id="213">4.04253e-12</wgt>
  <wgt id="214">4.0433e-12</wgt>
  <wgt id="215">4.04559e-12</wgt>
  <wgt id="216">4.041e-12</wgt>
  <wgt id="217">4.05358e-12</wgt>
  <wgt id="218">4.03451e-12</wgt>
  <wgt id="219">4.03783e-12</wgt>
  <wgt id="220">4.04603e-12</wgt>
  <wgt id="221">4.04153e-12</wgt>
  <wgt id="222">4.04602e-12</wgt>
  <wgt id="223">3.83492e-12</wgt>
  <wgt id="224">4.23194e-12</wgt>
  <wgt id="225">3.99646e-12</wgt>
  <wgt id="226">4.10123e-12</wgt>
  <wgt id="227">4.00602e-12</wgt>
  <wgt id="228">4.05904e-12</wgt>
  <wgt id="229">3.9885e-12</wgt>
  <wgt id="230">4.06994e-12</wgt>
  <wgt id="231">4.15617e-12</wgt>
  <wgt id="232">3.94953e-12</wgt>
  <wgt id="233">4.02244e-12</wgt>
  <wgt id="234">4.07499e-12</wgt>
  <wgt id="235">3.96205e-12</wgt>
  <wgt id="236">4.1185e-12</wgt>
  <wgt id="237">3.98814e-12</wgt>
  <wgt id="238">4.06159e-12</wgt>
  <wgt id="239">4.01924e-12</wgt>
  <wgt id="240">4.08599e-12</wgt>
  <wgt id="241">4.00289e-12</wgt>
  <wgt id="242">4.09078e-12</wgt>
  <wgt id="243">4.08689e-12</wgt>
  <wgt id="244">4.06475e-12</wgt>
  <wgt id="245">4.03985e-12</wgt>
  <wgt id="246">4.07253e-12</wgt>
  <wgt id="247">4.04275e-12</wgt>
  <wgt id="248">4.07768e-12</wgt>
  <wgt id="249">4.06444e-12</wgt>
  <wgt id="250">4.05203e-12</wgt>
  <wgt id="251">4.03368e-12</wgt>
  <wgt id="252">4.02492e-12</wgt>
  <wgt id="253">4.01867e-12</wgt>
  <wgt id="254">3.95126e-12</wgt>
  <wgt id="255">3.95483e-12</wgt>
  <wgt id="256">3.94724e-12</wgt>
  <wgt id="257">3.95423e-12</wgt>
  <wgt id="258">3.949e-12</wgt>
  <wgt id="259">3.97738e-12</wgt>
  <wgt id="260">3.92586e-12</wgt>
  <wgt id="261">3.95581e-12</wgt>
  <wgt id="262">3.94567e-12</wgt>
  <wgt id="263">3.94945e-12</wgt>
  <wgt id="264">3.9531e-12</wgt>
  <wgt id="265">3.94699e-12</wgt>
  <wgt id="266">3.95981e-12</wgt>
  <wgt id="267">3.95233e-12</wgt>
  <wgt id="268">3.9495e-12</wgt>
  <wgt id="269">3.96291e-12</wgt>
  <wgt id="270">3.94323e-12</wgt>
  <wgt id="271">3.94424e-12</wgt>
  <wgt id="272">3.95917e-12</wgt>
  <wgt id="273">3.9396e-12</wgt>
  <wgt id="274">3.95999e-12</wgt>
  <wgt id="275">3.93517e-12</wgt>
  <wgt id="276">3.96782e-12</wgt>
  <wgt id="277">3.9293e-12</wgt>
  <wgt id="278">3.97145e-12</wgt>
  <wgt id="279">3.87915e-12</wgt>
  <wgt id="280">4.04158e-12</wgt>
  <wgt id="281">3.93494e-12</wgt>
  <wgt id="282">3.952e-12</wgt>
  <wgt id="283">3.84216e-12</wgt>
  <wgt id="284">4.08529e-12</wgt>
  <wgt id="285">3.76956e-12</wgt>
  <wgt id="286">4.10107e-12</wgt>
  <wgt id="287">3.96327e-12</wgt>
  <wgt id="288">3.9358e-12</wgt>
  <wgt id="289">3.97795e-12</wgt>
  <wgt id="290">3.88892e-12</wgt>
  <wgt id="291">3.94079e-12</wgt>
  <wgt id="292">3.95351e-12</wgt>
  <wgt id="293">3.92196e-12</wgt>
  <wgt id="294">3.98034e-12</wgt>
  <wgt id="295">3.87895e-12</wgt>
  <wgt id="296">4.03926e-12</wgt>
  <wgt id="297">3.95146e-12</wgt>
  <wgt id="298">3.96457e-12</wgt>
  <wgt id="299">3.93916e-12</wgt>
  <wgt id="300">3.98308e-12</wgt>
  <wgt id="301">3.90263e-12</wgt>
  <wgt id="302">4.07799e-12</wgt>
  <wgt id="303">3.92362e-12</wgt>
  <wgt id="304">3.96706e-12</wgt>
  <wgt id="305">3.96363e-12</wgt>
  <wgt id="306">3.96757e-12</wgt>
  <wgt id="307">3.95916e-12</wgt>
  <wgt id="308">3.96712e-12</wgt>
  <wgt id="309">3.96136e-12</wgt>
  <wgt id="310">3.99094e-12</wgt>
  <wgt id="311">3.93821e-12</wgt>
  <wgt id="312">3.96705e-12</wgt>
  <wgt id="313">3.96008e-12</wgt>
  <wgt id="314">3.9618e-12</wgt>
  <wgt id="315">3.9651e-12</wgt>
  <wgt id="316">3.95941e-12</wgt>
  <wgt id="317">3.97238e-12</wgt>
  <wgt id="318">3.96622e-12</wgt>
  <wgt id="319">3.95884e-12</wgt>
  <wgt id="320">3.97588e-12</wgt>
  <wgt id="321">3.95662e-12</wgt>
  <wgt id="322">3.95444e-12</wgt>
  <wgt id="323">3.97394e-12</wgt>
  <wgt id="324">3.95402e-12</wgt>
  <wgt id="325">3.97178e-12</wgt>
  <wgt id="326">3.95052e-12</wgt>
  <wgt id="327">3.98025e-12</wgt>
  <wgt id="328">3.94328e-12</wgt>
  <wgt id="329">3.97499e-12</wgt>
  <wgt id="330">4.07539e-12</wgt>
  <wgt id="331">3.85676e-12</wgt>
  <wgt id="332">3.94991e-12</wgt>
  <wgt id="333">3.96373e-12</wgt>
  <wgt id="334">3.878e-12</wgt>
  <wgt id="335">4.06967e-12</wgt>
  <wgt id="336">3.83156e-12</wgt>
  <wgt id="337">4.12375e-12</wgt>
  <wgt id="338">4.0061e-12</wgt>
  <wgt id="339">3.92407e-12</wgt>
  <wgt id="340">3.98864e-12</wgt>
  <wgt id="341">3.89841e-12</wgt>
  <wgt id="342">3.9565e-12</wgt>
  <wgt id="343">3.95964e-12</wgt>
  <wgt id="344">3.93701e-12</wgt>
  <wgt id="345">3.99431e-12</wgt>
  <wgt id="346">3.88847e-12</wgt>
  <wgt id="347">4.04982e-12</wgt>
  <wgt id="348">3.96569e-12</wgt>
  <wgt id="349">3.97448e-12</wgt>
  <wgt id="350">3.94831e-12</wgt>
  <wgt id="351">4.00212e-12</wgt>
  <wgt id="352">3.91032e-12</wgt>
  <wgt id="353">4.0959e-12</wgt>
  <wgt id="354">3.92182e-12</wgt>
  <wgt id="355">3.98938e-12</wgt>
  <wgt id="356">3.95126e-12</wgt>
  <wgt id="357">3.97979e-12</wgt>
  <wgt id="358">3.96363e-12</wgt>
  <wgt id="359">3.96503e-12</wgt>
  <wgt id="360">3.97664e-12</wgt>
  <wgt id="361">3.9632e-12</wgt>
  <wgt id="362">4.02929e-12</wgt>
  <wgt id="363">4.02014e-12</wgt>
  <wgt id="364">4.00679e-12</wgt>
  <wgt id="365">3.99394e-12</wgt>
  <wgt id="366">3.97931e-12</wgt>
  <wgt id="367">3.94974e-12</wgt>
  <wgt id="368">3.93309e-12</wgt>
  <wgt id="369">3.91508e-12</wgt>
  <wgt id="370">3.9632e-12</wgt>
  <wgt id="371">3.98073e-12</wgt>
  <wgt id="372">3.97117e-12</wgt>
  <wgt id="373">3.95679e-12</wgt>
  <wgt id="374">3.95577e-12</wgt>
  <wgt id="375">4.23138e-12</wgt>
  <wgt id="376">4.23187e-12</wgt>
  <wgt id="377">4.2307e-12</wgt>
  <wgt id="378">4.24674e-12</wgt>
  <wgt id="379">4.21619e-12</wgt>
  <wgt id="380">4.24292e-12</wgt>
  <wgt id="381">4.22689e-12</wgt>
  <wgt id="382">4.2519e-12</wgt>
  <wgt id="383">4.21102e-12</wgt>
  <wgt id="384">4.23412e-12</wgt>
  <wgt id="385">4.22876e-12</wgt>
  <wgt id="386">4.247e-12</wgt>
  <wgt id="387">4.22464e-12</wgt>
  <wgt id="388">4.2275e-12</wgt>
  <wgt id="389">4.23593e-12</wgt>
  <wgt id="390">4.24211e-12</wgt>
  <wgt id="391">4.2201e-12</wgt>
  <wgt id="392">4.20111e-12</wgt>
  <wgt id="393">4.24867e-12</wgt>
  <wgt id="394">4.23702e-12</wgt>
  <wgt id="395">4.22373e-12</wgt>
  <wgt id="396">4.23373e-12</wgt>
  <wgt id="397">4.22973e-12</wgt>
  <wgt id="398">4.21599e-12</wgt>
  <wgt id="399">4.24637e-12</wgt>
  <wgt id="400">4.22507e-12</wgt>
  <wgt id="401">4.24561e-12</wgt>
  <wgt id="402">4.19861e-12</wgt>
  <wgt id="403">4.24575e-12</wgt>
  <wgt id="404">4.32547e-12</wgt>
  <wgt id="405">4.00396e-12</wgt>
  <wgt id="406">4.16331e-12</wgt>
  <wgt id="407">4.37887e-12</wgt>
  <wgt id="408">4.26618e-12</wgt>
  <wgt id="409">4.16464e-12</wgt>
  <wgt id="410">4.11982e-12</wgt>
  <wgt id="411">4.28306e-12</wgt>
  <wgt id="412">4.22396e-12</wgt>
  <wgt id="413">4.24177e-12</wgt>
  <wgt id="414">4.18679e-12</wgt>
  <wgt id="415">4.26616e-12</wgt>
  <wgt id="416">4.3377e-12</wgt>
  <wgt id="417">4.08431e-12</wgt>
  <wgt id="418">4.23695e-12</wgt>
  <wgt id="419">4.20093e-12</wgt>
  <wgt id="420">4.2879e-12</wgt>
  <wgt id="421">4.19993e-12</wgt>
  <wgt id="422">4.22654e-12</wgt>
  <wgt id="423">4.23455e-12</wgt>
  <wgt id="424">4.31061e-12</wgt>
  <wgt id="425">4.18175e-12</wgt>
  <wgt id="426">4.23138e-12</wgt>
  <wgt id="427">4.19471e-12</wgt>
  <wgt id="428">4.3365e-12</wgt>
  <wgt id="429">4.26722e-12</wgt>
  <wgt id="430">4.38212e-12</wgt>
  <wgt id="431">4.35928e-12</wgt>
  <wgt id="432">4.33762e-12</wgt>
  <wgt id="433">4.31663e-12</wgt>
  <wgt id="434">4.29113e-12</wgt>
  <wgt id="435">4.23756e-12</wgt>
  <wgt id="436">4.21001e-12</wgt>
  <wgt id="437">4.1838e-12</wgt>
  <wgt id="438">4.26722e-12</wgt>
  <wgt id="439">4.28116e-12</wgt>
  <wgt id="440">4.27302e-12</wgt>
  <wgt id="441">4.26296e-12</wgt>
  <wgt id="442">4.25938e-12</wgt>
  <wgt id="443">4.12817e-12</wgt>
  <wgt id="444">4.15109e-12</wgt>
  <wgt id="445">4.12173e-12</wgt>
  <wgt id="446">4.10173e-12</wgt>
  <wgt id="447">4.11812e-12</wgt>
  <wgt id="448">4.02613e-12</wgt>
  <wgt id="449">4.19022e-12</wgt>
  <wgt id="450">4.12315e-12</wgt>
  <wgt id="451">4.1214e-12</wgt>
  <wgt id="452">4.21416e-12</wgt>
  <wgt id="453">4.16259e-12</wgt>
  <wgt id="454">3.96446e-12</wgt>
  <wgt id="455">4.13728e-12</wgt>
  <wgt id="456">4.09862e-12</wgt>
  <wgt id="457">4.1424e-12</wgt>
  <wgt id="458">4.17718e-12</wgt>
  <wgt id="459">4.15654e-12</wgt>
  <wgt id="460">4.15904e-12</wgt>
  <wgt id="461">4.05587e-12</wgt>
  <wgt id="462">4.09977e-12</wgt>
  <wgt id="463">4.08322e-12</wgt>
  <wgt id="464">4.10847e-12</wgt>
  <wgt id="465">4.16755e-12</wgt>
  <wgt id="466">4.08012e-12</wgt>
  <wgt id="467">4.09264e-12</wgt>
  <wgt id="468">4.11853e-12</wgt>
  <wgt id="469">4.11952e-12</wgt>
  <wgt id="470">4.09005e-12</wgt>
  <wgt id="471">4.09398e-12</wgt>
  <wgt id="472">4.14561e-12</wgt>
  <wgt id="473">4.01101e-12</wgt>
  <wgt id="474">3.0282e-12</wgt>
  <wgt id="475">3.16637e-12</wgt>
  <wgt id="476">2.97473e-12</wgt>
  <wgt id="477">2.94493e-12</wgt>
  <wgt id="478">3.05088e-12</wgt>
  <wgt id="479">2.97855e-12</wgt>
  <wgt id="480">3.13698e-12</wgt>
  <wgt id="481">2.98402e-12</wgt>
  <wgt id="482">2.94498e-12</wgt>
  <wgt id="483">2.95465e-12</wgt>
  <wgt id="484">3.17518e-12</wgt>
  <wgt id="485">2.99779e-12</wgt>
  <wgt id="486">3.12249e-12</wgt>
  <wgt id="487">3.05278e-12</wgt>
  <wgt id="488">3.07858e-12</wgt>
  <wgt id="489">2.89306e-12</wgt>
  <wgt id="490">2.92853e-12</wgt>
  <wgt id="491">3.00825e-12</wgt>
  <wgt id="492">2.95629e-12</wgt>
  <wgt id="493">2.91529e-12</wgt>
  <wgt id="494">2.93553e-12</wgt>
  <wgt id="495">3.05461e-12</wgt>
  <wgt id="496">2.93074e-12</wgt>
  <wgt id="497">2.91309e-12</wgt>
  <wgt id="498">3.08835e-12</wgt>
  <wgt id="499">2.9743e-12</wgt>
  <wgt id="500">2.96949e-12</wgt>
  <wgt id="501">3.15174e-12</wgt>
  <wgt id="502">2.97954e-12</wgt>
  <wgt id="503">3.02846e-12</wgt>
  <wgt id="504">3.06167e-12</wgt>
  <wgt id="505">2.98798e-12</wgt>
  <wgt id="506">3.039e-12</wgt>
  <wgt id="507">3.01558e-12</wgt>
  <wgt id="508">3.10451e-12</wgt>
  <wgt id="509">2.8989e-12</wgt>
  <wgt id="510">3.09735e-12</wgt>
  <wgt id="511">2.94837e-12</wgt>
  <wgt id="512">3.09202e-12</wgt>
  <wgt id="513">3.13048e-12</wgt>
  <wgt id="514">3.03592e-12</wgt>
  <wgt id="515">3.00628e-12</wgt>
  <wgt id="516">3.14961e-12</wgt>
  <wgt id="517">3.09856e-12</wgt>
  <wgt id="518">3.11054e-12</wgt>
  <wgt id="519">2.95227e-12</wgt>
  <wgt id="520">3.06933e-12</wgt>
  <wgt id="521">3.11893e-12</wgt>
  <wgt id="522">3.15285e-12</wgt>
  <wgt id="523">3.04226e-12</wgt>
  <wgt id="524">3.04119e-12</wgt>
  <wgt id="525">3.10733e-12</wgt>
  <wgt id="526">3.0498e-12</wgt>
  <wgt id="527">3.06663e-12</wgt>
  <wgt id="528">3.03831e-12</wgt>
  <wgt id="529">2.99232e-12</wgt>
  <wgt id="530">3.07777e-12</wgt>
  <wgt id="531">2.98298e-12</wgt>
  <wgt id="532">3.20349e-12</wgt>
  <wgt id="533">2.87835e-12</wgt>
  <wgt id="534">3.02349e-12</wgt>
  <wgt id="535">3.05221e-12</wgt>
  <wgt id="536">3.01157e-12</wgt>
  <wgt id="537">3.02871e-12</wgt>
  <wgt id="538">3.06931e-12</wgt>
  <wgt id="539">2.97076e-12</wgt>
  <wgt id="540">3.00393e-12</wgt>
  <wgt id="541">2.94828e-12</wgt>
  <wgt id="542">2.98282e-12</wgt>
  <wgt id="543">3.02111e-12</wgt>
  <wgt id="544">3.16513e-12</wgt>
  <wgt id="545">2.97644e-12</wgt>
  <wgt id="546">2.96201e-12</wgt>
  <wgt id="547">2.95166e-12</wgt>
  <wgt id="548">2.90713e-12</wgt>
  <wgt id="549">2.98249e-12</wgt>
  <wgt id="550">2.98631e-12</wgt>
  <wgt id="551">3.07006e-12</wgt>
  <wgt id="552">2.95991e-12</wgt>
  <wgt id="553">3.00674e-12</wgt>
  <wgt id="554">3.24401e-12</wgt>
  <wgt id="555">3.11338e-12</wgt>
  <wgt id="556">2.92853e-12</wgt>
  <wgt id="557">3.09292e-12</wgt>
  <wgt id="558">2.94823e-12</wgt>
  <wgt id="559">2.973e-12</wgt>
  <wgt id="560">3.29733e-12</wgt>
  <wgt id="561">2.98117e-12</wgt>
  <wgt id="562">3.096e-12</wgt>
  <wgt id="563">2.99721e-12</wgt>
  <wgt id="564">3.07315e-12</wgt>
  <wgt id="565">2.94957e-12</wgt>
  <wgt id="566">3.06572e-12</wgt>
  <wgt id="567">2.9963e-12</wgt>
  <wgt id="568">3.02222e-12</wgt>
  <wgt id="569">3.06957e-12</wgt>
  <wgt id="570">2.92756e-12</wgt>
  <wgt id="571">3.34687e-12</wgt>
  <wgt id="572">2.97391e-12</wgt>
  <wgt id="573">2.91352e-12</wgt>
  <wgt id="574">2.9341e-12</wgt>
  <wgt id="575">3.32448e-12</wgt>
  <wgt id="576">3.33101e-12</wgt>
  <wgt id="577">3.43113e-12</wgt>
  <wgt id="578">3.41179e-12</wgt>
  <wgt id="579">3.38957e-12</wgt>
  <wgt id="580">3.41234e-12</wgt>
  <wgt id="581">3.55572e-12</wgt>
  <wgt id="582">3.32622e-12</wgt>
  <wgt id="583">3.35313e-12</wgt>
  <wgt id="584">3.31856e-12</wgt>
  <wgt id="585">3.29553e-12</wgt>
  <wgt id="586">3.2317e-12</wgt>
  <wgt id="587">3.36993e-12</wgt>
  <wgt id="588">3.32643e-12</wgt>
  <wgt id="589">3.4055e-12</wgt>
  <wgt id="590">3.35054e-12</wgt>
  <wgt id="591">3.45099e-12</wgt>
  <wgt id="592">3.20351e-12</wgt>
  <wgt id="593">3.29998e-12</wgt>
  <wgt id="594">3.42635e-12</wgt>
  <wgt id="595">3.32828e-12</wgt>
  <wgt id="596">3.40726e-12</wgt>
  <wgt id="597">3.24354e-12</wgt>
  <wgt id="598">3.23155e-12</wgt>
  <wgt id="599">3.45604e-12</wgt>
  <wgt id="600">3.3185e-12</wgt>
  <wgt id="601">3.22916e-12</wgt>
  <wgt id="602">3.2398e-12</wgt>
  <wgt id="603">3.2551e-12</wgt>
  <wgt id="604">3.37372e-12</wgt>
  <wgt id="605">3.45033e-12</wgt>
  <wgt id="606">3.28647e-12</wgt>
  <wgt id="607">3.30804e-12</wgt>
  <wgt id="608">3.35596e-12</wgt>
  <wgt id="609">3.16704e-12</wgt>
  <wgt id="610">3.20572e-12</wgt>
  <wgt id="611">3.341e-12</wgt>
  <wgt id="612">3.56717e-12</wgt>
  <wgt id="613">3.30902e-12</wgt>
  <wgt id="614">3.34717e-12</wgt>
  <wgt id="615">3.27741e-12</wgt>
  <wgt id="616">3.48965e-12</wgt>
  <wgt id="617">3.41237e-12</wgt>
  <wgt id="618">3.46299e-12</wgt>
  <wgt id="619">3.2959e-12</wgt>
  <wgt id="620">3.43459e-12</wgt>
  <wgt id="621">3.3452e-12</wgt>
  <wgt id="622">3.36993e-12</wgt>
  <wgt id="623">3.40707e-12</wgt>
  <wgt id="624">3.31512e-12</wgt>
  <wgt id="625">3.27092e-12</wgt>
  <wgt id="626">3.21825e-12</wgt>
  <wgt id="627">3.18666e-12</wgt>
  <wgt id="628">3.42434e-12</wgt>
  <wgt id="629">3.27405e-12</wgt>
  <wgt id="630">3.22338e-12</wgt>
  <wgt id="631">3.33918e-12</wgt>
  <wgt id="632">3.19228e-12</wgt>
  <wgt id="633">3.29743e-12</wgt>
  <wgt id="634">3.30322e-12</wgt>
  <wgt id="635">3.2315e-12</wgt>
  <wgt id="636">3.35818e-12</wgt>
  <wgt id="637">3.33395e-12</wgt>
  <wgt id="638">3.2147e-12</wgt>
  <wgt id="639">3.28051e-12</wgt>
  <wgt id="640">3.32692e-12</wgt>
  <wgt id="641">3.36638e-12</wgt>
  <wgt id="642">3.20831e-12</wgt>
  <wgt id="643">3.30635e-12</wgt>
  <wgt id="644">3.14564e-12</wgt>
  <wgt id="645">3.34319e-12</wgt>
  <wgt id="646">3.33379e-12</wgt>
  <wgt id="647">3.28371e-12</wgt>
  <wgt id="648">3.36288e-12</wgt>
  <wgt id="649">3.3609e-12</wgt>
  <wgt id="650">3.24803e-12</wgt>
  <wgt id="651">3.3912e-12</wgt>
  <wgt id="652">3.29695e-12</wgt>
  <wgt id="653">3.2316e-12</wgt>
  <wgt id="654">3.28556e-12</wgt>
  <wgt id="655">3.26865e-12</wgt>
  <wgt id="656">3.31741e-12</wgt>
  <wgt id="657">3.4743e-12</wgt>
  <wgt id="658">3.3433e-12</wgt>
  <wgt id="659">3.19401e-12</wgt>
  <wgt id="660">3.36975e-12</wgt>
  <wgt id="661">3.27862e-12</wgt>
  <wgt id="662">3.30862e-12</wgt>
  <wgt id="663">3.33098e-12</wgt>
  <wgt id="664">3.28911e-12</wgt>
  <wgt id="665">3.32016e-12</wgt>
  <wgt id="666">3.30154e-12</wgt>
  <wgt id="667">3.44159e-12</wgt>
  <wgt id="668">3.31756e-12</wgt>
  <wgt id="669">3.40009e-12</wgt>
  <wgt id="670">3.39609e-12</wgt>
  <wgt id="671">3.29548e-12</wgt>
  <wgt id="672">3.19014e-12</wgt>
  <wgt id="673">3.35043e-12</wgt>
  <wgt id="674">3.2524e-12</wgt>
  <wgt id="675">3.27247e-12</wgt>
  <wgt id="676">4.174e-12</wgt>
  <wgt id="677">4.22788e-12</wgt>
  <wgt id="678">4.38529e-12</wgt>
  <wgt id="679">3.97475e-12</wgt>
  <wgt id="680">4.08089e-12</wgt>
  <wgt id="681">4.24975e-12</wgt>
  <wgt id="682">4.27585e-12</wgt>
  <wgt id="683">4.10545e-12</wgt>
  <wgt id="684">4.34672e-12</wgt>
  <wgt id="685">4.00745e-12</wgt>
  <wgt id="686">4.10591e-12</wgt>
  <wgt id="687">4.3426e-12</wgt>
  <wgt id="688">4.12403e-12</wgt>
  <wgt id="689">4.42133e-12</wgt>
  <wgt id="690">4.36604e-12</wgt>
  <wgt id="691">4.37602e-12</wgt>
  <wgt id="692">4.14267e-12</wgt>
  <wgt id="693">4.8932e-12</wgt>
  <wgt id="694">4.43123e-12</wgt>
  <wgt id="695">4.04041e-12</wgt>
  <wgt id="696">4.01163e-12</wgt>
  <wgt id="697">4.01649e-12</wgt>
  <wgt id="698">3.83032e-12</wgt>
  <wgt id="699">3.79144e-12</wgt>
  <wgt id="700">3.69857e-12</wgt>
  <wgt id="701">4.17728e-12</wgt>
  <wgt id="702">4.06638e-12</wgt>
  <wgt id="703">4.769e-12</wgt>
  <wgt id="704">4.55372e-12</wgt>
  <wgt id="705">4.40996e-12</wgt>
  <wgt id="706">3.93793e-12</wgt>
  <wgt id="707">4.0068e-12</wgt>
  <wgt id="708">4.10795e-12</wgt>
  <wgt id="709">4.09388e-12</wgt>
  <wgt id="710">3.8032e-12</wgt>
  <wgt id="711">4.16273e-12</wgt>
  <wgt id="712">4.07927e-12</wgt>
  <wgt id="713">4.47034e-12</wgt>
  <wgt id="714">4.08187e-12</wgt>
  <wgt id="715">4.11885e-12</wgt>
  <wgt id="716">4.02684e-12</wgt>
  <wgt id="717">3.95364e-12</wgt>
  <wgt id="718">4.17398e-12</wgt>
  <wgt id="719">3.81157e-12</wgt>
  <wgt id="720">3.99351e-12</wgt>
  <wgt id="721">3.84936e-12</wgt>
  <wgt id="722">3.7103e-12</wgt>
  <wgt id="723">4.44303e-12</wgt>
  <wgt id="724">4.36717e-12</wgt>
  <wgt id="725">4.38662e-12</wgt>
  <wgt id="726">4.20012e-12</wgt>
  <wgt id="727">4.09344e-12</wgt>
  <wgt id="728">4.08998e-12</wgt>
  <wgt id="729">3.94028e-12</wgt>
  <wgt id="730">4.44906e-12</wgt>
  <wgt id="731">4.11507e-12</wgt>
  <wgt id="732">4.5863e-12</wgt>
  <wgt id="733">4.1162e-12</wgt>
  <wgt id="734">4.26719e-12</wgt>
  <wgt id="735">4.19295e-12</wgt>
  <wgt id="736">4.07859e-12</wgt>
  <wgt id="737">4.21974e-12</wgt>
  <wgt id="738">4.00788e-12</wgt>
  <wgt id="739">4.2496e-12</wgt>
  <wgt id="740">4.63401e-12</wgt>
  <wgt id="741">3.77852e-12</wgt>
  <wgt id="742">4.12295e-12</wgt>
  <wgt id="743">3.99303e-12</wgt>
  <wgt id="744">4.08797e-12</wgt>
  <wgt id="745">4.34821e-12</wgt>
  <wgt id="746">4.41923e-12</wgt>
  <wgt id="747">3.77786e-12</wgt>
  <wgt id="748">4.11578e-12</wgt>
  <wgt id="749">4.37191e-12</wgt>
  <wgt id="750">4.30541e-12</wgt>
  <wgt id="751">4.28059e-12</wgt>
  <wgt id="752">3.84562e-12</wgt>
  <wgt id="753">3.94417e-12</wgt>
  <wgt id="754">4.31069e-12</wgt>
  <wgt id="755">4.17831e-12</wgt>
  <wgt id="756">4.16857e-12</wgt>
  <wgt id="757">3.84642e-12</wgt>
  <wgt id="758">4.18495e-12</wgt>
  <wgt id="759">4.32651e-12</wgt>
  <wgt id="760">4.2032e-12</wgt>
  <wgt id="761">4.40657e-12</wgt>
  <wgt id="762">4.41681e-12</wgt>
  <wgt id="763">4.17061e-12</wgt>
  <wgt id="764">4.33178e-12</wgt>
  <wgt id="765">4.21314e-12</wgt>
  <wgt id="766">4.16736e-12</wgt>
  <wgt id="767">4.25898e-12</wgt>
  <wgt id="768">3.93973e-12</wgt>
  <wgt id="769">4.41227e-12</wgt>
  <wgt id="770">4.09764e-12</wgt>
  <wgt id="771">4.89333e-12</wgt>
  <wgt id="772">3.96254e-12</wgt>
  <wgt id="773">4.14704e-12</wgt>
  <wgt id="774">3.68508e-12</wgt>
  <wgt id="775">4.35954e-12</wgt>
  <wgt id="776">4.52414e-12</wgt>
  <wgt id="777">3.97586e-12</wgt>
  <wgt id="778">3.07955e-12</wgt>
  <wgt id="779">2.51641e-12</wgt>
  <wgt id="780">2.04106e-12</wgt>
  <wgt id="781">3.29279e-12</wgt>
  <wgt id="782">3.29477e-12</wgt>
  <wgt id="783">2.54203e-12</wgt>
  <wgt id="784">2.66849e-12</wgt>
  <wgt id="785">3.7979e-12</wgt>
  <wgt id="786">2.36435e-12</wgt>
  <wgt id="787">3.50953e-12</wgt>
  <wgt id="788">1.87769e-12</wgt>
  <wgt id="789">2.54612e-12</wgt>
  <wgt id="790">2.33041e-12</wgt>
  <wgt id="791">2.974e-12</wgt>
  <wgt id="792">4.06562e-12</wgt>
  <wgt id="793">3.02867e-12</wgt>
  <wgt id="794">2.32502e-12</wgt>
  <wgt id="795">3.61043e-12</wgt>
  <wgt id="796">4.01573e-12</wgt>
  <wgt id="797">3.60232e-12</wgt>
  <wgt id="798">2.79148e-12</wgt>
  <wgt id="799">3.49539e-12</wgt>
  <wgt id="800">2.55359e-12</wgt>
  <wgt id="801">2.87037e-12</wgt>
  <wgt id="802">2.33182e-12</wgt>
  <wgt id="803">4.16477e-12</wgt>
  <wgt id="804">3.5896e-12</wgt>
  <wgt id="805">3.62553e-12</wgt>
  <wgt id="806">3.40659e-12</wgt>
  <wgt id="807">2.94706e-12</wgt>
  <wgt id="808">2.97937e-12</wgt>
  <wgt id="809">2.85671e-12</wgt>
  <wgt id="810">3.4544e-12</wgt>
  <wgt id="811">3.32459e-12</wgt>
  <wgt id="812">2.33242e-12</wgt>
  <wgt id="813">2.38439e-12</wgt>
  <wgt id="814">2.55092e-12</wgt>
  <wgt id="815">2.51897e-12</wgt>
  <wgt id="816">2.28702e-12</wgt>
  <wgt id="817">3.20124e-12</wgt>
  <wgt id="818">3.13595e-12</wgt>
  <wgt id="819">2.52562e-12</wgt>
  <wgt id="820">3.06377e-12</wgt>
  <wgt id="821">3.51067e-12</wgt>
  <wgt id="822">2.56407e-12</wgt>
  <wgt id="823">3.55279e-12</wgt>
  <wgt id="824">4.13176e-12</wgt>
  <wgt id="825">2.24908e-12</wgt>
  <wgt id="826">3.28294e-12</wgt>
  <wgt id="827">1.88432e-12</wgt>
  <wgt id="828">3.92884e-12</wgt>
  <wgt id="829">3.17681e-12</wgt>
  <wgt id="830">2.13643e-12</wgt>
  <wgt id="831">3.32271e-12</wgt>
  <wgt id="832">5.00253e-12</wgt>
  <wgt id="833">2.83917e-12</wgt>
  <wgt id="834">4.73837e-12</wgt>
  <wgt id="835">2.51351e-12</wgt>
  <wgt id="836">2.9915e-12</wgt>
  <wgt id="837">3.46657e-12</wgt>
  <wgt id="838">2.87608e-12</wgt>
  <wgt id="839">3.30371e-12</wgt>
  <wgt id="840">2.86448e-12</wgt>
  <wgt id="841">3.79306e-12</wgt>
  <wgt id="842">2.83495e-12</wgt>
  <wgt id="843">3.06391e-12</wgt>
  <wgt id="844">3.21241e-12</wgt>
  <wgt id="845">4.41118e-12</wgt>
  <wgt id="846">3.03248e-12</wgt>
  <wgt id="847">3.11705e-12</wgt>
  <wgt id="848">2.61347e-12</wgt>
  <wgt id="849">3.16445e-12</wgt>
  <wgt id="850">4.01239e-12</wgt>
  <wgt id="851">3.38415e-12</wgt>
  <wgt id="852">2.53498e-12</wgt>
  <wgt id="853">3.40034e-12</wgt>
  <wgt id="854">3.76324e-12</wgt>
  <wgt id="855">3.53428e-12</wgt>
  <wgt id="856">2.17788e-12</wgt>
  <wgt id="857">3.0451e-12</wgt>
  <wgt id="858">2.9727e-12</wgt>
  <wgt id="859">2.89446e-12</wgt>
  <wgt id="860">3.35791e-12</wgt>
  <wgt id="861">2.72011e-12</wgt>
  <wgt id="862">3.11743e-12</wgt>
  <wgt id="863">3.26995e-12</wgt>
  <wgt id="864">3.24174e-12</wgt>
  <wgt id="865">4.37e-12</wgt>
  <wgt id="866">4.80241e-12</wgt>
  <wgt id="867">3.11895e-12</wgt>
  <wgt id="868">3.03475e-12</wgt>
  <wgt id="869">2.36441e-12</wgt>
  <wgt id="870">2.50062e-12</wgt>
  <wgt id="871">2.42895e-12</wgt>
  <wgt id="872">3.69574e-12</wgt>
  <wgt id="873">2.58224e-12</wgt>
  <wgt id="874">3.24419e-12</wgt>
  <wgt id="875">2.66476e-12</wgt>
  <wgt id="876">3.67317e-12</wgt>
  <wgt id="877">3.48322e-12</wgt>
  <wgt id="878">2.62827e-12</wgt>
  <wgt id="879">4.174e-12</wgt>
  <wgt id="880">4.22788e-12</wgt>
  <wgt id="881">4.38529e-12</wgt>
  <wgt id="882">3.97475e-12</wgt>
  <wgt id="883">4.08089e-12</wgt>
  <wgt id="884">4.24975e-12</wgt>
  <wgt id="885">4.27585e-12</wgt>
  <wgt id="886">4.10545e-12</wgt>
  <wgt id="887">4.34672e-12</wgt>
  <wgt id="888">4.00745e-12</wgt>
  <wgt id="889">4.10591e-12</wgt>
  <wgt id="890">4.3426e-12</wgt>
  <wgt id="891">4.12403e-12</wgt>
  <wgt id="892">4.42133e-12</wgt>
  <wgt id="893">4.36604e-12</wgt>
  <wgt id="894">4.37602e-12</wgt>
  <wgt id="895">4.14267e-12</wgt>
  <wgt id="896">4.8932e-12</wgt>
  <wgt id="897">4.43123e-12</wgt>
  <wgt id="898">4.04041e-12</wgt>
  <wgt id="899">4.01163e-12</wgt>
  <wgt id="900">4.01649e-12</wgt>
  <wgt id="901">3.83032e-12</wgt>
  <wgt id="902">3.79144e-12</wgt>
  <wgt id="903">3.69857e-12</wgt>
  <wgt id="904">4.17728e-12</wgt>
  <wgt id="905">4.06638e-12</wgt>
  <wgt id="906">4.769e-12</wgt>
  <wgt id="907">4.55372e-12</wgt>
  <wgt id="908">4.40996e-12</wgt>
  <wgt id="909">3.93793e-12</wgt>
  <wgt id="910">4.0068e-12</wgt>
  <wgt id="911">4.10795e-12</wgt>
  <wgt id="912">4.09388e-12</wgt>
  <wgt id="913">3.8032e-12</wgt>
  <wgt id="914">4.16273e-12</wgt>
  <wgt id="915">4.07927e-12</wgt>
  <wgt id="916">4.47034e-12</wgt>
  <wgt id="917">4.08187e-12</wgt>
  <wgt id="918">4.11885e-12</wgt>
  <wgt id="919">4.02684e-12</wgt>
  <wgt id="920">3.95364e-12</wgt>
  <wgt id="921">4.17398e-12</wgt>
  <wgt id="922">3.81157e-12</wgt>
  <wgt id="923">3.99351e-12</wgt>
  <wgt id="924">3.84936e-12</wgt>
  <wgt id="925">3.7103e-12</wgt>
  <wgt id="926">4.44303e-12</wgt>
  <wgt id="927">4.36717e-12</wgt>
  <wgt id="928">4.38662e-12</wgt>
  <wgt id="929">4.20012e-12</wgt>
  <wgt id="930">4.09344e-12</wgt>
  <wgt id="931">4.08998e-12</wgt>
  <wgt id="932">3.94028e-12</wgt>
  <wgt id="933">4.44906e-12</wgt>
  <wgt id="934">4.11507e-12</wgt>
  <wgt id="935">4.5863e-12</wgt>
  <wgt id="936">4.1162e-12</wgt>
  <wgt id="937">4.26719e-12</wgt>
  <wgt id="938">4.19295e-12</wgt>
  <wgt id="939">4.07859e-12</wgt>
  <wgt id="940">4.21974e-12</wgt>
  <wgt id="941">4.00788e-12</wgt>
  <wgt id="942">4.2496e-12</wgt>
  <wgt id="943">4.63401e-12</wgt>
  <wgt id="944">3.77852e-12</wgt>
  <wgt id="945">4.12295e-12</wgt>
  <wgt id="946">3.99303e-12</wgt>
  <wgt id="947">4.08797e-12</wgt>
  <wgt id="948">4.34821e-12</wgt>
  <wgt id="949">4.41923e-12</wgt>
  <wgt id="950">3.77786e-12</wgt>
  <wgt id="951">4.11578e-12</wgt>
  <wgt id="952">4.37191e-12</wgt>
  <wgt id="953">4.30541e-12</wgt>
  <wgt id="954">4.28059e-12</wgt>
  <wgt id="955">3.84562e-12</wgt>
  <wgt id="956">3.94417e-12</wgt>
  <wgt id="957">4.31069e-12</wgt>
  <wgt id="958">4.17831e-12</wgt>
  <wgt id="959">4.16857e-12</wgt>
  <wgt id="960">3.84642e-12</wgt>
  <wgt id="961">4.18495e-12</wgt>
  <wgt id="962">4.32651e-12</wgt>
  <wgt id="963">4.2032e-12</wgt>
  <wgt id="964">4.40657e-12</wgt>
  <wgt id="965">4.41681e-12</wgt>
  <wgt id="966">4.17061e-12</wgt>
  <wgt id="967">4.33178e-12</wgt>
  <wgt id="968">4.21314e-12</wgt>
  <wgt id="969">4.16736e-12</wgt>
  <wgt id="970">4.25898e-12</wgt>
  <wgt id="971">3.93973e-12</wgt>
  <wgt id="972">4.41227e-12</wgt>
  <wgt id="973">4.09764e-12</wgt>
  <wgt id="974">4.89333e-12</wgt>
  <wgt id="975">3.96254e-12</wgt>
  <wgt id="976">4.14704e-12</wgt>
  <wgt id="977">3.68508e-12</wgt>
  <wgt id="978">4.35954e-12</wgt>
  <wgt id="979">4.52414e-12</wgt>
  <wgt id="980">4.17141e-12</wgt>
  <wgt id="981">4.19441e-12</wgt>
  <wgt id="982">4.05067e-12</wgt>
</rwgt>
</event>
<event>
 5   1  0.3028200E-11  0.2529152E+04  0.7818608E-02  0.7635125E-01
       21   -1    0    0  502  501  0.00000000000E+00  0.00000000000E+00  0.18321544037E+04  0.18321544037E+04  0.00000000000E+00 0. -1.
       21   -1    0    0  501  502 -0.00000000000E+00 -0.00000000000E+00 -0.87282625732E+03  0.87282625732E+03  0.00000000000E+00 0.  1.
       39    2    1    2    0    0  0.00000000000E+00  0.00000000000E+00  0.95932814640E+03  0.27049806610E+04  0.25291520089E+04 0.  0.
       25    1    3    3    0    0 -0.59636023260E+03  0.38213778730E+03 -0.63276745708E+03  0.95796371030E+03  0.12500000000E+03 0.  0.
       25    1    3    3    0    0  0.59636023260E+03 -0.38213778730E+03  0.15920956035E+04  0.17470169507E+04  0.12500000000E+03 0.  0.
<mgrwt>
<rscale>  0 0.25291520E+04</rscale>
<asrwt>0</asrwt>
<pdfrwt beam="1">  1       21 0.28186991E+00 0.25291520E+04</pdfrwt>
<pdfrwt beam="2">  1       21 0.13428096E+00 0.25291520E+04</pdfrwt>
<totfact> 0.55958997E+00</totfact>
</mgrwt>
<rwgt>
  <wgt id="1">3.0282e-12</wgt>
  <wgt id="2">2.61633e-12</wgt>
  <wgt id="3">3.54346e-12</wgt>
  <wgt id="4">3.0282e-12</wgt>
  <wgt id="5">2.61633e-12</wgt>
  <wgt id="6">3.54346e-12</wgt>
  <wgt id="7">3.0282e-12</wgt>
  <wgt id="8">2.61633e-12</wgt>
  <wgt id="9">3.54346e-12</wgt>
  <wgt id="10">3.18117e-12</wgt>
  <wgt id="11">3.17897e-12</wgt>
  <wgt id="12">3.17457e-12</wgt>
  <wgt id="13">3.17211e-12</wgt>
  <wgt id="14">3.1926e-12</wgt>
  <wgt id="15">3.18652e-12</wgt>
  <wgt id="16">3.17517e-12</wgt>
  <wgt id="17">3.19267e-12</wgt>
  <wgt id="18">3.17553e-12</wgt>
  <wgt id="19">3.19129e-12</wgt>
  <wgt id="20">3.17571e-12</wgt>
  <wgt id="21">3.1574e-12</wgt>
  <wgt id="22">3.16231e-12</wgt>
  <wgt id="23">3.14029e-12</wgt>
  <wgt id="24">3.16119e-12</wgt>
  <wgt id="25">3.17035e-12</wgt>
  <wgt id="26">3.19239e-12</wgt>
  <wgt id="27">3.17769e-12</wgt>
  <wgt id="28">3.16321e-12</wgt>
  <wgt id="29">3.18315e-12</wgt>
  <wgt id="30">3.16314e-12</wgt>
  <wgt id="31">3.19428e-12</wgt>
  <wgt id="32">3.16736e-12</wgt>
  <wgt id="33">3.18781e-12</wgt>
  <wgt id="34">3.16439e-12</wgt>
  <wgt id="35">3.17025e-12</wgt>
  <wgt id="36">3.19563e-12</wgt>
  <wgt id="37">3.17155e-12</wgt>
  <wgt id="38">3.16912e-12</wgt>
  <wgt id="39">3.22768e-12</wgt>
  <wgt id="40">3.18495e-12</wgt>
  <wgt id="41">3.17909e-12</wgt>
  <wgt id="42">3.18715e-12</wgt>
  <wgt id="43">3.18138e-12</wgt>
  <wgt id="44">3.18442e-12</wgt>
  <wgt id="45">3.18774e-12</wgt>
  <wgt id="46">3.17683e-12</wgt>
  <wgt id="47">3.19066e-12</wgt>
  <wgt id="48">3.18948e-12</wgt>
  <wgt id="49">3.17166e-12</wgt>
  <wgt id="50">3.17402e-12</wgt>
  <wgt id="51">3.17635e-12</wgt>
  <wgt id="52">3.18722e-12</wgt>
  <wgt id="53">3.1824e-12</wgt>
  <wgt id="54">3.18572e-12</wgt>
  <wgt id="55">3.1813e-12</wgt>
  <wgt id="56">3.18282e-12</wgt>
  <wgt id="57">3.17745e-12</wgt>
  <wgt id="58">3.17075e-12</wgt>
  <wgt id="59">3.17775e-12</wgt>
  <wgt id="60">3.17101e-12</wgt>
  <wgt id="61">3.16184e-12</wgt>
  <wgt id="62">3.17214e-12</wgt>
  <wgt id="63">3.17835e-12</wgt>
  <wgt id="64">3.18057e-12</wgt>
  <wgt id="65">3.17865e-12</wgt>
  <wgt id="66">3.17915e-12</wgt>
  <wgt id="67">3.16906e-12</wgt>
  <wgt id="68">3.17999e-12</wgt>
  <wgt id="69">3.17874e-12</wgt>
  <wgt id="70">3.17821e-12</wgt>
  <wgt id="71">3.17722e-12</wgt>
  <wgt id="72">3.16618e-12</wgt>
  <wgt id="73">3.19177e-12</wgt>
  <wgt id="74">3.18678e-12</wgt>
  <wgt id="75">3.1817e-12</wgt>
  <wgt id="76">3.19657e-12</wgt>
  <wgt id="77">3.1774e-12</wgt>
  <wgt id="78">3.17835e-12</wgt>
  <wgt id="79">3.1903e-12</wgt>
  <wgt id="80">3.16049e-12</wgt>
  <wgt id="81">3.18107e-12</wgt>
  <wgt id="82">3.18263e-12</wgt>
  <wgt id="83">3.16515e-12</wgt>
  <wgt id="84">3.17515e-12</wgt>
  <wgt id="85">3.17166e-12</wgt>
  <wgt id="86">3.19144e-12</wgt>
  <wgt id="87">3.15825e-12</wgt>
  <wgt id="88">3.18641e-12</wgt>
  <wgt id="89">3.18414e-12</wgt>
  <wgt id="90">3.19146e-12</wgt>
  <wgt id="91">3.18468e-12</wgt>
  <wgt id="92">3.18843e-12</wgt>
  <wgt id="93">3.18555e-12</wgt>
  <wgt id="94">3.17611e-12</wgt>
  <wgt id="95">3.1915e-12</wgt>
  <wgt id="96">3.18631e-12</wgt>
  <wgt id="97">3.17152e-12</wgt>
  <wgt id="98">3.18188e-12</wgt>
  <wgt id="99">3.17336e-12</wgt>
  <wgt id="100">3.18906e-12</wgt>
  <wgt id="101">3.18141e-12</wgt>
  <wgt id="102">3.17865e-12</wgt>
  <wgt id="103">3.18955e-12</wgt>
  <wgt id="104">3.17687e-12</wgt>
  <wgt id="105">3.18671e-12</wgt>
  <wgt id="106">3.17433e-12</wgt>
  <wgt id="107">3.19626e-12</wgt>
  <wgt id="108">3.17555e-12</wgt>
  <wgt id="109">3.18494e-12</wgt>
  <wgt id="110">3.1798e-12</wgt>
  <wgt id="111">3.20029e-12</wgt>
  <wgt id="112">3.20429e-12</wgt>
  <wgt id="113">4.51023e-12</wgt>
  <wgt id="114">4.41178e-12</wgt>
  <wgt id="115">4.34004e-12</wgt>
  <wgt id="116">6.2175e-12</wgt>
  <wgt id="117">3.57037e-12</wgt>
  <wgt id="118">3.58446e-12</wgt>
  <wgt id="119">3.56236e-12</wgt>
  <wgt id="120">3.57052e-12</wgt>
  <wgt id="121">3.57025e-12</wgt>
  <wgt id="122">3.56455e-12</wgt>
  <wgt id="123">3.57841e-12</wgt>
  <wgt id="124">3.56558e-12</wgt>
  <wgt id="125">3.57342e-12</wgt>
  <wgt id="126">3.57696e-12</wgt>
  <wgt id="127">3.56602e-12</wgt>
  <wgt id="128">3.58137e-12</wgt>
  <wgt id="129">3.5594e-12</wgt>
  <wgt id="130">3.59021e-12</wgt>
  <wgt id="131">3.55003e-12</wgt>
  <wgt id="132">3.47142e-12</wgt>
  <wgt id="133">3.68841e-12</wgt>
  <wgt id="134">3.53003e-12</wgt>
  <wgt id="135">3.60204e-12</wgt>
  <wgt id="136">3.62317e-12</wgt>
  <wgt id="137">3.50681e-12</wgt>
  <wgt id="138">3.72812e-12</wgt>
  <wgt id="139">3.41995e-12</wgt>
  <wgt id="140">3.55042e-12</wgt>
  <wgt id="141">3.58579e-12</wgt>
  <wgt id="142">3.57013e-12</wgt>
  <wgt id="143">3.57912e-12</wgt>
  <wgt id="144">3.43471e-12</wgt>
  <wgt id="145">3.70055e-12</wgt>
  <wgt id="146">3.61398e-12</wgt>
  <wgt id="147">3.53517e-12</wgt>
  <wgt id="148">3.58323e-12</wgt>
  <wgt id="149">3.56948e-12</wgt>
  <wgt id="150">3.60191e-12</wgt>
  <wgt id="151">3.55563e-12</wgt>
  <wgt id="152">3.57199e-12</wgt>
  <wgt id="153">3.56979e-12</wgt>
  <wgt id="154">3.58715e-12</wgt>
  <wgt id="155">3.54662e-12</wgt>
  <wgt id="156">3.67638e-12</wgt>
  <wgt id="157">3.47036e-12</wgt>
  <wgt id="158">4.28549e-12</wgt>
  <wgt id="159">4.30355e-12</wgt>
  <wgt id="160">4.27079e-12</wgt>
  <wgt id="161">4.27365e-12</wgt>
  <wgt id="162">4.2986e-12</wgt>
  <wgt id="163">4.28029e-12</wgt>
  <wgt id="164">4.29319e-12</wgt>
  <wgt id="165">4.28708e-12</wgt>
  <wgt id="166">4.28423e-12</wgt>
  <wgt id="167">4.28247e-12</wgt>
  <wgt id="168">4.28964e-12</wgt>
  <wgt id="169">4.26782e-12</wgt>
  <wgt id="170">4.29641e-12</wgt>
  <wgt id="171">4.28096e-12</wgt>
  <wgt id="172">4.2918e-12</wgt>
  <wgt id="173">4.28077e-12</wgt>
  <wgt id="174">4.28699e-12</wgt>
  <wgt id="175">4.15711e-12</wgt>
  <wgt id="176">4.45381e-12</wgt>
  <wgt id="177">4.30878e-12</wgt>
  <wgt id="178">4.26415e-12</wgt>
  <wgt id="179">4.49507e-12</wgt>
  <wgt id="180">3.95997e-12</wgt>
  <wgt id="181">4.14457e-12</wgt>
  <wgt id="182">4.37912e-12</wgt>
  <wgt id="183">4.19982e-12</wgt>
  <wgt id="184">4.32802e-12</wgt>
  <wgt id="185">4.24265e-12</wgt>
  <wgt id="186">4.33815e-12</wgt>
  <wgt id="187">4.24099e-12</wgt>
  <wgt id="188">4.36489e-12</wgt>
  <wgt id="189">4.25306e-12</wgt>
  <wgt id="190">4.29861e-12</wgt>
  <wgt id="191">4.29958e-12</wgt>
  <wgt id="192">4.27713e-12</wgt>
  <wgt id="193">4.35621e-12</wgt>
  <wgt id="194">4.25026e-12</wgt>
  <wgt id="195">4.13895e-12</wgt>
  <wgt id="196">4.5282e-12</wgt>
  <wgt id="197">4.30898e-12</wgt>
  <wgt id="198">4.27976e-12</wgt>
  <wgt id="199">4.28549e-12</wgt>
  <wgt id="200">4.32619e-12</wgt>
  <wgt id="201">4.31189e-12</wgt>
  <wgt id="202">4.29813e-12</wgt>
  <wgt id="203">4.27775e-12</wgt>
  <wgt id="204">4.26774e-12</wgt>
  <wgt id="205">4.25958e-12</wgt>
  <wgt id="206">4.15629e-12</wgt>
  <wgt id="207">4.18124e-12</wgt>
  <wgt id="208">4.13166e-12</wgt>
  <wgt id="209">4.17072e-12</wgt>
  <wgt id="210">4.14584e-12</wgt>
  <wgt id="211">4.15457e-12</wgt>
  <wgt id="212">4.15772e-12</wgt>
  <wgt id="213">4.15596e-12</wgt>
  <wgt id="214">4.15689e-12</wgt>
  <wgt id="215">4.15987e-12</wgt>
  <wgt id="216">4.15382e-12</wgt>
  <wgt id="217">4.16782e-12</wgt>
  <wgt id="218">4.14745e-12</wgt>
  <wgt id="219">4.15288e-12</wgt>
  <wgt id="220">4.15845e-12</wgt>
  <wgt id="221">4.15614e-12</wgt>
  <wgt id="222">4.15614e-12</wgt>
  <wgt id="223">3.9187e-12</wgt>
  <wgt id="224">4.37399e-12</wgt>
  <wgt id="225">4.10254e-12</wgt>
  <wgt id="226">4.22444e-12</wgt>
  <wgt id="227">4.11487e-12</wgt>
  <wgt id="228">4.17452e-12</wgt>
  <wgt id="229">4.09529e-12</wgt>
  <wgt id="230">4.18668e-12</wgt>
  <wgt id="231">4.29138e-12</wgt>
  <wgt id="232">4.04585e-12</wgt>
  <wgt id="233">4.13151e-12</wgt>
  <wgt id="234">4.19745e-12</wgt>
  <wgt id="235">4.01686e-12</wgt>
  <wgt id="236">4.27347e-12</wgt>
  <wgt id="237">4.07156e-12</wgt>
  <wgt id="238">4.18468e-12</wgt>
  <wgt id="239">4.12145e-12</wgt>
  <wgt id="240">4.21893e-12</wgt>
  <wgt id="241">4.10748e-12</wgt>
  <wgt id="242">4.21498e-12</wgt>
  <wgt id="243">4.2278e-12</wgt>
  <wgt id="244">4.16407e-12</wgt>
  <wgt id="245">4.15438e-12</wgt>
  <wgt id="246">4.18267e-12</wgt>
  <wgt id="247">4.15629e-12</wgt>
  <wgt id="248">4.19801e-12</wgt>
  <wgt id="249">4.18299e-12</wgt>
  <wgt id="250">4.16817e-12</wgt>
  <wgt id="251">4.14706e-12</wgt>
  <wgt id="252">4.13673e-12</wgt>
  <wgt id="253">4.12951e-12</wgt>
  <wgt id="254">4.04178e-12</wgt>
  <wgt id="255">4.04565e-12</wgt>
  <wgt id="256">4.03764e-12</wgt>
  <wgt id="257">4.04479e-12</wgt>
  <wgt id="258">4.03964e-12</wgt>
  <wgt id="259">4.06904e-12</wgt>
  <wgt id="260">4.01548e-12</wgt>
  <wgt id="261">4.04939e-12</wgt>
  <wgt id="262">4.03278e-12</wgt>
  <wgt id="263">4.03911e-12</wgt>
  <wgt id="264">4.04498e-12</wgt>
  <wgt id="265">4.03645e-12</wgt>
  <wgt id="266">4.05257e-12</wgt>
  <wgt id="267">4.04329e-12</wgt>
  <wgt id="268">4.03977e-12</wgt>
  <wgt id="269">4.05584e-12</wgt>
  <wgt id="270">4.03226e-12</wgt>
  <wgt id="271">4.0329e-12</wgt>
  <wgt id="272">4.05168e-12</wgt>
  <wgt id="273">4.02948e-12</wgt>
  <wgt id="274">4.05122e-12</wgt>
  <wgt id="275">4.02005e-12</wgt>
  <wgt id="276">4.06432e-12</wgt>
  <wgt id="277">4.01753e-12</wgt>
  <wgt id="278">4.06398e-12</wgt>
  <wgt id="279">3.9608e-12</wgt>
  <wgt id="280">4.14378e-12</wgt>
  <wgt id="281">4.02214e-12</wgt>
  <wgt id="282">4.04517e-12</wgt>
  <wgt id="283">3.91203e-12</wgt>
  <wgt id="284">4.20309e-12</wgt>
  <wgt id="285">3.82836e-12</wgt>
  <wgt id="286">4.22102e-12</wgt>
  <wgt id="287">4.05581e-12</wgt>
  <wgt id="288">4.0239e-12</wgt>
  <wgt id="289">4.07373e-12</wgt>
  <wgt id="290">3.96989e-12</wgt>
  <wgt id="291">4.02731e-12</wgt>
  <wgt id="292">4.04361e-12</wgt>
  <wgt id="293">4.00704e-12</wgt>
  <wgt id="294">4.07645e-12</wgt>
  <wgt id="295">3.95761e-12</wgt>
  <wgt id="296">4.14495e-12</wgt>
  <wgt id="297">4.03519e-12</wgt>
  <wgt id="298">4.06178e-12</wgt>
  <wgt id="299">4.02769e-12</wgt>
  <wgt id="300">4.07945e-12</wgt>
  <wgt id="301">3.9636e-12</wgt>
  <wgt id="302">4.2243e-12</wgt>
  <wgt id="303">4.00029e-12</wgt>
  <wgt id="304">4.06526e-12</wgt>
  <wgt id="305">4.02629e-12</wgt>
  <wgt id="306">4.03029e-12</wgt>
  <wgt id="307">4.02202e-12</wgt>
  <wgt id="308">4.02959e-12</wgt>
  <wgt id="309">4.02412e-12</wgt>
  <wgt id="310">4.0543e-12</wgt>
  <wgt id="311">4.00037e-12</wgt>
  <wgt id="312">4.03299e-12</wgt>
  <wgt id="313">4.01914e-12</wgt>
  <wgt id="314">4.02356e-12</wgt>
  <wgt id="315">4.02892e-12</wgt>
  <wgt id="316">4.02102e-12</wgt>
  <wgt id="317">4.03773e-12</wgt>
  <wgt id="318">4.02954e-12</wgt>
  <wgt id="319">4.0206e-12</wgt>
  <wgt id="320">4.04124e-12</wgt>
  <wgt id="321">4.01796e-12</wgt>
  <wgt id="322">4.0159e-12</wgt>
  <wgt id="323">4.03835e-12</wgt>
  <wgt id="324">4.01638e-12</wgt>
  <wgt id="325">4.03493e-12</wgt>
  <wgt id="326">4.00867e-12</wgt>
  <wgt id="327">4.04884e-12</wgt>
  <wgt id="328">4.00498e-12</wgt>
  <wgt id="329">4.03809e-12</wgt>
  <wgt id="330">4.14893e-12</wgt>
  <wgt id="331">3.90965e-12</wgt>
  <wgt id="332">4.00985e-12</wgt>
  <wgt id="333">4.02819e-12</wgt>
  <wgt id="334">3.92607e-12</wgt>
  <wgt id="335">4.15155e-12</wgt>
  <wgt id="336">3.87325e-12</wgt>
  <wgt id="337">4.2149e-12</wgt>
  <wgt id="338">4.0754e-12</wgt>
  <wgt id="339">3.98097e-12</wgt>
  <wgt id="340">4.05569e-12</wgt>
  <wgt id="341">3.95268e-12</wgt>
  <wgt id="342">4.01573e-12</wgt>
  <wgt id="343">4.02044e-12</wgt>
  <wgt id="344">3.99531e-12</wgt>
  <wgt id="345">4.06228e-12</wgt>
  <wgt id="346">3.93948e-12</wgt>
  <wgt id="347">4.12617e-12</wgt>
  <wgt id="348">4.02059e-12</wgt>
  <wgt id="349">4.04397e-12</wgt>
  <wgt id="350">4.00873e-12</wgt>
  <wgt id="351">4.07092e-12</wgt>
  <wgt id="352">3.94344e-12</wgt>
  <wgt id="353">4.21002e-12</wgt>
  <wgt id="354">3.96502e-12</wgt>
  <wgt id="355">4.06285e-12</wgt>
  <wgt id="356">4.04178e-12</wgt>
  <wgt id="357">4.03513e-12</wgt>
  <wgt id="358">4.02629e-12</wgt>
  <wgt id="359">4.04768e-12</wgt>
  <wgt id="360">4.09496e-12</wgt>
  <wgt id="361">4.05998e-12</wgt>
  <wgt id="362">4.13979e-12</wgt>
  <wgt id="363">4.1289e-12</wgt>
  <wgt id="364">4.11056e-12</wgt>
  <wgt id="365">4.09505e-12</wgt>
  <wgt id="366">4.07856e-12</wgt>
  <wgt id="367">4.04623e-12</wgt>
  <wgt id="368">4.02704e-12</wgt>
  <wgt id="369">4.00638e-12</wgt>
  <wgt id="370">4.05998e-12</wgt>
  <wgt id="371">4.07781e-12</wgt>
  <wgt id="372">4.06796e-12</wgt>
  <wgt id="373">4.05349e-12</wgt>
  <wgt id="374">4.05584e-12</wgt>
  <wgt id="375">4.50427e-12</wgt>
  <wgt id="376">4.50481e-12</wgt>
  <wgt id="377">4.50351e-12</wgt>
  <wgt id="378">4.52108e-12</wgt>
  <wgt id="379">4.48742e-12</wgt>
  <wgt id="380">4.5165e-12</wgt>
  <wgt id="381">4.49929e-12</wgt>
  <wgt id="382">4.52821e-12</wgt>
  <wgt id="383">4.48045e-12</wgt>
  <wgt id="384">4.50727e-12</wgt>
  <wgt id="385">4.50131e-12</wgt>
  <wgt id="386">4.52231e-12</wgt>
  <wgt id="387">4.4964e-12</wgt>
  <wgt id="388">4.49986e-12</wgt>
  <wgt id="389">4.50957e-12</wgt>
  <wgt id="390">4.51624e-12</wgt>
  <wgt id="391">4.49143e-12</wgt>
  <wgt id="392">4.46332e-12</wgt>
  <wgt id="393">4.52746e-12</wgt>
  <wgt id="394">4.50915e-12</wgt>
  <wgt id="395">4.49727e-12</wgt>
  <wgt id="396">4.51087e-12</wgt>
  <wgt id="397">4.49942e-12</wgt>
  <wgt id="398">4.48785e-12</wgt>
  <wgt id="399">4.51993e-12</wgt>
  <wgt id="400">4.49605e-12</wgt>
  <wgt id="401">4.52247e-12</wgt>
  <wgt id="402">4.46257e-12</wgt>
  <wgt id="403">4.52689e-12</wgt>
  <wgt id="404">4.62769e-12</wgt>
  <wgt id="405">4.20955e-12</wgt>
  <wgt id="406">4.41594e-12</wgt>
  <wgt id="407">4.6988e-12</wgt>
  <wgt id="408">4.55021e-12</wgt>
  <wgt id="409">4.41839e-12</wgt>
  <wgt id="410">4.36065e-12</wgt>
  <wgt id="411">4.57255e-12</wgt>
  <wgt id="412">4.49441e-12</wgt>
  <wgt id="413">4.51922e-12</wgt>
  <wgt id="414">4.44686e-12</wgt>
  <wgt id="415">4.54884e-12</wgt>
  <wgt id="416">4.64992e-12</wgt>
  <wgt id="417">4.30393e-12</wgt>
  <wgt id="418">4.51213e-12</wgt>
  <wgt id="419">4.46206e-12</wgt>
  <wgt id="420">4.60431e-12</wgt>
  <wgt id="421">4.44034e-12</wgt>
  <wgt id="422">4.48342e-12</wgt>
  <wgt id="423">4.51446e-12</wgt>
  <wgt id="424">4.62797e-12</wgt>
  <wgt id="425">4.42239e-12</wgt>
  <wgt id="426">4.50427e-12</wgt>
  <wgt id="427">4.43447e-12</wgt>
  <wgt id="428">4.67869e-12</wgt>
  <wgt id="429">4.55961e-12</wgt>
  <wgt id="430">4.70488e-12</wgt>
  <wgt id="431">4.67548e-12</wgt>
  <wgt id="432">4.64844e-12</wgt>
  <wgt id="433">4.62195e-12</wgt>
  <wgt id="434">4.58888e-12</wgt>
  <wgt id="435">4.52287e-12</wgt>
  <wgt id="436">4.48933e-12</wgt>
  <wgt id="437">4.45691e-12</wgt>
  <wgt id="438">4.55961e-12</wgt>
  <wgt id="439">4.5742e-12</wgt>
  <wgt id="440">4.56528e-12</wgt>
  <wgt id="441">4.55541e-12</wgt>
  <wgt id="442">4.55215e-12</wgt>
  <wgt id="443">4.25175e-12</wgt>
  <wgt id="444">4.28837e-12</wgt>
  <wgt id="445">4.26184e-12</wgt>
  <wgt id="446">4.22126e-12</wgt>
  <wgt id="447">4.24433e-12</wgt>
  <wgt id="448">4.13649e-12</wgt>
  <wgt id="449">4.33221e-12</wgt>
  <wgt id="450">4.27165e-12</wgt>
  <wgt id="451">4.24121e-12</wgt>
  <wgt id="452">4.3546e-12</wgt>
  <wgt id="453">4.30174e-12</wgt>
  <wgt id="454">4.04845e-12</wgt>
  <wgt id="455">4.27193e-12</wgt>
  <wgt id="456">4.28167e-12</wgt>
  <wgt id="457">4.26987e-12</wgt>
  <wgt id="458">4.31636e-12</wgt>
  <wgt id="459">4.2877e-12</wgt>
  <wgt id="460">4.30628e-12</wgt>
  <wgt id="461">4.15299e-12</wgt>
  <wgt id="462">4.2145e-12</wgt>
  <wgt id="463">4.19015e-12</wgt>
  <wgt id="464">4.22666e-12</wgt>
  <wgt id="465">4.30255e-12</wgt>
  <wgt id="466">4.17257e-12</wgt>
  <wgt id="467">4.20966e-12</wgt>
  <wgt id="468">4.24242e-12</wgt>
  <wgt id="469">4.23852e-12</wgt>
  <wgt id="470">4.19662e-12</wgt>
  <wgt id="471">4.20242e-12</wgt>
  <wgt id="472">4.27823e-12</wgt>
  <wgt id="473">4.09697e-12</wgt>
  <wgt id="474">3.0282e-12</wgt>
  <wgt id="475">3.09703e-12</wgt>
  <wgt id="476">2.98784e-12</wgt>
  <wgt id="477">3.01484e-12</wgt>
  <wgt id="478">3.05159e-12</wgt>
  <wgt id="479">2.91886e-12</wgt>
  <wgt id="480">3.1683e-12</wgt>
  <wgt id="481">3.02248e-12</wgt>
  <wgt id="482">2.98259e-12</wgt>
  <wgt id="483">2.97792e-12</wgt>
  <wgt id="484">3.16996e-12</wgt>
  <wgt id="485">2.88969e-12</wgt>
  <wgt id="486">3.16501e-12</wgt>
  <wgt id="487">3.02136e-12</wgt>
  <wgt id="488">3.07442e-12</wgt>
  <wgt id="489">2.81858e-12</wgt>
  <wgt id="490">2.91889e-12</wgt>
  <wgt id="491">2.99326e-12</wgt>
  <wgt id="492">2.96122e-12</wgt>
  <wgt id="493">2.85629e-12</wgt>
  <wgt id="494">2.88056e-12</wgt>
  <wgt id="495">3.06032e-12</wgt>
  <wgt id="496">2.90867e-12</wgt>
  <wgt id="497">2.86266e-12</wgt>
  <wgt id="498">3.10836e-12</wgt>
  <wgt id="499">3.00602e-12</wgt>
  <wgt id="500">2.96681e-12</wgt>
  <wgt id="501">3.16731e-12</wgt>
  <wgt id="502">3.05016e-12</wgt>
  <wgt id="503">3.00343e-12</wgt>
  <wgt id="504">3.10825e-12</wgt>
  <wgt id="505">3.09692e-12</wgt>
  <wgt id="506">2.94161e-12</wgt>
  <wgt id="507">3.01409e-12</wgt>
  <wgt id="508">3.14055e-12</wgt>
  <wgt id="509">2.89499e-12</wgt>
  <wgt id="510">3.10232e-12</wgt>
  <wgt id="511">2.9184e-12</wgt>
  <wgt id="512">3.16488e-12</wgt>
  <wgt id="513">3.1736e-12</wgt>
  <wgt id="514">3.10378e-12</wgt>
  <wgt id="515">3.04172e-12</wgt>
  <wgt id="516">3.2429e-12</wgt>
  <wgt id="517">3.09726e-12</wgt>
  <wgt id="518">3.11394e-12</wgt>
  <wgt id="519">2.91162e-12</wgt>
  <wgt id="520">3.08691e-12</wgt>
  <wgt id="521">3.04781e-12</wgt>
  <wgt id="522">3.15926e-12</wgt>
  <wgt id="523">2.9734e-12</wgt>
  <wgt id="524">3.05221e-12</wgt>
  <wgt id="525">3.06873e-12</wgt>
  <wgt id="526">3.11987e-12</wgt>
  <wgt id="527">3.02616e-12</wgt>
  <wgt id="528">3.04657e-12</wgt>
  <wgt id="529">2.93924e-12</wgt>
  <wgt id="530">3.13349e-12</wgt>
  <wgt id="531">2.9479e-12</wgt>
  <wgt id="532">3.25725e-12</wgt>
  <wgt id="533">2.9284e-12</wgt>
  <wgt id="534">2.98136e-12</wgt>
  <wgt id="535">3.04044e-12</wgt>
  <wgt id="536">3.07049e-12</wgt>
  <wgt id="537">2.95846e-12</wgt>
  <wgt id="538">3.02781e-12</wgt>
  <wgt id="539">2.96376e-12</wgt>
  <wgt id="540">3.09876e-12</wgt>
  <wgt id="541">2.98267e-12</wgt>
  <wgt id="542">2.9862e-12</wgt>
  <wgt id="543">2.97207e-12</wgt>
  <wgt id="544">3.11665e-12</wgt>
  <wgt id="545">2.92741e-12</wgt>
  <wgt id="546">2.88468e-12</wgt>
  <wgt id="547">2.93399e-12</wgt>
  <wgt id="548">2.90727e-12</wgt>
  <wgt id="549">2.96682e-12</wgt>
  <wgt id="550">2.97293e-12</wgt>
  <wgt id="551">3.05579e-12</wgt>
  <wgt id="552">2.87154e-12</wgt>
  <wgt id="553">2.93394e-12</wgt>
  <wgt id="554">3.2228e-12</wgt>
  <wgt id="555">3.1043e-12</wgt>
  <wgt id="556">2.91889e-12</wgt>
  <wgt id="557">3.10278e-12</wgt>
  <wgt id="558">2.96498e-12</wgt>
  <wgt id="559">3.00916e-12</wgt>
  <wgt id="560">3.3439e-12</wgt>
  <wgt id="561">3.03548e-12</wgt>
  <wgt id="562">3.11967e-12</wgt>
  <wgt id="563">3.16997e-12</wgt>
  <wgt id="564">3.12951e-12</wgt>
  <wgt id="565">3.00498e-12</wgt>
  <wgt id="566">3.02061e-12</wgt>
  <wgt id="567">3.00701e-12</wgt>
  <wgt id="568">2.96727e-12</wgt>
  <wgt id="569">3.05971e-12</wgt>
  <wgt id="570">2.91407e-12</wgt>
  <wgt id="571">3.36454e-12</wgt>
  <wgt id="572">2.94455e-12</wgt>
  <wgt id="573">2.92158e-12</wgt>
  <wgt id="574">2.93508e-12</wgt>
  <wgt id="575">3.36098e-12</wgt>
  <wgt id="576">3.51253e-12</wgt>
  <wgt id="577">3.47593e-12</wgt>
  <wgt id="578">3.4484e-12</wgt>
  <wgt id="579">3.47329e-12</wgt>
  <wgt id="580">3.52318e-12</wgt>
  <wgt id="581">3.66306e-12</wgt>
  <wgt id="582">3.47671e-12</wgt>
  <wgt id="583">3.40796e-12</wgt>
  <wgt id="584">3.34217e-12</wgt>
  <wgt id="585">3.22856e-12</wgt>
  <wgt id="586">3.21451e-12</wgt>
  <wgt id="587">3.41891e-12</wgt>
  <wgt id="588">3.49694e-12</wgt>
  <wgt id="589">3.56312e-12</wgt>
  <wgt id="590">3.36565e-12</wgt>
  <wgt id="591">3.46652e-12</wgt>
  <wgt id="592">3.14835e-12</wgt>
  <wgt id="593">3.30163e-12</wgt>
  <wgt id="594">3.35744e-12</wgt>
  <wgt id="595">3.43775e-12</wgt>
  <wgt id="596">3.70178e-12</wgt>
  <wgt id="597">3.34832e-12</wgt>
  <wgt id="598">3.29231e-12</wgt>
  <wgt id="599">3.54442e-12</wgt>
  <wgt id="600">3.44155e-12</wgt>
  <wgt id="601">3.24026e-12</wgt>
  <wgt id="602">3.26758e-12</wgt>
  <wgt id="603">3.21246e-12</wgt>
  <wgt id="604">3.42732e-12</wgt>
  <wgt id="605">3.44661e-12</wgt>
  <wgt id="606">3.37275e-12</wgt>
  <wgt id="607">3.41837e-12</wgt>
  <wgt id="608">3.46002e-12</wgt>
  <wgt id="609">3.25773e-12</wgt>
  <wgt id="610">3.2317e-12</wgt>
  <wgt id="611">3.29055e-12</wgt>
  <wgt id="612">3.54385e-12</wgt>
  <wgt id="613">3.2593e-12</wgt>
  <wgt id="614">3.36382e-12</wgt>
  <wgt id="615">3.35016e-12</wgt>
  <wgt id="616">3.37194e-12</wgt>
  <wgt id="617">3.5018e-12</wgt>
  <wgt id="618">3.61235e-12</wgt>
  <wgt id="619">3.29326e-12</wgt>
  <wgt id="620">3.50078e-12</wgt>
  <wgt id="621">3.3545e-12</wgt>
  <wgt id="622">3.41891e-12</wgt>
  <wgt id="623">3.41713e-12</wgt>
  <wgt id="624">3.37983e-12</wgt>
  <wgt id="625">3.25159e-12</wgt>
  <wgt id="626">3.1347e-12</wgt>
  <wgt id="627">3.12196e-12</wgt>
  <wgt id="628">3.45569e-12</wgt>
  <wgt id="629">3.33273e-12</wgt>
  <wgt id="630">3.26731e-12</wgt>
  <wgt id="631">3.41545e-12</wgt>
  <wgt id="632">3.12739e-12</wgt>
  <wgt id="633">3.33658e-12</wgt>
  <wgt id="634">3.2684e-12</wgt>
  <wgt id="635">3.14769e-12</wgt>
  <wgt id="636">3.39736e-12</wgt>
  <wgt id="637">3.35665e-12</wgt>
  <wgt id="638">3.21425e-12</wgt>
  <wgt id="639">3.25935e-12</wgt>
  <wgt id="640">3.31827e-12</wgt>
  <wgt id="641">3.46646e-12</wgt>
  <wgt id="642">3.2453e-12</wgt>
  <wgt id="643">3.30239e-12</wgt>
  <wgt id="644">3.06538e-12</wgt>
  <wgt id="645">3.37394e-12</wgt>
  <wgt id="646">3.23607e-12</wgt>
  <wgt id="647">3.35554e-12</wgt>
  <wgt id="648">3.45344e-12</wgt>
  <wgt id="649">3.39046e-12</wgt>
  <wgt id="650">3.23234e-12</wgt>
  <wgt id="651">3.50964e-12</wgt>
  <wgt id="652">3.26547e-12</wgt>
  <wgt id="653">3.2451e-12</wgt>
  <wgt id="654">3.35148e-12</wgt>
  <wgt id="655">3.26966e-12</wgt>
  <wgt id="656">3.37554e-12</wgt>
  <wgt id="657">3.60874e-12</wgt>
  <wgt id="658">3.39206e-12</wgt>
  <wgt id="659">3.22204e-12</wgt>
  <wgt id="660">3.33622e-12</wgt>
  <wgt id="661">3.28611e-12</wgt>
  <wgt id="662">3.31962e-12</wgt>
  <wgt id="663">3.39475e-12</wgt>
  <wgt id="664">3.35381e-12</wgt>
  <wgt id="665">3.33979e-12</wgt>
  <wgt id="666">3.29835e-12</wgt>
  <wgt id="667">3.51002e-12</wgt>
  <wgt id="668">3.34272e-12</wgt>
  <wgt id="669">3.39748e-12</wgt>
  <wgt id="670">3.49326e-12</wgt>
  <wgt id="671">3.3686e-12</wgt>
  <wgt id="672">3.2296e-12</wgt>
  <wgt id="673">3.48223e-12</wgt>
  <wgt id="674">3.27496e-12</wgt>
  <wgt id="675">3.27918e-12</wgt>
  <wgt id="676">4.34811e-12</wgt>
  <wgt id="677">4.39243e-12</wgt>
  <wgt id="678">4.67784e-12</wgt>
  <wgt id="679">4.21767e-12</wgt>
  <wgt id="680">4.34012e-12</wgt>
  <wgt id="681">4.3237e-12</wgt>
  <wgt id="682">4.53903e-12</wgt>
  <wgt id="683">4.14568e-12</wgt>
  <wgt id="684">4.56845e-12</wgt>
  <wgt id="685">4.23081e-12</wgt>
  <wgt id="686">4.27517e-12</wgt>
  <wgt id="687">4.55645e-12</wgt>
  <wgt id="688">4.24177e-12</wgt>
  <wgt id="689">4.64522e-12</wgt>
  <wgt id="690">4.50596e-12</wgt>
  <wgt id="691">4.51746e-12</wgt>
  <wgt id="692">4.25953e-12</wgt>
  <wgt id="693">5.50463e-12</wgt>
  <wgt id="694">4.7166e-12</wgt>
  <wgt id="695">4.14102e-12</wgt>
  <wgt id="696">4.13128e-12</wgt>
  <wgt id="697">4.0492e-12</wgt>
  <wgt id="698">3.73622e-12</wgt>
  <wgt id="699">3.76404e-12</wgt>
  <wgt id="700">3.77741e-12</wgt>
  <wgt id="701">4.35804e-12</wgt>
  <wgt id="702">4.22053e-12</wgt>
  <wgt id="703">5.24416e-12</wgt>
  <wgt id="704">4.87766e-12</wgt>
  <wgt id="705">4.76068e-12</wgt>
  <wgt id="706">4.05088e-12</wgt>
  <wgt id="707">4.112e-12</wgt>
  <wgt id="708">4.2344e-12</wgt>
  <wgt id="709">4.24231e-12</wgt>
  <wgt id="710">3.8056e-12</wgt>
  <wgt id="711">4.44282e-12</wgt>
  <wgt id="712">4.15526e-12</wgt>
  <wgt id="713">4.70917e-12</wgt>
  <wgt id="714">4.06569e-12</wgt>
  <wgt id="715">4.21662e-12</wgt>
  <wgt id="716">4.19071e-12</wgt>
  <wgt id="717">3.92794e-12</wgt>
  <wgt id="718">4.41262e-12</wgt>
  <wgt id="719">3.92513e-12</wgt>
  <wgt id="720">4.26003e-12</wgt>
  <wgt id="721">3.77984e-12</wgt>
  <wgt id="722">3.59078e-12</wgt>
  <wgt id="723">4.79431e-12</wgt>
  <wgt id="724">4.65975e-12</wgt>
  <wgt id="725">4.5711e-12</wgt>
  <wgt id="726">4.35647e-12</wgt>
  <wgt id="727">4.30776e-12</wgt>
  <wgt id="728">4.21621e-12</wgt>
  <wgt id="729">4.06795e-12</wgt>
  <wgt id="730">4.8101e-12</wgt>
  <wgt id="731">4.27829e-12</wgt>
  <wgt id="732">4.96435e-12</wgt>
  <wgt id="733">4.17154e-12</wgt>
  <wgt id="734">4.4859e-12</wgt>
  <wgt id="735">4.35259e-12</wgt>
  <wgt id="736">4.12605e-12</wgt>
  <wgt id="737">4.27082e-12</wgt>
  <wgt id="738">4.11225e-12</wgt>
  <wgt id="739">4.62276e-12</wgt>
  <wgt id="740">5.01962e-12</wgt>
  <wgt id="741">4.18727e-12</wgt>
  <wgt id="742">4.26237e-12</wgt>
  <wgt id="743">4.00697e-12</wgt>
  <wgt id="744">4.26528e-12</wgt>
  <wgt id="745">4.68007e-12</wgt>
  <wgt id="746">4.80085e-12</wgt>
  <wgt id="747">3.72177e-12</wgt>
  <wgt id="748">4.24028e-12</wgt>
  <wgt id="749">4.54448e-12</wgt>
  <wgt id="750">4.60288e-12</wgt>
  <wgt id="751">4.42154e-12</wgt>
  <wgt id="752">3.92641e-12</wgt>
  <wgt id="753">3.98506e-12</wgt>
  <wgt id="754">4.55795e-12</wgt>
  <wgt id="755">4.30364e-12</wgt>
  <wgt id="756">4.2926e-12</wgt>
  <wgt id="757">3.85504e-12</wgt>
  <wgt id="758">4.29783e-12</wgt>
  <wgt id="759">4.67578e-12</wgt>
  <wgt id="760">4.27298e-12</wgt>
  <wgt id="761">4.71085e-12</wgt>
  <wgt id="762">4.74665e-12</wgt>
  <wgt id="763">4.36744e-12</wgt>
  <wgt id="764">4.59953e-12</wgt>
  <wgt id="765">4.39466e-12</wgt>
  <wgt id="766">4.37713e-12</wgt>
  <wgt id="767">4.45381e-12</wgt>
  <wgt id="768">4.00822e-12</wgt>
  <wgt id="769">4.61858e-12</wgt>
  <wgt id="770">4.15421e-12</wgt>
  <wgt id="771">5.30258e-12</wgt>
  <wgt id="772">4.17879e-12</wgt>
  <wgt id="773">4.32539e-12</wgt>
  <wgt id="774">3.57063e-12</wgt>
  <wgt id="775">4.57768e-12</wgt>
  <wgt id="776">4.89184e-12</wgt>
  <wgt id="777">3.96157e-12</wgt>
  <wgt id="778">2.98813e-12</wgt>
  <wgt id="779">2.10076e-12</wgt>
  <wgt id="780">1.44161e-12</wgt>
  <wgt id="781">3.37844e-12</wgt>
  <wgt id="782">3.4713e-12</wgt>
  <wgt id="783">2.02603e-12</wgt>
  <wgt id="784">2.32058e-12</wgt>
  <wgt id="785">4.19167e-12</wgt>
  <wgt id="786">1.96161e-12</wgt>
  <wgt id="787">3.6932e-12</wgt>
  <wgt id="788">1.15908e-12</wgt>
  <wgt id="789">2.21964e-12</wgt>
  <wgt id="790">1.93288e-12</wgt>
  <wgt id="791">3.16265e-12</wgt>
  <wgt id="792">3.99323e-12</wgt>
  <wgt id="793">2.89421e-12</wgt>
  <wgt id="794">1.84027e-12</wgt>
  <wgt id="795">3.91311e-12</wgt>
  <wgt id="796">4.12831e-12</wgt>
  <wgt id="797">3.79335e-12</wgt>
  <wgt id="798">2.47645e-12</wgt>
  <wgt id="799">3.63279e-12</wgt>
  <wgt id="800">2.34296e-12</wgt>
  <wgt id="801">2.77285e-12</wgt>
  <wgt id="802">1.79709e-12</wgt>
  <wgt id="803">4.58007e-12</wgt>
  <wgt id="804">3.88437e-12</wgt>
  <wgt id="805">3.87257e-12</wgt>
  <wgt id="806">3.2635e-12</wgt>
  <wgt id="807">2.86015e-12</wgt>
  <wgt id="808">2.86097e-12</wgt>
  <wgt id="809">2.70327e-12</wgt>
  <wgt id="810">3.38288e-12</wgt>
  <wgt id="811">3.21425e-12</wgt>
  <wgt id="812">1.93499e-12</wgt>
  <wgt id="813">2.07476e-12</wgt>
  <wgt id="814">2.27483e-12</wgt>
  <wgt id="815">2.04219e-12</wgt>
  <wgt id="816">1.99056e-12</wgt>
  <wgt id="817">3.05924e-12</wgt>
  <wgt id="818">3.53013e-12</wgt>
  <wgt id="819">2.08257e-12</wgt>
  <wgt id="820">2.89437e-12</wgt>
  <wgt id="821">3.60527e-12</wgt>
  <wgt id="822">2.35972e-12</wgt>
  <wgt id="823">3.71793e-12</wgt>
  <wgt id="824">4.50045e-12</wgt>
  <wgt id="825">1.74484e-12</wgt>
  <wgt id="826">3.51786e-12</wgt>
  <wgt id="827">1.46181e-12</wgt>
  <wgt id="828">3.85518e-12</wgt>
  <wgt id="829">3.11591e-12</wgt>
  <wgt id="830">1.64058e-12</wgt>
  <wgt id="831">3.4183e-12</wgt>
  <wgt id="832">5.2832e-12</wgt>
  <wgt id="833">2.52121e-12</wgt>
  <wgt id="834">5.06369e-12</wgt>
  <wgt id="835">2.21557e-12</wgt>
  <wgt id="836">2.66544e-12</wgt>
  <wgt id="837">3.52532e-12</wgt>
  <wgt id="838">2.59215e-12</wgt>
  <wgt id="839">3.38966e-12</wgt>
  <wgt id="840">2.61163e-12</wgt>
  <wgt id="841">4.09347e-12</wgt>
  <wgt id="842">2.806e-12</wgt>
  <wgt id="843">3.13871e-12</wgt>
  <wgt id="844">3.25957e-12</wgt>
  <wgt id="845">4.91681e-12</wgt>
  <wgt id="846">3.03015e-12</wgt>
  <wgt id="847">3.12926e-12</wgt>
  <wgt id="848">2.11847e-12</wgt>
  <wgt id="849">3.17947e-12</wgt>
  <wgt id="850">4.40558e-12</wgt>
  <wgt id="851">3.45352e-12</wgt>
  <wgt id="852">1.95963e-12</wgt>
  <wgt id="853">3.56138e-12</wgt>
  <wgt id="854">4.00586e-12</wgt>
  <wgt id="855">3.68937e-12</wgt>
  <wgt id="856">1.65255e-12</wgt>
  <wgt id="857">2.76883e-12</wgt>
  <wgt id="858">2.81963e-12</wgt>
  <wgt id="859">2.82181e-12</wgt>
  <wgt id="860">3.64926e-12</wgt>
  <wgt id="861">2.51167e-12</wgt>
  <wgt id="862">3.06154e-12</wgt>
  <wgt id="863">3.37393e-12</wgt>
  <wgt id="864">3.14797e-12</wgt>
  <wgt id="865">4.76499e-12</wgt>
  <wgt id="866">5.24303e-12</wgt>
  <wgt id="867">3.08177e-12</wgt>
  <wgt id="868">3.06585e-12</wgt>
  <wgt id="869">1.93041e-12</wgt>
  <wgt id="870">2.15773e-12</wgt>
  <wgt id="871">2.10758e-12</wgt>
  <wgt id="872">4.068e-12</wgt>
  <wgt id="873">2.38714e-12</wgt>
  <wgt id="874">3.27792e-12</wgt>
  <wgt id="875">2.4204e-12</wgt>
  <wgt id="876">3.9733e-12</wgt>
  <wgt id="877">3.48541e-12</wgt>
  <wgt id="878">2.38078e-12</wgt>
  <wgt id="879">4.34811e-12</wgt>
  <wgt id="880">4.39243e-12</wgt>
  <wgt id="881">4.67784e-12</wgt>
  <wgt id="882">4.21767e-12</wgt>
  <wgt id="883">4.34012e-12</wgt>
  <wgt id="884">4.3237e-12</wgt>
  <wgt id="885">4.53903e-12</wgt>
  <wgt id="886">4.14568e-12</wgt>
  <wgt id="887">4.56845e-12</wgt>
  <wgt id="888">4.23081e-12</wgt>
  <wgt id="889">4.27517e-12</wgt>
  <wgt id="890">4.55645e-12</wgt>
  <wgt id="891">4.24177e-12</wgt>
  <wgt id="892">4.64522e-12</wgt>
  <wgt id="893">4.50596e-12</wgt>
  <wgt id="894">4.51746e-12</wgt>
  <wgt id="895">4.25953e-12</wgt>
  <wgt id="896">5.50463e-12</wgt>
  <wgt id="897">4.7166e-12</wgt>
  <wgt id="898">4.14102e-12</wgt>
  <wgt id="899">4.13128e-12</wgt>
  <wgt id="900">4.0492e-12</wgt>
  <wgt id="901">3.73622e-12</wgt>
  <wgt id="902">3.76404e-12</wgt>
  <wgt id="903">3.77741e-12</wgt>
  <wgt id="904">4.35804e-12</wgt>
  <wgt id="905">4.22053e-12</wgt>
  <wgt id="906">5.24416e-12</wgt>
  <wgt id="907">4.87766e-12</wgt>
  <wgt id="908">4.76068e-12</wgt>
  <wgt id="909">4.05088e-12</wgt>
  <wgt id="910">4.112e-12</wgt>
  <wgt id="911">4.2344e-12</wgt>
  <wgt id="912">4.24231e-12</wgt>
  <wgt id="913">3.8056e-12</wgt>
  <wgt id="914">4.44282e-12</wgt>
  <wgt id="915">4.15526e-12</wgt>
  <wgt id="916">4.70917e-12</wgt>
  <wgt id="917">4.06569e-12</wgt>
  <wgt id="918">4.21662e-12</wgt>
  <wgt id="919">4.19071e-12</wgt>
  <wgt id="920">3.92794e-12</wgt>
  <wgt id="921">4.41262e-12</wgt>
  <wgt id="922">3.92513e-12</wgt>
  <wgt id="923">4.26003e-12</wgt>
  <wgt id="924">3.77984e-12</wgt>
  <wgt id="925">3.59078e-12</wgt>
  <wgt id="926">4.79431e-12</wgt>
  <wgt id="927">4.65975e-12</wgt>
  <wgt id="928">4.5711e-12</wgt>
  <wgt id="929">4.35647e-12</wgt>
  <wgt id="930">4.30776e-12</wgt>
  <wgt id="931">4.21621e-12</wgt>
  <wgt id="932">4.06795e-12</wgt>
  <wgt id="933">4.8101e-12</wgt>
  <wgt id="934">4.27829e-12</wgt>
  <wgt id="935">4.96435e-12</wgt>
  <wgt id="936">4.17154e-12</wgt>
  <wgt id="937">4.4859e-12</wgt>
  <wgt id="938">4.35259e-12</wgt>
  <wgt id="939">4.12605e-12</wgt>
  <wgt id="940">4.27082e-12</wgt>
  <wgt id="941">4.11225e-12</wgt>
  <wgt id="942">4.62276e-12</wgt>
  <wgt id="943">5.01962e-12</wgt>
  <wgt id="944">4.18727e-12</wgt>
  <wgt id="945">4.26237e-12</wgt>
  <wgt id="946">4.00697e-12</wgt>
  <wgt id="947">4.26528e-12</wgt>
  <wgt id="948">4.68007e-12</wgt>
  <wgt id="949">4.80085e-12</wgt>
  <wgt id="950">3.72177e-12</wgt>
  <wgt id="951">4.24028e-12</wgt>
  <wgt id="952">4.54448e-12</wgt>
  <wgt id="953">4.60288e-12</wgt>
  <wgt id="954">4.42154e-12</wgt>
  <wgt id="955">3.92641e-12</wgt>
  <wgt id="956">3.98506e-12</wgt>
  <wgt id="957">4.55795e-12</wgt>
  <wgt id="958">4.30364e-12</wgt>
  <wgt id="959">4.2926e-12</wgt>
  <wgt id="960">3.85504e-12</wgt>
  <wgt id="961">4.29783e-12</wgt>
  <wgt id="962">4.67578e-12</wgt>
  <wgt id="963">4.27298e-12</wgt>
  <wgt id="964">4.71085e-12</wgt>
  <wgt id="965">4.74665e-12</wgt>
  <wgt id="966">4.36744e-12</wgt>
  <wgt id="967">4.59953e-12</wgt>
  <wgt id="968">4.39466e-12</wgt>
  <wgt id="969">4.37713e-12</wgt>
  <wgt id="970">4.45381e-12</wgt>
  <wgt id="971">4.00822e-12</wgt>
  <wgt id="972">4.61858e-12</wgt>
  <wgt id="973">4.15421e-12</wgt>
  <wgt id="974">5.30258e-12</wgt>
  <wgt id="975">4.17879e-12</wgt>
  <wgt id="976">4.32539e-12</wgt>
  <wgt id="977">3.57063e-12</wgt>
  <wgt id="978">4.57768e-12</wgt>
  <wgt id="979">4.89184e-12</wgt>
  <wgt id="980">4.32683e-12</wgt>
  <wgt id="981">4.41462e-12</wgt>
  <wgt id="982">4.21337e-12</wgt>
</rwgt>
</event>
<event>
 5   1  0.3028200E-11  0.2509094E+04  0.7818608E-02  0.7641527E-01
       21   -1    0    0  502  501  0.00000000000E+00  0.00000000000E+00  0.14097466820E+04  0.14097466820E+04  0.00000000000E+00 0. -1.
       21   -1    0    0  501  502 -0.00000000000E+00 -0.00000000000E+00 -0.11164329895E+04  0.11164329895E+04  0.00000000000E+00 0.  1.
       39    2    1    2    0    0  0.00000000000E+00  0.00000000000E+00  0.29331369257E+03  0.25261796715E+04  0.25090936233E+04 0.  0.
       25    1    3    3    0    0  0.12373622883E+04  0.15471103605E+03  0.20415762558E+03  0.12697662278E+04  0.12500000000E+03 0.  0.
       25    1    3    3    0    0 -0.12373622883E+04 -0.15471103605E+03  0.89156066995E+02  0.12564134437E+04  0.12500000000E+03 0.  0.
<mgrwt>
<rscale>  0 0.25090936E+04</rscale>
<asrwt>0</asrwt>
<pdfrwt beam="1">  1       21 0.21688411E+00 0.25090936E+04</pdfrwt>
<pdfrwt beam="2">  1       21 0.17175892E+00 0.25090936E+04</pdfrwt>
<totfact> 0.74265625E+00</totfact>
</mgrwt>
<rwgt>
  <wgt id="1">3.0282e-12</wgt>
  <wgt id="2">2.62532e-12</wgt>
  <wgt id="3">3.53081e-12</wgt>
  <wgt id="4">3.0282e-12</wgt>
  <wgt id="5">2.62532e-12</wgt>
  <wgt id="6">3.53081e-12</wgt>
  <wgt id="7">3.0282e-12</wgt>
  <wgt id="8">2.62532e-12</wgt>
  <wgt id="9">3.53081e-12</wgt>
  <wgt id="10">3.15517e-12</wgt>
  <wgt id="11">3.15191e-12</wgt>
  <wgt id="12">3.14885e-12</wgt>
  <wgt id="13">3.14413e-12</wgt>
  <wgt id="14">3.16713e-12</wgt>
  <wgt id="15">3.16016e-12</wgt>
  <wgt id="16">3.14935e-12</wgt>
  <wgt id="17">3.16056e-12</wgt>
  <wgt id="18">3.14802e-12</wgt>
  <wgt id="19">3.16306e-12</wgt>
  <wgt id="20">3.1454e-12</wgt>
  <wgt id="21">3.13552e-12</wgt>
  <wgt id="22">3.14331e-12</wgt>
  <wgt id="23">3.12581e-12</wgt>
  <wgt id="24">3.14085e-12</wgt>
  <wgt id="25">3.14801e-12</wgt>
  <wgt id="26">3.1688e-12</wgt>
  <wgt id="27">3.15541e-12</wgt>
  <wgt id="28">3.14106e-12</wgt>
  <wgt id="29">3.15776e-12</wgt>
  <wgt id="30">3.14838e-12</wgt>
  <wgt id="31">3.16353e-12</wgt>
  <wgt id="32">3.15226e-12</wgt>
  <wgt id="33">3.16412e-12</wgt>
  <wgt id="34">3.14493e-12</wgt>
  <wgt id="35">3.15545e-12</wgt>
  <wgt id="36">3.16756e-12</wgt>
  <wgt id="37">3.147e-12</wgt>
  <wgt id="38">3.14444e-12</wgt>
  <wgt id="39">3.18716e-12</wgt>
  <wgt id="40">3.161e-12</wgt>
  <wgt id="41">3.15463e-12</wgt>
  <wgt id="42">3.15963e-12</wgt>
  <wgt id="43">3.15414e-12</wgt>
  <wgt id="44">3.14765e-12</wgt>
  <wgt id="45">3.16427e-12</wgt>
  <wgt id="46">3.1619e-12</wgt>
  <wgt id="47">3.14407e-12</wgt>
  <wgt id="48">3.15454e-12</wgt>
  <wgt id="49">3.15689e-12</wgt>
  <wgt id="50">3.17163e-12</wgt>
  <wgt id="51">3.1702e-12</wgt>
  <wgt id="52">3.1573e-12</wgt>
  <wgt id="53">3.12791e-12</wgt>
  <wgt id="54">3.14738e-12</wgt>
  <wgt id="55">3.1553e-12</wgt>
  <wgt id="56">3.16767e-12</wgt>
  <wgt id="57">3.16535e-12</wgt>
  <wgt id="58">3.1327e-12</wgt>
  <wgt id="59">3.14297e-12</wgt>
  <wgt id="60">3.15638e-12</wgt>
  <wgt id="61">3.14315e-12</wgt>
  <wgt id="62">3.15178e-12</wgt>
  <wgt id="63">3.15666e-12</wgt>
  <wgt id="64">3.15845e-12</wgt>
  <wgt id="65">3.15934e-12</wgt>
  <wgt id="66">3.15024e-12</wgt>
  <wgt id="67">3.14621e-12</wgt>
  <wgt id="68">3.1517e-12</wgt>
  <wgt id="69">3.15546e-12</wgt>
  <wgt id="70">3.15294e-12</wgt>
  <wgt id="71">3.15545e-12</wgt>
  <wgt id="72">3.15064e-12</wgt>
  <wgt id="73">3.15728e-12</wgt>
  <wgt id="74">3.15788e-12</wgt>
  <wgt id="75">3.15123e-12</wgt>
  <wgt id="76">3.16475e-12</wgt>
  <wgt id="77">3.15449e-12</wgt>
  <wgt id="78">3.15558e-12</wgt>
  <wgt id="79">3.16215e-12</wgt>
  <wgt id="80">3.14078e-12</wgt>
  <wgt id="81">3.15136e-12</wgt>
  <wgt id="82">3.15519e-12</wgt>
  <wgt id="83">3.14131e-12</wgt>
  <wgt id="84">3.14824e-12</wgt>
  <wgt id="85">3.14793e-12</wgt>
  <wgt id="86">3.16453e-12</wgt>
  <wgt id="87">3.13658e-12</wgt>
  <wgt id="88">3.15952e-12</wgt>
  <wgt id="89">3.15846e-12</wgt>
  <wgt id="90">3.16085e-12</wgt>
  <wgt id="91">3.1579e-12</wgt>
  <wgt id="92">3.16187e-12</wgt>
  <wgt id="93">3.15517e-12</wgt>
  <wgt id="94">3.15165e-12</wgt>
  <wgt id="95">3.15831e-12</wgt>
  <wgt id="96">3.15789e-12</wgt>
  <wgt id="97">3.14991e-12</wgt>
  <wgt id="98">3.15663e-12</wgt>
  <wgt id="99">3.15279e-12</wgt>
  <wgt id="100">3.15852e-12</wgt>
  <wgt id="101">3.15409e-12</wgt>
  <wgt id="102">3.15146e-12</wgt>
  <wgt id="103">3.1603e-12</wgt>
  <wgt id="104">3.15275e-12</wgt>
  <wgt id="105">3.15893e-12</wgt>
  <wgt id="106">3.15036e-12</wgt>
  <wgt id="107">3.1646e-12</wgt>
  <wgt id="108">3.15172e-12</wgt>
  <wgt id="109">3.15587e-12</wgt>
  <wgt id="110">3.15504e-12</wgt>
  <wgt id="111">3.18097e-12</wgt>
  <wgt id="112">3.15851e-12</wgt>
  <wgt id="113">4.34167e-12</wgt>
  <wgt id="114">4.43977e-12</wgt>
  <wgt id="115">4.37745e-12</wgt>
  <wgt id="116">6.29667e-12</wgt>
  <wgt id="117">3.5588e-12</wgt>
  <wgt id="118">3.57235e-12</wgt>
  <wgt id="119">3.55107e-12</wgt>
  <wgt id="120">3.55903e-12</wgt>
  <wgt id="121">3.55865e-12</wgt>
  <wgt id="122">3.5527e-12</wgt>
  <wgt id="123">3.56709e-12</wgt>
  <wgt id="124">3.55383e-12</wgt>
  <wgt id="125">3.56198e-12</wgt>
  <wgt id="126">3.56582e-12</wgt>
  <wgt id="127">3.55409e-12</wgt>
  <wgt id="128">3.56997e-12</wgt>
  <wgt id="129">3.54772e-12</wgt>
  <wgt id="130">3.57977e-12</wgt>
  <wgt id="131">3.53734e-12</wgt>
  <wgt id="132">3.46302e-12</wgt>
  <wgt id="133">3.67255e-12</wgt>
  <wgt id="134">3.51881e-12</wgt>
  <wgt id="135">3.59016e-12</wgt>
  <wgt id="136">3.60724e-12</wgt>
  <wgt id="137">3.50018e-12</wgt>
  <wgt id="138">3.70489e-12</wgt>
  <wgt id="139">3.41821e-12</wgt>
  <wgt id="140">3.53608e-12</wgt>
  <wgt id="141">3.57648e-12</wgt>
  <wgt id="142">3.55917e-12</wgt>
  <wgt id="143">3.56467e-12</wgt>
  <wgt id="144">3.44496e-12</wgt>
  <wgt id="145">3.66575e-12</wgt>
  <wgt id="146">3.5953e-12</wgt>
  <wgt id="147">3.52959e-12</wgt>
  <wgt id="148">3.57056e-12</wgt>
  <wgt id="149">3.55799e-12</wgt>
  <wgt id="150">3.59054e-12</wgt>
  <wgt id="151">3.54401e-12</wgt>
  <wgt id="152">3.56068e-12</wgt>
  <wgt id="153">3.55803e-12</wgt>
  <wgt id="154">3.58415e-12</wgt>
  <wgt id="155">3.52764e-12</wgt>
  <wgt id="156">3.64227e-12</wgt>
  <wgt id="157">3.475e-12</wgt>
  <wgt id="158">4.27917e-12</wgt>
  <wgt id="159">4.29723e-12</wgt>
  <wgt id="160">4.26488e-12</wgt>
  <wgt id="161">4.26779e-12</wgt>
  <wgt id="162">4.29233e-12</wgt>
  <wgt id="163">4.27421e-12</wgt>
  <wgt id="164">4.2868e-12</wgt>
  <wgt id="165">4.28091e-12</wgt>
  <wgt id="166">4.27805e-12</wgt>
  <wgt id="167">4.27615e-12</wgt>
  <wgt id="168">4.28372e-12</wgt>
  <wgt id="169">4.26122e-12</wgt>
  <wgt id="170">4.29064e-12</wgt>
  <wgt id="171">4.27425e-12</wgt>
  <wgt id="172">4.28638e-12</wgt>
  <wgt id="173">4.27795e-12</wgt>
  <wgt id="174">4.27968e-12</wgt>
  <wgt id="175">4.15404e-12</wgt>
  <wgt id="176">4.44313e-12</wgt>
  <wgt id="177">4.30365e-12</wgt>
  <wgt id="178">4.25701e-12</wgt>
  <wgt id="179">4.47087e-12</wgt>
  <wgt id="180">3.97873e-12</wgt>
  <wgt id="181">4.14738e-12</wgt>
  <wgt id="182">4.36644e-12</wgt>
  <wgt id="183">4.19895e-12</wgt>
  <wgt id="184">4.31929e-12</wgt>
  <wgt id="185">4.2427e-12</wgt>
  <wgt id="186">4.32464e-12</wgt>
  <wgt id="187">4.23911e-12</wgt>
  <wgt id="188">4.3518e-12</wgt>
  <wgt id="189">4.24975e-12</wgt>
  <wgt id="190">4.29133e-12</wgt>
  <wgt id="191">4.29179e-12</wgt>
  <wgt id="192">4.27186e-12</wgt>
  <wgt id="193">4.34462e-12</wgt>
  <wgt id="194">4.24708e-12</wgt>
  <wgt id="195">4.15486e-12</wgt>
  <wgt id="196">4.49187e-12</wgt>
  <wgt id="197">4.30179e-12</wgt>
  <wgt id="198">4.27403e-12</wgt>
  <wgt id="199">4.27917e-12</wgt>
  <wgt id="200">4.31754e-12</wgt>
  <wgt id="201">4.30385e-12</wgt>
  <wgt id="202">4.29029e-12</wgt>
  <wgt id="203">4.27014e-12</wgt>
  <wgt id="204">4.2605e-12</wgt>
  <wgt id="205">4.2528e-12</wgt>
  <wgt id="206">4.13526e-12</wgt>
  <wgt id="207">4.15973e-12</wgt>
  <wgt id="208">4.11121e-12</wgt>
  <wgt id="209">4.14966e-12</wgt>
  <wgt id="210">4.12503e-12</wgt>
  <wgt id="211">4.13363e-12</wgt>
  <wgt id="212">4.13676e-12</wgt>
  <wgt id="213">4.13502e-12</wgt>
  <wgt id="214">4.13586e-12</wgt>
  <wgt id="215">4.13876e-12</wgt>
  <wgt id="216">4.13293e-12</wgt>
  <wgt id="217">4.14766e-12</wgt>
  <wgt id="218">4.12577e-12</wgt>
  <wgt id="219">4.13218e-12</wgt>
  <wgt id="220">4.13739e-12</wgt>
  <wgt id="221">4.13389e-12</wgt>
  <wgt id="222">4.13895e-12</wgt>
  <wgt id="223">3.90821e-12</wgt>
  <wgt id="224">4.34278e-12</wgt>
  <wgt id="225">4.08308e-12</wgt>
  <wgt id="226">4.20127e-12</wgt>
  <wgt id="227">4.09494e-12</wgt>
  <wgt id="228">4.15306e-12</wgt>
  <wgt id="229">4.07598e-12</wgt>
  <wgt id="230">4.16499e-12</wgt>
  <wgt id="231">4.25913e-12</wgt>
  <wgt id="232">4.03392e-12</wgt>
  <wgt id="233">4.11261e-12</wgt>
  <wgt id="234">4.17198e-12</wgt>
  <wgt id="235">4.034e-12</wgt>
  <wgt id="236">4.22545e-12</wgt>
  <wgt id="237">4.06961e-12</wgt>
  <wgt id="238">4.15773e-12</wgt>
  <wgt id="239">4.10747e-12</wgt>
  <wgt id="240">4.18576e-12</wgt>
  <wgt id="241">4.09093e-12</wgt>
  <wgt id="242">4.18922e-12</wgt>
  <wgt id="243">4.19699e-12</wgt>
  <wgt id="244">4.15142e-12</wgt>
  <wgt id="245">4.13314e-12</wgt>
  <wgt id="246">4.16407e-12</wgt>
  <wgt id="247">4.13526e-12</wgt>
  <wgt id="248">4.1726e-12</wgt>
  <wgt id="249">4.15837e-12</wgt>
  <wgt id="250">4.1453e-12</wgt>
  <wgt id="251">4.12566e-12</wgt>
  <wgt id="252">4.11637e-12</wgt>
  <wgt id="253">4.10985e-12</wgt>
  <wgt id="254">4.05007e-12</wgt>
  <wgt id="255">4.05385e-12</wgt>
  <wgt id="256">4.04577e-12</wgt>
  <wgt id="257">4.05285e-12</wgt>
  <wgt id="258">4.04793e-12</wgt>
  <wgt id="259">4.07719e-12</wgt>
  <wgt id="260">4.02379e-12</wgt>
  <wgt id="261">4.05698e-12</wgt>
  <wgt id="262">4.04154e-12</wgt>
  <wgt id="263">4.04779e-12</wgt>
  <wgt id="264">4.05252e-12</wgt>
  <wgt id="265">4.04483e-12</wgt>
  <wgt id="266">4.06039e-12</wgt>
  <wgt id="267">4.05134e-12</wgt>
  <wgt id="268">4.04802e-12</wgt>
  <wgt id="269">4.06407e-12</wgt>
  <wgt id="270">4.04047e-12</wgt>
  <wgt id="271">4.04298e-12</wgt>
  <wgt id="272">4.05808e-12</wgt>
  <wgt id="273">4.03695e-12</wgt>
  <wgt id="274">4.05991e-12</wgt>
  <wgt id="275">4.03189e-12</wgt>
  <wgt id="276">4.06875e-12</wgt>
  <wgt id="277">4.0261e-12</wgt>
  <wgt id="278">4.07193e-12</wgt>
  <wgt id="279">3.96889e-12</wgt>
  <wgt id="280">4.15184e-12</wgt>
  <wgt id="281">4.03114e-12</wgt>
  <wgt id="282">4.05139e-12</wgt>
  <wgt id="283">3.9286e-12</wgt>
  <wgt id="284">4.1998e-12</wgt>
  <wgt id="285">3.8495e-12</wgt>
  <wgt id="286">4.21644e-12</wgt>
  <wgt id="287">4.06318e-12</wgt>
  <wgt id="288">4.03315e-12</wgt>
  <wgt id="289">4.07962e-12</wgt>
  <wgt id="290">3.98175e-12</wgt>
  <wgt id="291">4.0378e-12</wgt>
  <wgt id="292">4.05266e-12</wgt>
  <wgt id="293">4.0174e-12</wgt>
  <wgt id="294">4.08235e-12</wgt>
  <wgt id="295">3.97061e-12</wgt>
  <wgt id="296">4.14695e-12</wgt>
  <wgt id="297">4.04782e-12</wgt>
  <wgt id="298">4.06721e-12</wgt>
  <wgt id="299">4.03623e-12</wgt>
  <wgt id="300">4.0862e-12</wgt>
  <wgt id="301">3.98416e-12</wgt>
  <wgt id="302">4.20876e-12</wgt>
  <wgt id="303">4.01507e-12</wgt>
  <wgt id="304">4.06992e-12</wgt>
  <wgt id="305">4.05617e-12</wgt>
  <wgt id="306">4.06049e-12</wgt>
  <wgt id="307">4.05165e-12</wgt>
  <wgt id="308">4.05955e-12</wgt>
  <wgt id="309">4.05412e-12</wgt>
  <wgt id="310">4.08449e-12</wgt>
  <wgt id="311">4.03011e-12</wgt>
  <wgt id="312">4.06232e-12</wgt>
  <wgt id="313">4.04997e-12</wgt>
  <wgt id="314">4.0541e-12</wgt>
  <wgt id="315">4.05826e-12</wgt>
  <wgt id="316">4.05116e-12</wgt>
  <wgt id="317">4.06716e-12</wgt>
  <wgt id="318">4.05949e-12</wgt>
  <wgt id="319">4.05069e-12</wgt>
  <wgt id="320">4.07112e-12</wgt>
  <wgt id="321">4.04797e-12</wgt>
  <wgt id="322">4.04712e-12</wgt>
  <wgt id="323">4.06681e-12</wgt>
  <wgt id="324">4.04539e-12</wgt>
  <wgt id="325">4.06572e-12</wgt>
  <wgt id="326">4.04169e-12</wgt>
  <wgt id="327">4.07487e-12</wgt>
  <wgt id="328">4.0349e-12</wgt>
  <wgt id="329">4.06818e-12</wgt>
  <wgt id="330">4.18003e-12</wgt>
  <wgt id="331">3.93843e-12</wgt>
  <wgt id="332">4.04032e-12</wgt>
  <wgt id="333">4.05687e-12</wgt>
  <wgt id="334">3.96113e-12</wgt>
  <wgt id="335">4.17455e-12</wgt>
  <wgt id="336">3.91088e-12</wgt>
  <wgt id="337">4.23366e-12</wgt>
  <wgt id="338">4.10291e-12</wgt>
  <wgt id="339">4.01315e-12</wgt>
  <wgt id="340">4.08399e-12</wgt>
  <wgt id="341">3.98509e-12</wgt>
  <wgt id="342">4.04754e-12</wgt>
  <wgt id="343">4.05206e-12</wgt>
  <wgt id="344">4.02691e-12</wgt>
  <wgt id="345">4.09028e-12</wgt>
  <wgt id="346">3.97388e-12</wgt>
  <wgt id="347">4.15121e-12</wgt>
  <wgt id="348">4.05539e-12</wgt>
  <wgt id="349">4.07104e-12</wgt>
  <wgt id="350">4.0391e-12</wgt>
  <wgt id="351">4.09967e-12</wgt>
  <wgt id="352">3.98392e-12</wgt>
  <wgt id="353">4.22092e-12</wgt>
  <wgt id="354">4.00318e-12</wgt>
  <wgt id="355">4.08834e-12</wgt>
  <wgt id="356">4.05007e-12</wgt>
  <wgt id="357">4.07123e-12</wgt>
  <wgt id="358">4.05617e-12</wgt>
  <wgt id="359">4.06251e-12</wgt>
  <wgt id="360">4.08351e-12</wgt>
  <wgt id="361">4.06426e-12</wgt>
  <wgt id="362">4.1385e-12</wgt>
  <wgt id="363">4.12798e-12</wgt>
  <wgt id="364">4.11267e-12</wgt>
  <wgt id="365">4.09802e-12</wgt>
  <wgt id="366">4.08197e-12</wgt>
  <wgt id="367">4.04944e-12</wgt>
  <wgt id="368">4.03133e-12</wgt>
  <wgt id="369">4.01165e-12</wgt>
  <wgt id="370">4.06426e-12</wgt>
  <wgt id="371">4.08278e-12</wgt>
  <wgt id="372">4.07264e-12</wgt>
  <wgt id="373">4.05752e-12</wgt>
  <wgt id="374">4.05701e-12</wgt>
  <wgt id="375">4.37243e-12</wgt>
  <wgt id="376">4.37304e-12</wgt>
  <wgt id="377">4.37149e-12</wgt>
  <wgt id="378">4.38844e-12</wgt>
  <wgt id="379">4.35634e-12</wgt>
  <wgt id="380">4.38391e-12</wgt>
  <wgt id="381">4.36776e-12</wgt>
  <wgt id="382">4.39635e-12</wgt>
  <wgt id="383">4.34857e-12</wgt>
  <wgt id="384">4.37527e-12</wgt>
  <wgt id="385">4.36957e-12</wgt>
  <wgt id="386">4.39103e-12</wgt>
  <wgt id="387">4.36426e-12</wgt>
  <wgt id="388">4.36792e-12</wgt>
  <wgt id="389">4.37756e-12</wgt>
  <wgt id="390">4.38481e-12</wgt>
  <wgt id="391">4.35931e-12</wgt>
  <wgt id="392">4.33579e-12</wgt>
  <wgt id="393">4.39315e-12</wgt>
  <wgt id="394">4.37847e-12</wgt>
  <wgt id="395">4.36397e-12</wgt>
  <wgt id="396">4.3766e-12</wgt>
  <wgt id="397">4.36943e-12</wgt>
  <wgt id="398">4.35214e-12</wgt>
  <wgt id="399">4.39204e-12</wgt>
  <wgt id="400">4.36444e-12</wgt>
  <wgt id="401">4.39032e-12</wgt>
  <wgt id="402">4.33454e-12</wgt>
  <wgt id="403">4.38988e-12</wgt>
  <wgt id="404">4.47918e-12</wgt>
  <wgt id="405">4.11551e-12</wgt>
  <wgt id="406">4.29587e-12</wgt>
  <wgt id="407">4.53891e-12</wgt>
  <wgt id="408">4.41174e-12</wgt>
  <wgt id="409">4.29745e-12</wgt>
  <wgt id="410">4.24744e-12</wgt>
  <wgt id="411">4.43066e-12</wgt>
  <wgt id="412">4.36413e-12</wgt>
  <wgt id="413">4.38489e-12</wgt>
  <wgt id="414">4.32239e-12</wgt>
  <wgt id="415">4.41128e-12</wgt>
  <wgt id="416">4.49686e-12</wgt>
  <wgt id="417">4.20074e-12</wgt>
  <wgt id="418">4.37856e-12</wgt>
  <wgt id="419">4.33912e-12</wgt>
  <wgt id="420">4.44929e-12</wgt>
  <wgt id="421">4.32645e-12</wgt>
  <wgt id="422">4.36122e-12</wgt>
  <wgt id="423">4.37829e-12</wgt>
  <wgt id="424">4.47201e-12</wgt>
  <wgt id="425">4.30872e-12</wgt>
  <wgt id="426">4.37243e-12</wgt>
  <wgt id="427">4.32739e-12</wgt>
  <wgt id="428">4.50105e-12</wgt>
  <wgt id="429">4.41623e-12</wgt>
  <wgt id="430">4.54541e-12</wgt>
  <wgt id="431">4.51948e-12</wgt>
  <wgt id="432">4.49521e-12</wgt>
  <wgt id="433">4.47156e-12</wgt>
  <wgt id="434">4.44273e-12</wgt>
  <wgt id="435">4.38323e-12</wgt>
  <wgt id="436">4.35283e-12</wgt>
  <wgt id="437">4.32375e-12</wgt>
  <wgt id="438">4.41623e-12</wgt>
  <wgt id="439">4.43084e-12</wgt>
  <wgt id="440">4.42224e-12</wgt>
  <wgt id="441">4.41189e-12</wgt>
  <wgt id="442">4.40818e-12</wgt>
  <wgt id="443">4.24394e-12</wgt>
  <wgt id="444">4.27079e-12</wgt>
  <wgt id="445">4.22588e-12</wgt>
  <wgt id="446">4.21575e-12</wgt>
  <wgt id="447">4.22818e-12</wgt>
  <wgt id="448">4.12655e-12</wgt>
  <wgt id="449">4.31327e-12</wgt>
  <wgt id="450">4.2305e-12</wgt>
  <wgt id="451">4.23623e-12</wgt>
  <wgt id="452">4.34577e-12</wgt>
  <wgt id="453">4.28943e-12</wgt>
  <wgt id="454">4.06924e-12</wgt>
  <wgt id="455">4.24962e-12</wgt>
  <wgt id="456">4.21599e-12</wgt>
  <wgt id="457">4.26324e-12</wgt>
  <wgt id="458">4.29506e-12</wgt>
  <wgt id="459">4.27382e-12</wgt>
  <wgt id="460">4.26894e-12</wgt>
  <wgt id="461">4.15855e-12</wgt>
  <wgt id="462">4.20541e-12</wgt>
  <wgt id="463">4.19429e-12</wgt>
  <wgt id="464">4.21692e-12</wgt>
  <wgt id="465">4.29296e-12</wgt>
  <wgt id="466">4.19051e-12</wgt>
  <wgt id="467">4.19911e-12</wgt>
  <wgt id="468">4.23142e-12</wgt>
  <wgt id="469">4.23018e-12</wgt>
  <wgt id="470">4.20399e-12</wgt>
  <wgt id="471">4.20274e-12</wgt>
  <wgt id="472">4.26575e-12</wgt>
  <wgt id="473">4.09337e-12</wgt>
  <wgt id="474">3.0282e-12</wgt>
  <wgt id="475">3.20785e-12</wgt>
  <wgt id="476">2.95529e-12</wgt>
  <wgt id="477">2.90098e-12</wgt>
  <wgt id="478">3.04233e-12</wgt>
  <wgt id="479">2.95587e-12</wgt>
  <wgt id="480">3.15124e-12</wgt>
  <wgt id="481">2.97718e-12</wgt>
  <wgt id="482">2.92585e-12</wgt>
  <wgt id="483">2.94676e-12</wgt>
  <wgt id="484">3.21735e-12</wgt>
  <wgt id="485">3.01548e-12</wgt>
  <wgt id="486">3.13109e-12</wgt>
  <wgt id="487">3.09593e-12</wgt>
  <wgt id="488">3.07765e-12</wgt>
  <wgt id="489">2.92842e-12</wgt>
  <wgt id="490">2.92405e-12</wgt>
  <wgt id="491">2.99425e-12</wgt>
  <wgt id="492">2.93781e-12</wgt>
  <wgt id="493">2.90724e-12</wgt>
  <wgt id="494">2.93467e-12</wgt>
  <wgt id="495">3.10172e-12</wgt>
  <wgt id="496">2.92953e-12</wgt>
  <wgt id="497">2.90063e-12</wgt>
  <wgt id="498">3.08038e-12</wgt>
  <wgt id="499">2.95733e-12</wgt>
  <wgt id="500">2.98293e-12</wgt>
  <wgt id="501">3.17511e-12</wgt>
  <wgt id="502">2.9609e-12</wgt>
  <wgt id="503">3.02971e-12</wgt>
  <wgt id="504">3.06991e-12</wgt>
  <wgt id="505">2.99106e-12</wgt>
  <wgt id="506">3.10427e-12</wgt>
  <wgt id="507">3.00609e-12</wgt>
  <wgt id="508">3.07371e-12</wgt>
  <wgt id="509">2.9224e-12</wgt>
  <wgt id="510">3.11853e-12</wgt>
  <wgt id="511">2.96839e-12</wgt>
  <wgt id="512">3.08606e-12</wgt>
  <wgt id="513">3.18198e-12</wgt>
  <wgt id="514">3.01342e-12</wgt>
  <wgt id="515">2.98827e-12</wgt>
  <wgt id="516">3.12561e-12</wgt>
  <wgt id="517">3.08939e-12</wgt>
  <wgt id="518">3.09422e-12</wgt>
  <wgt id="519">2.9299e-12</wgt>
  <wgt id="520">3.07019e-12</wgt>
  <wgt id="521">3.12608e-12</wgt>
  <wgt id="522">3.14933e-12</wgt>
  <wgt id="523">3.09882e-12</wgt>
  <wgt id="524">3.06403e-12</wgt>
  <wgt id="525">3.1363e-12</wgt>
  <wgt id="526">3.05279e-12</wgt>
  <wgt id="527">3.0662e-12</wgt>
  <wgt id="528">3.05546e-12</wgt>
  <wgt id="529">2.96482e-12</wgt>
  <wgt id="530">3.07092e-12</wgt>
  <wgt id="531">2.99889e-12</wgt>
  <wgt id="532">3.21079e-12</wgt>
  <wgt id="533">2.85258e-12</wgt>
  <wgt id="534">3.04569e-12</wgt>
  <wgt id="535">3.09373e-12</wgt>
  <wgt id="536">3.00276e-12</wgt>
  <wgt id="537">3.03605e-12</wgt>
  <wgt id="538">3.05315e-12</wgt>
  <wgt id="539">2.97852e-12</wgt>
  <wgt id="540">2.95721e-12</wgt>
  <wgt id="541">2.92477e-12</wgt>
  <wgt id="542">2.98669e-12</wgt>
  <wgt id="543">3.02241e-12</wgt>
  <wgt id="544">3.17702e-12</wgt>
  <wgt id="545">2.98781e-12</wgt>
  <wgt id="546">2.98076e-12</wgt>
  <wgt id="547">2.93497e-12</wgt>
  <wgt id="548">2.90405e-12</wgt>
  <wgt id="549">2.97048e-12</wgt>
  <wgt id="550">2.98453e-12</wgt>
  <wgt id="551">3.05435e-12</wgt>
  <wgt id="552">2.99467e-12</wgt>
  <wgt id="553">3.01579e-12</wgt>
  <wgt id="554">3.24932e-12</wgt>
  <wgt id="555">3.10082e-12</wgt>
  <wgt id="556">2.92405e-12</wgt>
  <wgt id="557">3.084e-12</wgt>
  <wgt id="558">2.93229e-12</wgt>
  <wgt id="559">2.98368e-12</wgt>
  <wgt id="560">3.29596e-12</wgt>
  <wgt id="561">2.97822e-12</wgt>
  <wgt id="562">3.08633e-12</wgt>
  <wgt id="563">2.94062e-12</wgt>
  <wgt id="564">3.0382e-12</wgt>
  <wgt id="565">2.90682e-12</wgt>
  <wgt id="566">3.08668e-12</wgt>
  <wgt id="567">2.98939e-12</wgt>
  <wgt id="568">3.00751e-12</wgt>
  <wgt id="569">3.10347e-12</wgt>
  <wgt id="570">2.91578e-12</wgt>
  <wgt id="571">3.36263e-12</wgt>
  <wgt id="572">2.95531e-12</wgt>
  <wgt id="573">2.89588e-12</wgt>
  <wgt id="574">2.91999e-12</wgt>
  <wgt id="575">3.34776e-12</wgt>
  <wgt id="576">3.34106e-12</wgt>
  <wgt id="577">3.42306e-12</wgt>
  <wgt id="578">3.45268e-12</wgt>
  <wgt id="579">3.42221e-12</wgt>
  <wgt id="580">3.42598e-12</wgt>
  <wgt id="581">3.57981e-12</wgt>
  <wgt id="582">3.33353e-12</wgt>
  <wgt id="583">3.38752e-12</wgt>
  <wgt id="584">3.35274e-12</wgt>
  <wgt id="585">3.36307e-12</wgt>
  <wgt id="586">3.27047e-12</wgt>
  <wgt id="587">3.40239e-12</wgt>
  <wgt id="588">3.33732e-12</wgt>
  <wgt id="589">3.43444e-12</wgt>
  <wgt id="590">3.40558e-12</wgt>
  <wgt id="591">3.46979e-12</wgt>
  <wgt id="592">3.2598e-12</wgt>
  <wgt id="593">3.33276e-12</wgt>
  <wgt id="594">3.42533e-12</wgt>
  <wgt id="595">3.34414e-12</wgt>
  <wgt id="596">3.37521e-12</wgt>
  <wgt id="597">3.26169e-12</wgt>
  <wgt id="598">3.22012e-12</wgt>
  <wgt id="599">3.53028e-12</wgt>
  <wgt id="600">3.31794e-12</wgt>
  <wgt id="601">3.25398e-12</wgt>
  <wgt id="602">3.26757e-12</wgt>
  <wgt id="603">3.27032e-12</wgt>
  <wgt id="604">3.40151e-12</wgt>
  <wgt id="605">3.48165e-12</wgt>
  <wgt id="606">3.28224e-12</wgt>
  <wgt id="607">3.31236e-12</wgt>
  <wgt id="608">3.39602e-12</wgt>
  <wgt id="609">3.17707e-12</wgt>
  <wgt id="610">3.22473e-12</wgt>
  <wgt id="611">3.36469e-12</wgt>
  <wgt id="612">3.56926e-12</wgt>
  <wgt id="613">3.33021e-12</wgt>
  <wgt id="614">3.39337e-12</wgt>
  <wgt id="615">3.28098e-12</wgt>
  <wgt id="616">3.51292e-12</wgt>
  <wgt id="617">3.47934e-12</wgt>
  <wgt id="618">3.45481e-12</wgt>
  <wgt id="619">3.29593e-12</wgt>
  <wgt id="620">3.51177e-12</wgt>
  <wgt id="621">3.39074e-12</wgt>
  <wgt id="622">3.40239e-12</wgt>
  <wgt id="623">3.44933e-12</wgt>
  <wgt id="624">3.34483e-12</wgt>
  <wgt id="625">3.30547e-12</wgt>
  <wgt id="626">3.25355e-12</wgt>
  <wgt id="627">3.20318e-12</wgt>
  <wgt id="628">3.54741e-12</wgt>
  <wgt id="629">3.26911e-12</wgt>
  <wgt id="630">3.20696e-12</wgt>
  <wgt id="631">3.37473e-12</wgt>
  <wgt id="632">3.21272e-12</wgt>
  <wgt id="633">3.31456e-12</wgt>
  <wgt id="634">3.32312e-12</wgt>
  <wgt id="635">3.24871e-12</wgt>
  <wgt id="636">3.36808e-12</wgt>
  <wgt id="637">3.32426e-12</wgt>
  <wgt id="638">3.21106e-12</wgt>
  <wgt id="639">3.29505e-12</wgt>
  <wgt id="640">3.34446e-12</wgt>
  <wgt id="641">3.38068e-12</wgt>
  <wgt id="642">3.1728e-12</wgt>
  <wgt id="643">3.32194e-12</wgt>
  <wgt id="644">3.19622e-12</wgt>
  <wgt id="645">3.38492e-12</wgt>
  <wgt id="646">3.37746e-12</wgt>
  <wgt id="647">3.31308e-12</wgt>
  <wgt id="648">3.37296e-12</wgt>
  <wgt id="649">3.3985e-12</wgt>
  <wgt id="650">3.28045e-12</wgt>
  <wgt id="651">3.35748e-12</wgt>
  <wgt id="652">3.31186e-12</wgt>
  <wgt id="653">3.24857e-12</wgt>
  <wgt id="654">3.32427e-12</wgt>
  <wgt id="655">3.30329e-12</wgt>
  <wgt id="656">3.38308e-12</wgt>
  <wgt id="657">3.50166e-12</wgt>
  <wgt id="658">3.33719e-12</wgt>
  <wgt id="659">3.21009e-12</wgt>
  <wgt id="660">3.41138e-12</wgt>
  <wgt id="661">3.28773e-12</wgt>
  <wgt id="662">3.3539e-12</wgt>
  <wgt id="663">3.35457e-12</wgt>
  <wgt id="664">3.30326e-12</wgt>
  <wgt id="665">3.33825e-12</wgt>
  <wgt id="666">3.30897e-12</wgt>
  <wgt id="667">3.45424e-12</wgt>
  <wgt id="668">3.3499e-12</wgt>
  <wgt id="669">3.42617e-12</wgt>
  <wgt id="670">3.43154e-12</wgt>
  <wgt id="671">3.3312e-12</wgt>
  <wgt id="672">3.20759e-12</wgt>
  <wgt id="673">3.37092e-12</wgt>
  <wgt id="674">3.28547e-12</wgt>
  <wgt id="675">3.31355e-12</wgt>
  <wgt id="676">4.26388e-12</wgt>
  <wgt id="677">4.30491e-12</wgt>
  <wgt id="678">4.47803e-12</wgt>
  <wgt id="679">3.96065e-12</wgt>
  <wgt id="680">4.18693e-12</wgt>
  <wgt id="681">4.34108e-12</wgt>
  <wgt id="682">4.42352e-12</wgt>
  <wgt id="683">4.19053e-12</wgt>
  <wgt id="684">4.46458e-12</wgt>
  <wgt id="685">4.03996e-12</wgt>
  <wgt id="686">4.13862e-12</wgt>
  <wgt id="687">4.49034e-12</wgt>
  <wgt id="688">4.25335e-12</wgt>
  <wgt id="689">4.64082e-12</wgt>
  <wgt id="690">4.4707e-12</wgt>
  <wgt id="691">4.54473e-12</wgt>
  <wgt id="692">4.19956e-12</wgt>
  <wgt id="693">5.07129e-12</wgt>
  <wgt id="694">4.52969e-12</wgt>
  <wgt id="695">4.13252e-12</wgt>
  <wgt id="696">4.02059e-12</wgt>
  <wgt id="697">4.15494e-12</wgt>
  <wgt id="698">3.86344e-12</wgt>
  <wgt id="699">3.84393e-12</wgt>
  <wgt id="700">3.6819e-12</wgt>
  <wgt id="701">4.28291e-12</wgt>
  <wgt id="702">4.14121e-12</wgt>
  <wgt id="703">4.93952e-12</wgt>
  <wgt id="704">4.69896e-12</wgt>
  <wgt id="705">4.47523e-12</wgt>
  <wgt id="706">3.96605e-12</wgt>
  <wgt id="707">4.0855e-12</wgt>
  <wgt id="708">4.20368e-12</wgt>
  <wgt id="709">4.18528e-12</wgt>
  <wgt id="710">3.82498e-12</wgt>
  <wgt id="711">4.23032e-12</wgt>
  <wgt id="712">4.1776e-12</wgt>
  <wgt id="713">4.65108e-12</wgt>
  <wgt id="714">4.16682e-12</wgt>
  <wgt id="715">4.21853e-12</wgt>
  <wgt id="716">4.09303e-12</wgt>
  <wgt id="717">4.04207e-12</wgt>
  <wgt id="718">4.28193e-12</wgt>
  <wgt id="719">3.85e-12</wgt>
  <wgt id="720">3.99901e-12</wgt>
  <wgt id="721">3.86204e-12</wgt>
  <wgt id="722">3.73308e-12</wgt>
  <wgt id="723">4.57602e-12</wgt>
  <wgt id="724">4.48721e-12</wgt>
  <wgt id="725">4.4991e-12</wgt>
  <wgt id="726">4.30195e-12</wgt>
  <wgt id="727">4.16365e-12</wgt>
  <wgt id="728">4.14578e-12</wgt>
  <wgt id="729">3.88788e-12</wgt>
  <wgt id="730">4.65191e-12</wgt>
  <wgt id="731">4.20474e-12</wgt>
  <wgt id="732">4.71389e-12</wgt>
  <wgt id="733">4.25483e-12</wgt>
  <wgt id="734">4.37235e-12</wgt>
  <wgt id="735">4.24696e-12</wgt>
  <wgt id="736">4.16407e-12</wgt>
  <wgt id="737">4.33341e-12</wgt>
  <wgt id="738">4.01775e-12</wgt>
  <wgt id="739">4.36893e-12</wgt>
  <wgt id="740">4.76193e-12</wgt>
  <wgt id="741">3.80296e-12</wgt>
  <wgt id="742">4.19325e-12</wgt>
  <wgt id="743">4.03147e-12</wgt>
  <wgt id="744">4.17496e-12</wgt>
  <wgt id="745">4.48618e-12</wgt>
  <wgt id="746">4.57282e-12</wgt>
  <wgt id="747">3.81538e-12</wgt>
  <wgt id="748">4.21754e-12</wgt>
  <wgt id="749">4.48402e-12</wgt>
  <wgt id="750">4.38263e-12</wgt>
  <wgt id="751">4.39163e-12</wgt>
  <wgt id="752">3.88384e-12</wgt>
  <wgt id="753">4.04582e-12</wgt>
  <wgt id="754">4.50978e-12</wgt>
  <wgt id="755">4.2719e-12</wgt>
  <wgt id="756">4.29397e-12</wgt>
  <wgt id="757">3.89194e-12</wgt>
  <wgt id="758">4.29098e-12</wgt>
  <wgt id="759">4.40378e-12</wgt>
  <wgt id="760">4.2984e-12</wgt>
  <wgt id="761">4.49885e-12</wgt>
  <wgt id="762">4.54195e-12</wgt>
  <wgt id="763">4.23366e-12</wgt>
  <wgt id="764">4.4501e-12</wgt>
  <wgt id="765">4.37058e-12</wgt>
  <wgt id="766">4.26285e-12</wgt>
  <wgt id="767">4.3844e-12</wgt>
  <wgt id="768">3.99889e-12</wgt>
  <wgt id="769">4.53759e-12</wgt>
  <wgt id="770">4.12793e-12</wgt>
  <wgt id="771">5.09153e-12</wgt>
  <wgt id="772">4.02896e-12</wgt>
  <wgt id="773">4.22278e-12</wgt>
  <wgt id="774">3.74e-12</wgt>
  <wgt id="775">4.52668e-12</wgt>
  <wgt id="776">4.66827e-12</wgt>
  <wgt id="777">4.00048e-12</wgt>
  <wgt id="778">3.09062e-12</wgt>
  <wgt id="779">2.50241e-12</wgt>
  <wgt id="780">1.96243e-12</wgt>
  <wgt id="781">3.22061e-12</wgt>
  <wgt id="782">3.28958e-12</wgt>
  <wgt id="783">2.51608e-12</wgt>
  <wgt id="784">2.64723e-12</wgt>
  <wgt id="785">3.83327e-12</wgt>
  <wgt id="786">2.33458e-12</wgt>
  <wgt id="787">3.58947e-12</wgt>
  <wgt id="788">1.81411e-12</wgt>
  <wgt id="789">2.43436e-12</wgt>
  <wgt id="790">2.28886e-12</wgt>
  <wgt id="791">2.92262e-12</wgt>
  <wgt id="792">4.07675e-12</wgt>
  <wgt id="793">3.03463e-12</wgt>
  <wgt id="794">2.26441e-12</wgt>
  <wgt id="795">3.72945e-12</wgt>
  <wgt id="796">4.13494e-12</wgt>
  <wgt id="797">3.66635e-12</wgt>
  <wgt id="798">2.80064e-12</wgt>
  <wgt id="799">3.5764e-12</wgt>
  <wgt id="800">2.46728e-12</wgt>
  <wgt id="801">2.85123e-12</wgt>
  <wgt id="802">2.2716e-12</wgt>
  <wgt id="803">4.07299e-12</wgt>
  <wgt id="804">3.69619e-12</wgt>
  <wgt id="805">3.76075e-12</wgt>
  <wgt id="806">3.44143e-12</wgt>
  <wgt id="807">2.91926e-12</wgt>
  <wgt id="808">2.99396e-12</wgt>
  <wgt id="809">2.83371e-12</wgt>
  <wgt id="810">3.51173e-12</wgt>
  <wgt id="811">3.39848e-12</wgt>
  <wgt id="812">2.25112e-12</wgt>
  <wgt id="813">2.33009e-12</wgt>
  <wgt id="814">2.64482e-12</wgt>
  <wgt id="815">2.50362e-12</wgt>
  <wgt id="816">2.17935e-12</wgt>
  <wgt id="817">3.23572e-12</wgt>
  <wgt id="818">3.13077e-12</wgt>
  <wgt id="819">2.49183e-12</wgt>
  <wgt id="820">3.08568e-12</wgt>
  <wgt id="821">3.62857e-12</wgt>
  <wgt id="822">2.47282e-12</wgt>
  <wgt id="823">3.6669e-12</wgt>
  <wgt id="824">4.23103e-12</wgt>
  <wgt id="825">2.18907e-12</wgt>
  <wgt id="826">3.33809e-12</wgt>
  <wgt id="827">1.76928e-12</wgt>
  <wgt id="828">3.97972e-12</wgt>
  <wgt id="829">3.24629e-12</wgt>
  <wgt id="830">2.06845e-12</wgt>
  <wgt id="831">3.37612e-12</wgt>
  <wgt id="832">5.2309e-12</wgt>
  <wgt id="833">2.82209e-12</wgt>
  <wgt id="834">4.87736e-12</wgt>
  <wgt id="835">2.46479e-12</wgt>
  <wgt id="836">3.03232e-12</wgt>
  <wgt id="837">3.57833e-12</wgt>
  <wgt id="838">2.92387e-12</wgt>
  <wgt id="839">3.34656e-12</wgt>
  <wgt id="840">2.83942e-12</wgt>
  <wgt id="841">3.93501e-12</wgt>
  <wgt id="842">2.76084e-12</wgt>
  <wgt id="843">3.0775e-12</wgt>
  <wgt id="844">3.26765e-12</wgt>
  <wgt id="845">4.51435e-12</wgt>
  <wgt id="846">2.91008e-12</wgt>
  <wgt id="847">3.18384e-12</wgt>
  <wgt id="848">2.5811e-12</wgt>
  <wgt id="849">3.18898e-12</wgt>
  <wgt id="850">4.17216e-12</wgt>
  <wgt id="851">3.4283e-12</wgt>
  <wgt id="852">2.56327e-12</wgt>
  <wgt id="853">3.45053e-12</wgt>
  <wgt id="854">3.85e-12</wgt>
  <wgt id="855">3.68589e-12</wgt>
  <wgt id="856">2.12401e-12</wgt>
  <wgt id="857">3.06447e-12</wgt>
  <wgt id="858">3.05727e-12</wgt>
  <wgt id="859">2.8592e-12</wgt>
  <wgt id="860">3.41724e-12</wgt>
  <wgt id="861">2.64756e-12</wgt>
  <wgt id="862">3.16627e-12</wgt>
  <wgt id="863">3.32572e-12</wgt>
  <wgt id="864">3.33103e-12</wgt>
  <wgt id="865">4.6068e-12</wgt>
  <wgt id="866">5.04195e-12</wgt>
  <wgt id="867">3.19732e-12</wgt>
  <wgt id="868">3.09645e-12</wgt>
  <wgt id="869">2.31915e-12</wgt>
  <wgt id="870">2.44373e-12</wgt>
  <wgt id="871">2.36502e-12</wgt>
  <wgt id="872">3.81226e-12</wgt>
  <wgt id="873">2.49245e-12</wgt>
  <wgt id="874">3.2982e-12</wgt>
  <wgt id="875">2.65578e-12</wgt>
  <wgt id="876">3.82039e-12</wgt>
  <wgt id="877">3.62621e-12</wgt>
  <wgt id="878">2.57632e-12</wgt>
  <wgt id="879">4.26388e-12</wgt>
  <wgt id="880">4.30491e-12</wgt>
  <wgt id="881">4.47803e-12</wgt>
  <wgt id="882">3.96065e-12</wgt>
  <wgt id="883">4.18693e-12</wgt>
  <wgt id="884">4.34108e-12</wgt>
  <wgt id="885">4.42352e-12</wgt>
  <wgt id="886">4.19053e-12</wgt>
  <wgt id="887">4.46458e-12</wgt>
  <wgt id="888">4.03996e-12</wgt>
  <wgt id="889">4.13862e-12</wgt>
  <wgt id="890">4.49034e-12</wgt>
  <wgt id="891">4.25335e-12</wgt>
  <wgt id="892">4.64082e-12</wgt>
  <wgt id="893">4.4707e-12</wgt>
  <wgt id="894">4.54473e-12</wgt>
  <wgt id="895">4.19956e-12</wgt>
  <wgt id="896">5.07129e-12</wgt>
  <wgt id="897">4.52969e-12</wgt>
  <wgt id="898">4.13252e-12</wgt>
  <wgt id="899">4.02059e-12</wgt>
  <wgt id="900">4.15494e-12</wgt>
  <wgt id="901">3.86344e-12</wgt>
  <wgt id="902">3.84393e-12</wgt>
  <wgt id="903">3.6819e-12</wgt>
  <wgt id="904">4.28291e-12</wgt>
  <wgt id="905">4.14121e-12</wgt>
  <wgt id="906">4.93952e-12</wgt>
  <wgt id="907">4.69896e-12</wgt>
  <wgt id="908">4.47523e-12</wgt>
  <wgt id="909">3.96605e-12</wgt>
  <wgt id="910">4.0855e-12</wgt>
  <wgt id="911">4.20368e-12</wgt>
  <wgt id="912">4.18528e-12</wgt>
  <wgt id="913">3.82498e-12</wgt>
  <wgt id="914">4.23032e-12</wgt>
  <wgt id="915">4.1776e-12</wgt>
  <wgt id="916">4.65108e-12</wgt>
  <wgt id="917">4.16682e-12</wgt>
  <wgt id="918">4.21853e-12</wgt>
  <wgt id="919">4.09303e-12</wgt>
  <wgt id="920">4.04207e-12</wgt>
  <wgt id="921">4.28193e-12</wgt>
  <wgt id="922">3.85e-12</wgt>
  <wgt id="923">3.99901e-12</wgt>
  <wgt id="924">3.86204e-12</wgt>
  <wgt id="925">3.73308e-12</wgt>
  <wgt id="926">4.57602e-12</wgt>
  <wgt id="927">4.48721e-12</wgt>
  <wgt id="928">4.4991e-12</wgt>
  <wgt id="929">4.30195e-12</wgt>
  <wgt id="930">4.16365e-12</wgt>
  <wgt id="931">4.14578e-12</wgt>
  <wgt id="932">3.88788e-12</wgt>
  <wgt id="933">4.65191e-12</wgt>
  <wgt id="934">4.20474e-12</wgt>
  <wgt id="935">4.71389e-12</wgt>
  <wgt id="936">4.25483e-12</wgt>
  <wgt id="937">4.37235e-12</wgt>
  <wgt id="938">4.24696e-12</wgt>
  <wgt id="939">4.16407e-12</wgt>
  <wgt id="940">4.33341e-12</wgt>
  <wgt id="941">4.01775e-12</wgt>
  <wgt id="942">4.36893e-12</wgt>
  <wgt id="943">4.76193e-12</wgt>
  <wgt id="944">3.80296e-12</wgt>
  <wgt id="945">4.19325e-12</wgt>
  <wgt id="946">4.03147e-12</wgt>
  <wgt id="947">4.17496e-12</wgt>
  <wgt id="948">4.48618e-12</wgt>
  <wgt id="949">4.57282e-12</wgt>
  <wgt id="950">3.81538e-12</wgt>
  <wgt id="951">4.21754e-12</wgt>
  <wgt id="952">4.48402e-12</wgt>
  <wgt id="953">4.38263e-12</wgt>
  <wgt id="954">4.39163e-12</wgt>
  <wgt id="955">3.88384e-12</wgt>
  <wgt id="956">4.04582e-12</wgt>
  <wgt id="957">4.50978e-12</wgt>
  <wgt id="958">4.2719e-12</wgt>
  <wgt id="959">4.29397e-12</wgt>
  <wgt id="960">3.89194e-12</wgt>
  <wgt id="961">4.29098e-12</wgt>
  <wgt id="962">4.40378e-12</wgt>
  <wgt id="963">4.2984e-12</wgt>
  <wgt id="964">4.49885e-12</wgt>
  <wgt id="965">4.54195e-12</wgt>
  <wgt id="966">4.23366e-12</wgt>
  <wgt id="967">4.4501e-12</wgt>
  <wgt id="968">4.37058e-12</wgt>
  <wgt id="969">4.26285e-12</wgt>
  <wgt id="970">4.3844e-12</wgt>
  <wgt id="971">3.99889e-12</wgt>
  <wgt id="972">4.53759e-12</wgt>
  <wgt id="973">4.12793e-12</wgt>
  <wgt id="974">5.09153e-12</wgt>
  <wgt id="975">4.02896e-12</wgt>
  <wgt id="976">4.22278e-12</wgt>
  <wgt id="977">3.74e-12</wgt>
  <wgt id="978">4.52668e-12</wgt>
  <wgt id="979">4.66827e-12</wgt>
  <wgt id="980">4.25647e-12</wgt>
  <wgt id="981">4.29649e-12</wgt>
  <wgt id="982">4.13752e-12</wgt>
</rwgt>
</event>
<event>
 5   1  0.3028200E-11  0.2442047E+04  0.7818608E-02  0.7663386E-01
       21   -1    0    0  502  501  0.00000000000E+00  0.00000000000E+00  0.13146491301E+04  0.13146491301E+04  0.00000000000E+00 0. -1.
       21   -1    0    0  501  502 -0.00000000000E+00 -0.00000000000E+00 -0.11340660401E+04  0.11340660401E+04  0.00000000000E+00 0.  1.
       39    2    1    2    0    0  0.00000000000E+00  0.00000000000E+00  0.18058309002E+03  0.24487151702E+04  0.24420474467E+04 0.  0.
       25    1    3    3    0    0  0.18213748986E+03 -0.55604925193E+03  0.11575797410E+04  0.13030658819E+04  0.12500000000E+03 0.  0.
       25    1    3    3    0    0 -0.18213748986E+03  0.55604925193E+03 -0.97699665095E+03  0.11456492883E+04  0.12500000000E+03 0.  0.
<mgrwt>
<rscale>  0 0.24420474E+04</rscale>
<asrwt>0</asrwt>
<pdfrwt beam="1">  1       21 0.20225371E+00 0.24420474E+04</pdfrwt>
<pdfrwt beam="2">  1       21 0.17447170E+00 0.24420474E+04</pdfrwt>
<totfact> 0.91514977E+00</totfact>
</mgrwt>
<rwgt>
  <wgt id="1">3.0282e-12</wgt>
  <wgt id="2">2.62951e-12</wgt>
  <wgt id="3">3.52469e-12</wgt>
  <wgt id="4">3.0282e-12</wgt>
  <wgt id="5">2.62951e-12</wgt>
  <wgt id="6">3.52469e-12</wgt>
  <wgt id="7">3.0282e-12</wgt>
  <wgt id="8">2.62951e-12</wgt>
  <wgt id="9">3.52469e-12</wgt>
  <wgt id="10">3.14474e-12</wgt>
  <wgt id="11">3.14131e-12</wgt>
  <wgt id="12">3.13844e-12</wgt>
  <wgt id="13">3.13363e-12</wgt>
  <wgt id="14">3.15656e-12</wgt>
  <wgt id="15">3.14955e-12</wgt>
  <wgt id="16">3.13852e-12</wgt>
  <wgt id="17">3.14949e-12</wgt>
  <wgt id="18">3.1382e-12</wgt>
  <wgt id="19">3.15229e-12</wgt>
  <wgt id="20">3.13469e-12</wgt>
  <wgt id="21">3.12638e-12</wgt>
  <wgt id="22">3.13427e-12</wgt>
  <wgt id="23">3.11694e-12</wgt>
  <wgt id="24">3.1311e-12</wgt>
  <wgt id="25">3.13775e-12</wgt>
  <wgt id="26">3.15868e-12</wgt>
  <wgt id="27">3.14518e-12</wgt>
  <wgt id="28">3.13074e-12</wgt>
  <wgt id="29">3.14756e-12</wgt>
  <wgt id="30">3.13882e-12</wgt>
  <wgt id="31">3.1524e-12</wgt>
  <wgt id="32">3.14183e-12</wgt>
  <wgt id="33">3.15337e-12</wgt>
  <wgt id="34">3.13544e-12</wgt>
  <wgt id="35">3.14508e-12</wgt>
  <wgt id="36">3.15588e-12</wgt>
  <wgt id="37">3.13674e-12</wgt>
  <wgt id="38">3.13469e-12</wgt>
  <wgt id="39">3.17537e-12</wgt>
  <wgt id="40">3.15143e-12</wgt>
  <wgt id="41">3.14436e-12</wgt>
  <wgt id="42">3.1506e-12</wgt>
  <wgt id="43">3.14469e-12</wgt>
  <wgt id="44">3.13527e-12</wgt>
  <wgt id="45">3.15301e-12</wgt>
  <wgt id="46">3.15166e-12</wgt>
  <wgt id="47">3.13141e-12</wgt>
  <wgt id="48">3.14396e-12</wgt>
  <wgt id="49">3.15035e-12</wgt>
  <wgt id="50">3.16425e-12</wgt>
  <wgt id="51">3.16117e-12</wgt>
  <wgt id="52">3.14309e-12</wgt>
  <wgt id="53">3.11742e-12</wgt>
  <wgt id="54">3.13647e-12</wgt>
  <wgt id="55">3.14467e-12</wgt>
  <wgt id="56">3.15662e-12</wgt>
  <wgt id="57">3.1558e-12</wgt>
  <wgt id="58">3.1213e-12</wgt>
  <wgt id="59">3.13236e-12</wgt>
  <wgt id="60">3.14597e-12</wgt>
  <wgt id="61">3.13607e-12</wgt>
  <wgt id="62">3.14319e-12</wgt>
  <wgt id="63">3.1478e-12</wgt>
  <wgt id="64">3.14851e-12</wgt>
  <wgt id="65">3.14859e-12</wgt>
  <wgt id="66">3.13998e-12</wgt>
  <wgt id="67">3.13829e-12</wgt>
  <wgt id="68">3.14105e-12</wgt>
  <wgt id="69">3.14466e-12</wgt>
  <wgt id="70">3.14205e-12</wgt>
  <wgt id="71">3.1449e-12</wgt>
  <wgt id="72">3.14128e-12</wgt>
  <wgt id="73">3.14647e-12</wgt>
  <wgt id="74">3.1473e-12</wgt>
  <wgt id="75">3.14171e-12</wgt>
  <wgt id="76">3.15389e-12</wgt>
  <wgt id="77">3.14431e-12</wgt>
  <wgt id="78">3.14562e-12</wgt>
  <wgt id="79">3.15083e-12</wgt>
  <wgt id="80">3.13095e-12</wgt>
  <wgt id="81">3.14048e-12</wgt>
  <wgt id="82">3.14472e-12</wgt>
  <wgt id="83">3.13163e-12</wgt>
  <wgt id="84">3.13753e-12</wgt>
  <wgt id="85">3.13836e-12</wgt>
  <wgt id="86">3.15285e-12</wgt>
  <wgt id="87">3.12757e-12</wgt>
  <wgt id="88">3.14895e-12</wgt>
  <wgt id="89">3.14798e-12</wgt>
  <wgt id="90">3.14928e-12</wgt>
  <wgt id="91">3.14707e-12</wgt>
  <wgt id="92">3.15097e-12</wgt>
  <wgt id="93">3.14409e-12</wgt>
  <wgt id="94">3.14149e-12</wgt>
  <wgt id="95">3.14673e-12</wgt>
  <wgt id="96">3.14715e-12</wgt>
  <wgt id="97">3.14038e-12</wgt>
  <wgt id="98">3.14613e-12</wgt>
  <wgt id="99">3.14366e-12</wgt>
  <wgt id="100">3.14762e-12</wgt>
  <wgt id="101">3.14318e-12</wgt>
  <wgt id="102">3.14097e-12</wgt>
  <wgt id="103">3.14959e-12</wgt>
  <wgt id="104">3.14212e-12</wgt>
  <wgt id="105">3.14781e-12</wgt>
  <wgt id="106">3.14048e-12</wgt>
  <wgt id="107">3.15332e-12</wgt>
  <wgt id="108">3.1417e-12</wgt>
  <wgt id="109">3.14554e-12</wgt>
  <wgt id="110">3.14439e-12</wgt>
  <wgt id="111">3.17338e-12</wgt>
  <wgt id="112">3.14427e-12</wgt>
  <wgt id="113">4.27979e-12</wgt>
  <wgt id="114">4.40661e-12</wgt>
  <wgt id="115">4.34615e-12</wgt>
  <wgt id="116">6.195e-12</wgt>
  <wgt id="117">3.52963e-12</wgt>
  <wgt id="118">3.54267e-12</wgt>
  <wgt id="119">3.52238e-12</wgt>
  <wgt id="120">3.52996e-12</wgt>
  <wgt id="121">3.52948e-12</wgt>
  <wgt id="122">3.52366e-12</wgt>
  <wgt id="123">3.53803e-12</wgt>
  <wgt id="124">3.52468e-12</wgt>
  <wgt id="125">3.53295e-12</wgt>
  <wgt id="126">3.5365e-12</wgt>
  <wgt id="127">3.5251e-12</wgt>
  <wgt id="128">3.54077e-12</wgt>
  <wgt id="129">3.51869e-12</wgt>
  <wgt id="130">3.55045e-12</wgt>
  <wgt id="131">3.50834e-12</wgt>
  <wgt id="132">3.43621e-12</wgt>
  <wgt id="133">3.64051e-12</wgt>
  <wgt id="134">3.49074e-12</wgt>
  <wgt id="135">3.56012e-12</wgt>
  <wgt id="136">3.57632e-12</wgt>
  <wgt id="137">3.47328e-12</wgt>
  <wgt id="138">3.67066e-12</wgt>
  <wgt id="139">3.3938e-12</wgt>
  <wgt id="140">3.50654e-12</wgt>
  <wgt id="141">3.54768e-12</wgt>
  <wgt id="142">3.53012e-12</wgt>
  <wgt id="143">3.53503e-12</wgt>
  <wgt id="144">3.42378e-12</wgt>
  <wgt id="145">3.62859e-12</wgt>
  <wgt id="146">3.56358e-12</wgt>
  <wgt id="147">3.50268e-12</wgt>
  <wgt id="148">3.54098e-12</wgt>
  <wgt id="149">3.52889e-12</wgt>
  <wgt id="150">3.56084e-12</wgt>
  <wgt id="151">3.51505e-12</wgt>
  <wgt id="152">3.53146e-12</wgt>
  <wgt id="153">3.52908e-12</wgt>
  <wgt id="154">3.55686e-12</wgt>
  <wgt id="155">3.49701e-12</wgt>
  <wgt id="156">3.60575e-12</wgt>
  <wgt id="157">3.45136e-12</wgt>
  <wgt id="158">4.24537e-12</wgt>
  <wgt id="159">4.26312e-12</wgt>
  <wgt id="160">4.23099e-12</wgt>
  <wgt id="161">4.23411e-12</wgt>
  <wgt id="162">4.25782e-12</wgt>
  <wgt id="163">4.24059e-12</wgt>
  <wgt id="164">4.25251e-12</wgt>
  <wgt id="165">4.2469e-12</wgt>
  <wgt id="166">4.24417e-12</wgt>
  <wgt id="167">4.24228e-12</wgt>
  <wgt id="168">4.24962e-12</wgt>
  <wgt id="169">4.22742e-12</wgt>
  <wgt id="170">4.25675e-12</wgt>
  <wgt id="171">4.24044e-12</wgt>
  <wgt id="172">4.25228e-12</wgt>
  <wgt id="173">4.24472e-12</wgt>
  <wgt id="174">4.24548e-12</wgt>
  <wgt id="175">4.12316e-12</wgt>
  <wgt id="176">4.40497e-12</wgt>
  <wgt id="177">4.26903e-12</wgt>
  <wgt id="178">4.22357e-12</wgt>
  <wgt id="179">4.42921e-12</wgt>
  <wgt id="180">3.95593e-12</wgt>
  <wgt id="181">4.11794e-12</wgt>
  <wgt id="182">4.32952e-12</wgt>
  <wgt id="183">4.16757e-12</wgt>
  <wgt id="184">4.28401e-12</wgt>
  <wgt id="185">4.21033e-12</wgt>
  <wgt id="186">4.28849e-12</wgt>
  <wgt id="187">4.20657e-12</wgt>
  <wgt id="188">4.31572e-12</wgt>
  <wgt id="189">4.21715e-12</wgt>
  <wgt id="190">4.257e-12</wgt>
  <wgt id="191">4.25741e-12</wgt>
  <wgt id="192">4.23825e-12</wgt>
  <wgt id="193">4.30819e-12</wgt>
  <wgt id="194">4.21444e-12</wgt>
  <wgt id="195">4.13075e-12</wgt>
  <wgt id="196">4.44474e-12</wgt>
  <wgt id="197">4.26725e-12</wgt>
  <wgt id="198">4.24024e-12</wgt>
  <wgt id="199">4.24537e-12</wgt>
  <wgt id="200">4.28257e-12</wgt>
  <wgt id="201">4.26906e-12</wgt>
  <wgt id="202">4.25586e-12</wgt>
  <wgt id="203">4.23609e-12</wgt>
  <wgt id="204">4.22672e-12</wgt>
  <wgt id="205">4.21911e-12</wgt>
  <wgt id="206">4.10699e-12</wgt>
  <wgt id="207">4.13117e-12</wgt>
  <wgt id="208">4.08307e-12</wgt>
  <wgt id="209">4.12055e-12</wgt>
  <wgt id="210">4.097e-12</wgt>
  <wgt id="211">4.1054e-12</wgt>
  <wgt id="212">4.10835e-12</wgt>
  <wgt id="213">4.10662e-12</wgt>
  <wgt id="214">4.10755e-12</wgt>
  <wgt id="215">4.11013e-12</wgt>
  <wgt id="216">4.10461e-12</wgt>
  <wgt id="217">4.11914e-12</wgt>
  <wgt id="218">4.09752e-12</wgt>
  <wgt id="219">4.10346e-12</wgt>
  <wgt id="220">4.10912e-12</wgt>
  <wgt id="221">4.10513e-12</wgt>
  <wgt id="222">4.11106e-12</wgt>
  <wgt id="223">3.88559e-12</wgt>
  <wgt id="224">4.30887e-12</wgt>
  <wgt id="225">4.05623e-12</wgt>
  <wgt id="226">4.17076e-12</wgt>
  <wgt id="227">4.06737e-12</wgt>
  <wgt id="228">4.12437e-12</wgt>
  <wgt id="229">4.04882e-12</wgt>
  <wgt id="230">4.13593e-12</wgt>
  <wgt id="231">4.22675e-12</wgt>
  <wgt id="232">4.00863e-12</wgt>
  <wgt id="233">4.08494e-12</wgt>
  <wgt id="234">4.14177e-12</wgt>
  <wgt id="235">4.01621e-12</wgt>
  <wgt id="236">4.1897e-12</wgt>
  <wgt id="237">4.04669e-12</wgt>
  <wgt id="238">4.12759e-12</wgt>
  <wgt id="239">4.08098e-12</wgt>
  <wgt id="240">4.15384e-12</wgt>
  <wgt id="241">4.06425e-12</wgt>
  <wgt id="242">4.15877e-12</wgt>
  <wgt id="243">4.16336e-12</wgt>
  <wgt id="244">4.12582e-12</wgt>
  <wgt id="245">4.10444e-12</wgt>
  <wgt id="246">4.13638e-12</wgt>
  <wgt id="247">4.10699e-12</wgt>
  <wgt id="248">4.14288e-12</wgt>
  <wgt id="249">4.12911e-12</wgt>
  <wgt id="250">4.11653e-12</wgt>
  <wgt id="251">4.09723e-12</wgt>
  <wgt id="252">4.08839e-12</wgt>
  <wgt id="253">4.08184e-12</wgt>
  <wgt id="254">4.02527e-12</wgt>
  <wgt id="255">4.02901e-12</wgt>
  <wgt id="256">4.0209e-12</wgt>
  <wgt id="257">4.02809e-12</wgt>
  <wgt id="258">4.02301e-12</wgt>
  <wgt id="259">4.05217e-12</wgt>
  <wgt id="260">3.99916e-12</wgt>
  <wgt id="261">4.03162e-12</wgt>
  <wgt id="262">4.01749e-12</wgt>
  <wgt id="263">4.02325e-12</wgt>
  <wgt id="264">4.02745e-12</wgt>
  <wgt id="265">4.02023e-12</wgt>
  <wgt id="266">4.03499e-12</wgt>
  <wgt id="267">4.0266e-12</wgt>
  <wgt id="268">4.02329e-12</wgt>
  <wgt id="269">4.0388e-12</wgt>
  <wgt id="270">4.01601e-12</wgt>
  <wgt id="271">4.01838e-12</wgt>
  <wgt id="272">4.03288e-12</wgt>
  <wgt id="273">4.01231e-12</wgt>
  <wgt id="274">4.03496e-12</wgt>
  <wgt id="275">4.00805e-12</wgt>
  <wgt id="276">4.04292e-12</wgt>
  <wgt id="277">4.00184e-12</wgt>
  <wgt id="278">4.04664e-12</wgt>
  <wgt id="279">3.9458e-12</wgt>
  <wgt id="280">4.12466e-12</wgt>
  <wgt id="281">4.0068e-12</wgt>
  <wgt id="282">4.02615e-12</wgt>
  <wgt id="283">3.90783e-12</wgt>
  <wgt id="284">4.16978e-12</wgt>
  <wgt id="285">3.83086e-12</wgt>
  <wgt id="286">4.18611e-12</wgt>
  <wgt id="287">4.03792e-12</wgt>
  <wgt id="288">4.00884e-12</wgt>
  <wgt id="289">4.05369e-12</wgt>
  <wgt id="290">3.95881e-12</wgt>
  <wgt id="291">4.01394e-12</wgt>
  <wgt id="292">4.02776e-12</wgt>
  <wgt id="293">3.9937e-12</wgt>
  <wgt id="294">4.05636e-12</wgt>
  <wgt id="295">3.94812e-12</wgt>
  <wgt id="296">4.11918e-12</wgt>
  <wgt id="297">4.02427e-12</wgt>
  <wgt id="298">4.04118e-12</wgt>
  <wgt id="299">4.01182e-12</wgt>
  <wgt id="300">4.0601e-12</wgt>
  <wgt id="301">3.96514e-12</wgt>
  <wgt id="302">4.17342e-12</wgt>
  <wgt id="303">3.99291e-12</wgt>
  <wgt id="304">4.04366e-12</wgt>
  <wgt id="305">4.03605e-12</wgt>
  <wgt id="306">4.04041e-12</wgt>
  <wgt id="307">4.03166e-12</wgt>
  <wgt id="308">4.03941e-12</wgt>
  <wgt id="309">4.03401e-12</wgt>
  <wgt id="310">4.06416e-12</wgt>
  <wgt id="311">4.01029e-12</wgt>
  <wgt id="312">4.04169e-12</wgt>
  <wgt id="313">4.03051e-12</wgt>
  <wgt id="314">4.0344e-12</wgt>
  <wgt id="315">4.03805e-12</wgt>
  <wgt id="316">4.03138e-12</wgt>
  <wgt id="317">4.04654e-12</wgt>
  <wgt id="318">4.03934e-12</wgt>
  <wgt id="319">4.03097e-12</wgt>
  <wgt id="320">4.05039e-12</wgt>
  <wgt id="321">4.02833e-12</wgt>
  <wgt id="322">4.02733e-12</wgt>
  <wgt id="323">4.04666e-12</wgt>
  <wgt id="324">4.02554e-12</wgt>
  <wgt id="325">4.0456e-12</wgt>
  <wgt id="326">4.02247e-12</wgt>
  <wgt id="327">4.05371e-12</wgt>
  <wgt id="328">4.01533e-12</wgt>
  <wgt id="329">4.04802e-12</wgt>
  <wgt id="330">4.15775e-12</wgt>
  <wgt id="331">3.9203e-12</wgt>
  <wgt id="332">4.0208e-12</wgt>
  <wgt id="333">4.03652e-12</wgt>
  <wgt id="334">3.94396e-12</wgt>
  <wgt id="335">4.15082e-12</wgt>
  <wgt id="336">3.89491e-12</wgt>
  <wgt id="337">4.20796e-12</wgt>
  <wgt id="338">4.08135e-12</wgt>
  <wgt id="339">3.99443e-12</wgt>
  <wgt id="340">4.06328e-12</wgt>
  <wgt id="341">3.96673e-12</wgt>
  <wgt id="342">4.02813e-12</wgt>
  <wgt id="343">4.03235e-12</wgt>
  <wgt id="344">4.00771e-12</wgt>
  <wgt id="345">4.06926e-12</wgt>
  <wgt id="346">3.95615e-12</wgt>
  <wgt id="347">4.12849e-12</wgt>
  <wgt id="348">4.03668e-12</wgt>
  <wgt id="349">4.04958e-12</wgt>
  <wgt id="350">4.01952e-12</wgt>
  <wgt id="351">4.07836e-12</wgt>
  <wgt id="352">3.9697e-12</wgt>
  <wgt id="353">4.19118e-12</wgt>
  <wgt id="354">3.98676e-12</wgt>
  <wgt id="355">4.0662e-12</wgt>
  <wgt id="356">4.02527e-12</wgt>
  <wgt id="357">4.05241e-12</wgt>
  <wgt id="358">4.03605e-12</wgt>
  <wgt id="359">4.03896e-12</wgt>
  <wgt id="360">4.05391e-12</wgt>
  <wgt id="361">4.0384e-12</wgt>
  <wgt id="362">4.10992e-12</wgt>
  <wgt id="363">4.09963e-12</wgt>
  <wgt id="364">4.08536e-12</wgt>
  <wgt id="365">4.07123e-12</wgt>
  <wgt id="366">4.05566e-12</wgt>
  <wgt id="367">4.02341e-12</wgt>
  <wgt id="368">4.00583e-12</wgt>
  <wgt id="369">3.98678e-12</wgt>
  <wgt id="370">4.0384e-12</wgt>
  <wgt id="371">4.05667e-12</wgt>
  <wgt id="372">4.04657e-12</wgt>
  <wgt id="373">4.03172e-12</wgt>
  <wgt id="374">4.03045e-12</wgt>
  <wgt id="375">4.31752e-12</wgt>
  <wgt id="376">4.31809e-12</wgt>
  <wgt id="377">4.31671e-12</wgt>
  <wgt id="378">4.33308e-12</wgt>
  <wgt id="379">4.30177e-12</wgt>
  <wgt id="380">4.32886e-12</wgt>
  <wgt id="381">4.31283e-12</wgt>
  <wgt id="382">4.34063e-12</wgt>
  <wgt id="383">4.29447e-12</wgt>
  <wgt id="384">4.32027e-12</wgt>
  <wgt id="385">4.31478e-12</wgt>
  <wgt id="386">4.33548e-12</wgt>
  <wgt id="387">4.30955e-12</wgt>
  <wgt id="388">4.31315e-12</wgt>
  <wgt id="389">4.32247e-12</wgt>
  <wgt id="390">4.32963e-12</wgt>
  <wgt id="391">4.30462e-12</wgt>
  <wgt id="392">4.28288e-12</wgt>
  <wgt id="393">4.33702e-12</wgt>
  <wgt id="394">4.3236e-12</wgt>
  <wgt id="395">4.30894e-12</wgt>
  <wgt id="396">4.32082e-12</wgt>
  <wgt id="397">4.31513e-12</wgt>
  <wgt id="398">4.29751e-12</wgt>
  <wgt id="399">4.33679e-12</wgt>
  <wgt id="400">4.30972e-12</wgt>
  <wgt id="401">4.33474e-12</wgt>
  <wgt id="402">4.2813e-12</wgt>
  <wgt id="403">4.33356e-12</wgt>
  <wgt id="404">4.41926e-12</wgt>
  <wgt id="405">4.07245e-12</wgt>
  <wgt id="406">4.24465e-12</wgt>
  <wgt id="407">4.4756e-12</wgt>
  <wgt id="408">4.35488e-12</wgt>
  <wgt id="409">4.24591e-12</wgt>
  <wgt id="410">4.19807e-12</wgt>
  <wgt id="411">4.3728e-12</wgt>
  <wgt id="412">4.30972e-12</wgt>
  <wgt id="413">4.32907e-12</wgt>
  <wgt id="414">4.26964e-12</wgt>
  <wgt id="415">4.35447e-12</wgt>
  <wgt id="416">4.43484e-12</wgt>
  <wgt id="417">4.15539e-12</wgt>
  <wgt id="418">4.32336e-12</wgt>
  <wgt id="419">4.28617e-12</wgt>
  <wgt id="420">4.38656e-12</wgt>
  <wgt id="421">4.27727e-12</wgt>
  <wgt id="422">4.30906e-12</wgt>
  <wgt id="423">4.32216e-12</wgt>
  <wgt id="424">4.40918e-12</wgt>
  <wgt id="425">4.2595e-12</wgt>
  <wgt id="426">4.31752e-12</wgt>
  <wgt id="427">4.27766e-12</wgt>
  <wgt id="428">4.43459e-12</wgt>
  <wgt id="429">4.35795e-12</wgt>
  <wgt id="430">4.48175e-12</wgt>
  <wgt id="431">4.45699e-12</wgt>
  <wgt id="432">4.43364e-12</wgt>
  <wgt id="433">4.41089e-12</wgt>
  <wgt id="434">4.38331e-12</wgt>
  <wgt id="435">4.3261e-12</wgt>
  <wgt id="436">4.29679e-12</wgt>
  <wgt id="437">4.26885e-12</wgt>
  <wgt id="438">4.35795e-12</wgt>
  <wgt id="439">4.37238e-12</wgt>
  <wgt id="440">4.36383e-12</wgt>
  <wgt id="441">4.35362e-12</wgt>
  <wgt id="442">4.34974e-12</wgt>
  <wgt id="443">4.2152e-12</wgt>
  <wgt id="444">4.23942e-12</wgt>
  <wgt id="445">4.19534e-12</wgt>
  <wgt id="446">4.18802e-12</wgt>
  <wgt id="447">4.19888e-12</wgt>
  <wgt id="448">4.10113e-12</wgt>
  <wgt id="449">4.28137e-12</wgt>
  <wgt id="450">4.19804e-12</wgt>
  <wgt id="451">4.20817e-12</wgt>
  <wgt id="452">4.31304e-12</wgt>
  <wgt id="453">4.25784e-12</wgt>
  <wgt id="454">4.04703e-12</wgt>
  <wgt id="455">4.21946e-12</wgt>
  <wgt id="456">4.17521e-12</wgt>
  <wgt id="457">4.23367e-12</wgt>
  <wgt id="458">4.26334e-12</wgt>
  <wgt id="459">4.24336e-12</wgt>
  <wgt id="460">4.23703e-12</wgt>
  <wgt id="461">4.13526e-12</wgt>
  <wgt id="462">4.17849e-12</wgt>
  <wgt id="463">4.16889e-12</wgt>
  <wgt id="464">4.18952e-12</wgt>
  <wgt id="465">4.26142e-12</wgt>
  <wgt id="466">4.16624e-12</wgt>
  <wgt id="467">4.17239e-12</wgt>
  <wgt id="468">4.20306e-12</wgt>
  <wgt id="469">4.20214e-12</wgt>
  <wgt id="470">4.17796e-12</wgt>
  <wgt id="471">4.1767e-12</wgt>
  <wgt id="472">4.2356e-12</wgt>
  <wgt id="473">4.07218e-12</wgt>
  <wgt id="474">3.0282e-12</wgt>
  <wgt id="475">3.2211e-12</wgt>
  <wgt id="476">2.95466e-12</wgt>
  <wgt id="477">2.91132e-12</wgt>
  <wgt id="478">3.04157e-12</wgt>
  <wgt id="479">2.96443e-12</wgt>
  <wgt id="480">3.14284e-12</wgt>
  <wgt id="481">2.96569e-12</wgt>
  <wgt id="482">2.91517e-12</wgt>
  <wgt id="483">2.94621e-12</wgt>
  <wgt id="484">3.23751e-12</wgt>
  <wgt id="485">3.0293e-12</wgt>
  <wgt id="486">3.11442e-12</wgt>
  <wgt id="487">3.09668e-12</wgt>
  <wgt id="488">3.07312e-12</wgt>
  <wgt id="489">2.93516e-12</wgt>
  <wgt id="490">2.93337e-12</wgt>
  <wgt id="491">2.99256e-12</wgt>
  <wgt id="492">2.93321e-12</wgt>
  <wgt id="493">2.91345e-12</wgt>
  <wgt id="494">2.93742e-12</wgt>
  <wgt id="495">3.10228e-12</wgt>
  <wgt id="496">2.92849e-12</wgt>
  <wgt id="497">2.90661e-12</wgt>
  <wgt id="498">3.0723e-12</wgt>
  <wgt id="499">2.95116e-12</wgt>
  <wgt id="500">2.98349e-12</wgt>
  <wgt id="501">3.17178e-12</wgt>
  <wgt id="502">2.95032e-12</wgt>
  <wgt id="503">3.02718e-12</wgt>
  <wgt id="504">3.05705e-12</wgt>
  <wgt id="505">3.00181e-12</wgt>
  <wgt id="506">3.11579e-12</wgt>
  <wgt id="507">2.99977e-12</wgt>
  <wgt id="508">3.06698e-12</wgt>
  <wgt id="509">2.95721e-12</wgt>
  <wgt id="510">3.11399e-12</wgt>
  <wgt id="511">2.97112e-12</wgt>
  <wgt id="512">3.07458e-12</wgt>
  <wgt id="513">3.17342e-12</wgt>
  <wgt id="514">3.00361e-12</wgt>
  <wgt id="515">2.98465e-12</wgt>
  <wgt id="516">3.1115e-12</wgt>
  <wgt id="517">3.08916e-12</wgt>
  <wgt id="518">3.09475e-12</wgt>
  <wgt id="519">2.93628e-12</wgt>
  <wgt id="520">3.06029e-12</wgt>
  <wgt id="521">3.13294e-12</wgt>
  <wgt id="522">3.14511e-12</wgt>
  <wgt id="523">3.10872e-12</wgt>
  <wgt id="524">3.07553e-12</wgt>
  <wgt id="525">3.13097e-12</wgt>
  <wgt id="526">3.04152e-12</wgt>
  <wgt id="527">3.07253e-12</wgt>
  <wgt id="528">3.04857e-12</wgt>
  <wgt id="529">2.96927e-12</wgt>
  <wgt id="530">3.05899e-12</wgt>
  <wgt id="531">3.00016e-12</wgt>
  <wgt id="532">3.20103e-12</wgt>
  <wgt id="533">2.84485e-12</wgt>
  <wgt id="534">3.04663e-12</wgt>
  <wgt id="535">3.09828e-12</wgt>
  <wgt id="536">3.00972e-12</wgt>
  <wgt id="537">3.0406e-12</wgt>
  <wgt id="538">3.05956e-12</wgt>
  <wgt id="539">2.97489e-12</wgt>
  <wgt id="540">2.95875e-12</wgt>
  <wgt id="541">2.93867e-12</wgt>
  <wgt id="542">2.97906e-12</wgt>
  <wgt id="543">3.02478e-12</wgt>
  <wgt id="544">3.17948e-12</wgt>
  <wgt id="545">2.9915e-12</wgt>
  <wgt id="546">2.99153e-12</wgt>
  <wgt id="547">2.93352e-12</wgt>
  <wgt id="548">2.90396e-12</wgt>
  <wgt id="549">2.97252e-12</wgt>
  <wgt id="550">3.0057e-12</wgt>
  <wgt id="551">3.0545e-12</wgt>
  <wgt id="552">3.00598e-12</wgt>
  <wgt id="553">3.02119e-12</wgt>
  <wgt id="554">3.25138e-12</wgt>
  <wgt id="555">3.10188e-12</wgt>
  <wgt id="556">2.93337e-12</wgt>
  <wgt id="557">3.07784e-12</wgt>
  <wgt id="558">2.92806e-12</wgt>
  <wgt id="559">2.98864e-12</wgt>
  <wgt id="560">3.28322e-12</wgt>
  <wgt id="561">2.96953e-12</wgt>
  <wgt id="562">3.07745e-12</wgt>
  <wgt id="563">2.92948e-12</wgt>
  <wgt id="564">3.02577e-12</wgt>
  <wgt id="565">2.90558e-12</wgt>
  <wgt id="566">3.08315e-12</wgt>
  <wgt id="567">2.98528e-12</wgt>
  <wgt id="568">3.01343e-12</wgt>
  <wgt id="569">3.09648e-12</wgt>
  <wgt id="570">2.92931e-12</wgt>
  <wgt id="571">3.35887e-12</wgt>
  <wgt id="572">2.95514e-12</wgt>
  <wgt id="573">2.89162e-12</wgt>
  <wgt id="574">2.91839e-12</wgt>
  <wgt id="575">3.33947e-12</wgt>
  <wgt id="576">3.31129e-12</wgt>
  <wgt id="577">3.42337e-12</wgt>
  <wgt id="578">3.43383e-12</wgt>
  <wgt id="579">3.40043e-12</wgt>
  <wgt id="580">3.40422e-12</wgt>
  <wgt id="581">3.55707e-12</wgt>
  <wgt id="582">3.30381e-12</wgt>
  <wgt id="583">3.37792e-12</wgt>
  <wgt id="584">3.34618e-12</wgt>
  <wgt id="585">3.37028e-12</wgt>
  <wgt id="586">3.268e-12</wgt>
  <wgt id="587">3.38994e-12</wgt>
  <wgt id="588">3.31979e-12</wgt>
  <wgt id="589">3.40737e-12</wgt>
  <wgt id="590">3.40183e-12</wgt>
  <wgt id="591">3.4645e-12</wgt>
  <wgt id="592">3.27155e-12</wgt>
  <wgt id="593">3.32711e-12</wgt>
  <wgt id="594">3.43432e-12</wgt>
  <wgt id="595">3.32638e-12</wgt>
  <wgt id="596">3.35785e-12</wgt>
  <wgt id="597">3.23948e-12</wgt>
  <wgt id="598">3.2385e-12</wgt>
  <wgt id="599">3.52524e-12</wgt>
  <wgt id="600">3.30303e-12</wgt>
  <wgt id="601">3.24727e-12</wgt>
  <wgt id="602">3.26858e-12</wgt>
  <wgt id="603">3.27429e-12</wgt>
  <wgt id="604">3.39009e-12</wgt>
  <wgt id="605">3.47608e-12</wgt>
  <wgt id="606">3.26223e-12</wgt>
  <wgt id="607">3.29509e-12</wgt>
  <wgt id="608">3.36989e-12</wgt>
  <wgt id="609">3.15818e-12</wgt>
  <wgt id="610">3.21441e-12</wgt>
  <wgt id="611">3.3707e-12</wgt>
  <wgt id="612">3.56109e-12</wgt>
  <wgt id="613">3.33275e-12</wgt>
  <wgt id="614">3.38804e-12</wgt>
  <wgt id="615">3.26878e-12</wgt>
  <wgt id="616">3.52628e-12</wgt>
  <wgt id="617">3.46674e-12</wgt>
  <wgt id="618">3.40287e-12</wgt>
  <wgt id="619">3.29601e-12</wgt>
  <wgt id="620">3.49447e-12</wgt>
  <wgt id="621">3.39015e-12</wgt>
  <wgt id="622">3.38994e-12</wgt>
  <wgt id="623">3.43996e-12</wgt>
  <wgt id="624">3.33016e-12</wgt>
  <wgt id="625">3.30327e-12</wgt>
  <wgt id="626">3.25876e-12</wgt>
  <wgt id="627">3.20662e-12</wgt>
  <wgt id="628">3.54304e-12</wgt>
  <wgt id="629">3.25822e-12</wgt>
  <wgt id="630">3.20434e-12</wgt>
  <wgt id="631">3.35922e-12</wgt>
  <wgt id="632">3.22205e-12</wgt>
  <wgt id="633">3.30263e-12</wgt>
  <wgt id="634">3.3298e-12</wgt>
  <wgt id="635">3.2672e-12</wgt>
  <wgt id="636">3.35726e-12</wgt>
  <wgt id="637">3.32078e-12</wgt>
  <wgt id="638">3.20662e-12</wgt>
  <wgt id="639">3.2932e-12</wgt>
  <wgt id="640">3.34043e-12</wgt>
  <wgt id="641">3.36017e-12</wgt>
  <wgt id="642">3.17227e-12</wgt>
  <wgt id="643">3.31846e-12</wgt>
  <wgt id="644">3.21283e-12</wgt>
  <wgt id="645">3.37473e-12</wgt>
  <wgt id="646">3.38856e-12</wgt>
  <wgt id="647">3.29926e-12</wgt>
  <wgt id="648">3.35697e-12</wgt>
  <wgt id="649">3.39241e-12</wgt>
  <wgt id="650">3.27912e-12</wgt>
  <wgt id="651">3.34387e-12</wgt>
  <wgt id="652">3.31448e-12</wgt>
  <wgt id="653">3.24436e-12</wgt>
  <wgt id="654">3.32187e-12</wgt>
  <wgt id="655">3.29099e-12</wgt>
  <wgt id="656">3.36866e-12</wgt>
  <wgt id="657">3.46636e-12</wgt>
  <wgt id="658">3.34207e-12</wgt>
  <wgt id="659">3.20587e-12</wgt>
  <wgt id="660">3.40847e-12</wgt>
  <wgt id="661">3.28211e-12</wgt>
  <wgt id="662">3.34591e-12</wgt>
  <wgt id="663">3.34041e-12</wgt>
  <wgt id="664">3.29033e-12</wgt>
  <wgt id="665">3.32884e-12</wgt>
  <wgt id="666">3.309e-12</wgt>
  <wgt id="667">3.44179e-12</wgt>
  <wgt id="668">3.33777e-12</wgt>
  <wgt id="669">3.42083e-12</wgt>
  <wgt id="670">3.40914e-12</wgt>
  <wgt id="671">3.31326e-12</wgt>
  <wgt id="672">3.19999e-12</wgt>
  <wgt id="673">3.34796e-12</wgt>
  <wgt id="674">3.27809e-12</wgt>
  <wgt id="675">3.29941e-12</wgt>
  <wgt id="676">4.22604e-12</wgt>
  <wgt id="677">4.27013e-12</wgt>
  <wgt id="678">4.42647e-12</wgt>
  <wgt id="679">3.93736e-12</wgt>
  <wgt id="680">4.12827e-12</wgt>
  <wgt id="681">4.32024e-12</wgt>
  <wgt id="682">4.36252e-12</wgt>
  <wgt id="683">4.16858e-12</wgt>
  <wgt id="684">4.42182e-12</wgt>
  <wgt id="685">3.99389e-12</wgt>
  <wgt id="686">4.13852e-12</wgt>
  <wgt id="687">4.44464e-12</wgt>
  <wgt id="688">4.22461e-12</wgt>
  <wgt id="689">4.59385e-12</wgt>
  <wgt id="690">4.44339e-12</wgt>
  <wgt id="691">4.50607e-12</wgt>
  <wgt id="692">4.17352e-12</wgt>
  <wgt id="693">4.96936e-12</wgt>
  <wgt id="694">4.47687e-12</wgt>
  <wgt id="695">4.09778e-12</wgt>
  <wgt id="696">3.98738e-12</wgt>
  <wgt id="697">4.13014e-12</wgt>
  <wgt id="698">3.8733e-12</wgt>
  <wgt id="699">3.84563e-12</wgt>
  <wgt id="700">3.67232e-12</wgt>
  <wgt id="701">4.24408e-12</wgt>
  <wgt id="702">4.08479e-12</wgt>
  <wgt id="703">4.85894e-12</wgt>
  <wgt id="704">4.62201e-12</wgt>
  <wgt id="705">4.40563e-12</wgt>
  <wgt id="706">3.92961e-12</wgt>
  <wgt id="707">4.05648e-12</wgt>
  <wgt id="708">4.17164e-12</wgt>
  <wgt id="709">4.15208e-12</wgt>
  <wgt id="710">3.78737e-12</wgt>
  <wgt id="711">4.1959e-12</wgt>
  <wgt id="712">4.15605e-12</wgt>
  <wgt id="713">4.59408e-12</wgt>
  <wgt id="714">4.16015e-12</wgt>
  <wgt id="715">4.18747e-12</wgt>
  <wgt id="716">4.05774e-12</wgt>
  <wgt id="717">4.03344e-12</wgt>
  <wgt id="718">4.21886e-12</wgt>
  <wgt id="719">3.82897e-12</wgt>
  <wgt id="720">3.96087e-12</wgt>
  <wgt id="721">3.88195e-12</wgt>
  <wgt id="722">3.74157e-12</wgt>
  <wgt id="723">4.51217e-12</wgt>
  <wgt id="724">4.42974e-12</wgt>
  <wgt id="725">4.46295e-12</wgt>
  <wgt id="726">4.26894e-12</wgt>
  <wgt id="727">4.12333e-12</wgt>
  <wgt id="728">4.12929e-12</wgt>
  <wgt id="729">3.81887e-12</wgt>
  <wgt id="730">4.58162e-12</wgt>
  <wgt id="731">4.17364e-12</wgt>
  <wgt id="732">4.64626e-12</wgt>
  <wgt id="733">4.23281e-12</wgt>
  <wgt id="734">4.33052e-12</wgt>
  <wgt id="735">4.20229e-12</wgt>
  <wgt id="736">4.1455e-12</wgt>
  <wgt id="737">4.30159e-12</wgt>
  <wgt id="738">3.99727e-12</wgt>
  <wgt id="739">4.28935e-12</wgt>
  <wgt id="740">4.69887e-12</wgt>
  <wgt id="741">3.75291e-12</wgt>
  <wgt id="742">4.15471e-12</wgt>
  <wgt id="743">4.02602e-12</wgt>
  <wgt id="744">4.13913e-12</wgt>
  <wgt id="745">4.42719e-12</wgt>
  <wgt id="746">4.50261e-12</wgt>
  <wgt id="747">3.8207e-12</wgt>
  <wgt id="748">4.17872e-12</wgt>
  <wgt id="749">4.4522e-12</wgt>
  <wgt id="750">4.29319e-12</wgt>
  <wgt id="751">4.36467e-12</wgt>
  <wgt id="752">3.86391e-12</wgt>
  <wgt id="753">4.02612e-12</wgt>
  <wgt id="754">4.45135e-12</wgt>
  <wgt id="755">4.24192e-12</wgt>
  <wgt id="756">4.26168e-12</wgt>
  <wgt id="757">3.88094e-12</wgt>
  <wgt id="758">4.26583e-12</wgt>
  <wgt id="759">4.30841e-12</wgt>
  <wgt id="760">4.27777e-12</wgt>
  <wgt id="761">4.44997e-12</wgt>
  <wgt id="762">4.48452e-12</wgt>
  <wgt id="763">4.20341e-12</wgt>
  <wgt id="764">4.39945e-12</wgt>
  <wgt id="765">4.32691e-12</wgt>
  <wgt id="766">4.22009e-12</wgt>
  <wgt id="767">4.3426e-12</wgt>
  <wgt id="768">3.9811e-12</wgt>
  <wgt id="769">4.48986e-12</wgt>
  <wgt id="770">4.09158e-12</wgt>
  <wgt id="771">5.01627e-12</wgt>
  <wgt id="772">3.98491e-12</wgt>
  <wgt id="773">4.19087e-12</wgt>
  <wgt id="774">3.75306e-12</wgt>
  <wgt id="775">4.47799e-12</wgt>
  <wgt id="776">4.6192e-12</wgt>
  <wgt id="777">4.00304e-12</wgt>
  <wgt id="778">3.09727e-12</wgt>
  <wgt id="779">2.56147e-12</wgt>
  <wgt id="780">2.05904e-12</wgt>
  <wgt id="781">3.15163e-12</wgt>
  <wgt id="782">3.28005e-12</wgt>
  <wgt id="783">2.58715e-12</wgt>
  <wgt id="784">2.69213e-12</wgt>
  <wgt id="785">3.78114e-12</wgt>
  <wgt id="786">2.37483e-12</wgt>
  <wgt id="787">3.55292e-12</wgt>
  <wgt id="788">1.9121e-12</wgt>
  <wgt id="789">2.4523e-12</wgt>
  <wgt id="790">2.33849e-12</wgt>
  <wgt id="791">2.89258e-12</wgt>
  <wgt id="792">4.04355e-12</wgt>
  <wgt id="793">3.02708e-12</wgt>
  <wgt id="794">2.33507e-12</wgt>
  <wgt id="795">3.6716e-12</wgt>
  <wgt id="796">4.10815e-12</wgt>
  <wgt id="797">3.61719e-12</wgt>
  <wgt id="798">2.84378e-12</wgt>
  <wgt id="799">3.5517e-12</wgt>
  <wgt id="800">2.48154e-12</wgt>
  <wgt id="801">2.87791e-12</wgt>
  <wgt id="802">2.34988e-12</wgt>
  <wgt id="803">3.99633e-12</wgt>
  <wgt id="804">3.64027e-12</wgt>
  <wgt id="805">3.71181e-12</wgt>
  <wgt id="806">3.47109e-12</wgt>
  <wgt id="807">2.93632e-12</wgt>
  <wgt id="808">3.0116e-12</wgt>
  <wgt id="809">2.84544e-12</wgt>
  <wgt id="810">3.53264e-12</wgt>
  <wgt id="811">3.40048e-12</wgt>
  <wgt id="812">2.31404e-12</wgt>
  <wgt id="813">2.3755e-12</wgt>
  <wgt id="814">2.66805e-12</wgt>
  <wgt id="815">2.56653e-12</wgt>
  <wgt id="816">2.22982e-12</wgt>
  <wgt id="817">3.25521e-12</wgt>
  <wgt id="818">3.07902e-12</wgt>
  <wgt id="819">2.55438e-12</wgt>
  <wgt id="820">3.10261e-12</wgt>
  <wgt id="821">3.60253e-12</wgt>
  <wgt id="822">2.53181e-12</wgt>
  <wgt id="823">3.62805e-12</wgt>
  <wgt id="824">4.19103e-12</wgt>
  <wgt id="825">2.2555e-12</wgt>
  <wgt id="826">3.29784e-12</wgt>
  <wgt id="827">1.83817e-12</wgt>
  <wgt id="828">3.98517e-12</wgt>
  <wgt id="829">3.24265e-12</wgt>
  <wgt id="830">2.1354e-12</wgt>
  <wgt id="831">3.35576e-12</wgt>
  <wgt id="832">5.16364e-12</wgt>
  <wgt id="833">2.86841e-12</wgt>
  <wgt id="834">4.80572e-12</wgt>
  <wgt id="835">2.49375e-12</wgt>
  <wgt id="836">3.07581e-12</wgt>
  <wgt id="837">3.55528e-12</wgt>
  <wgt id="838">2.95717e-12</wgt>
  <wgt id="839">3.33012e-12</wgt>
  <wgt id="840">2.87748e-12</wgt>
  <wgt id="841">3.87052e-12</wgt>
  <wgt id="842">2.77885e-12</wgt>
  <wgt id="843">3.0549e-12</wgt>
  <wgt id="844">3.25352e-12</wgt>
  <wgt id="845">4.4046e-12</wgt>
  <wgt id="846">2.86215e-12</wgt>
  <wgt id="847">3.16048e-12</wgt>
  <wgt id="848">2.64866e-12</wgt>
  <wgt id="849">3.18466e-12</wgt>
  <wgt id="850">4.1009e-12</wgt>
  <wgt id="851">3.41273e-12</wgt>
  <wgt id="852">2.63868e-12</wgt>
  <wgt id="853">3.41948e-12</wgt>
  <wgt id="854">3.80734e-12</wgt>
  <wgt id="855">3.64754e-12</wgt>
  <wgt id="856">2.19524e-12</wgt>
  <wgt id="857">3.09838e-12</wgt>
  <wgt id="858">3.08777e-12</wgt>
  <wgt id="859">2.86611e-12</wgt>
  <wgt id="860">3.36346e-12</wgt>
  <wgt id="861">2.6892e-12</wgt>
  <wgt id="862">3.16982e-12</wgt>
  <wgt id="863">3.30139e-12</wgt>
  <wgt id="864">3.32527e-12</wgt>
  <wgt id="865">4.52958e-12</wgt>
  <wgt id="866">4.95221e-12</wgt>
  <wgt id="867">3.18701e-12</wgt>
  <wgt id="868">3.08932e-12</wgt>
  <wgt id="869">2.3767e-12</wgt>
  <wgt id="870">2.49703e-12</wgt>
  <wgt id="871">2.41989e-12</wgt>
  <wgt id="872">3.74809e-12</wgt>
  <wgt id="873">2.51324e-12</wgt>
  <wgt id="874">3.28185e-12</wgt>
  <wgt id="875">2.68219e-12</wgt>
  <wgt id="876">3.7632e-12</wgt>
  <wgt id="877">3.60278e-12</wgt>
  <wgt id="878">2.62796e-12</wgt>
  <wgt id="879">4.22604e-12</wgt>
  <wgt id="880">4.27013e-12</wgt>
  <wgt id="881">4.42647e-12</wgt>
  <wgt id="882">3.93736e-12</wgt>
  <wgt id="883">4.12827e-12</wgt>
  <wgt id="884">4.32024e-12</wgt>
  <wgt id="885">4.36252e-12</wgt>
  <wgt id="886">4.16858e-12</wgt>
  <wgt id="887">4.42182e-12</wgt>
  <wgt id="888">3.99389e-12</wgt>
  <wgt id="889">4.13852e-12</wgt>
  <wgt id="890">4.44464e-12</wgt>
  <wgt id="891">4.22461e-12</wgt>
  <wgt id="892">4.59385e-12</wgt>
  <wgt id="893">4.44339e-12</wgt>
  <wgt id="894">4.50607e-12</wgt>
  <wgt id="895">4.17352e-12</wgt>
  <wgt id="896">4.96936e-12</wgt>
  <wgt id="897">4.47687e-12</wgt>
  <wgt id="898">4.09778e-12</wgt>
  <wgt id="899">3.98738e-12</wgt>
  <wgt id="900">4.13014e-12</wgt>
  <wgt id="901">3.8733e-12</wgt>
  <wgt id="902">3.84563e-12</wgt>
  <wgt id="903">3.67232e-12</wgt>
  <wgt id="904">4.24408e-12</wgt>
  <wgt id="905">4.08479e-12</wgt>
  <wgt id="906">4.85894e-12</wgt>
  <wgt id="907">4.62201e-12</wgt>
  <wgt id="908">4.40563e-12</wgt>
  <wgt id="909">3.92961e-12</wgt>
  <wgt id="910">4.05648e-12</wgt>
  <wgt id="911">4.17164e-12</wgt>
  <wgt id="912">4.15208e-12</wgt>
  <wgt id="913">3.78737e-12</wgt>
  <wgt id="914">4.1959e-12</wgt>
  <wgt id="915">4.15605e-12</wgt>
  <wgt id="916">4.59408e-12</wgt>
  <wgt id="917">4.16015e-12</wgt>
  <wgt id="918">4.18747e-12</wgt>
  <wgt id="919">4.05774e-12</wgt>
  <wgt id="920">4.03344e-12</wgt>
  <wgt id="921">4.21886e-12</wgt>
  <wgt id="922">3.82897e-12</wgt>
  <wgt id="923">3.96087e-12</wgt>
  <wgt id="924">3.88195e-12</wgt>
  <wgt id="925">3.74157e-12</wgt>
  <wgt id="926">4.51217e-12</wgt>
  <wgt id="927">4.42974e-12</wgt>
  <wgt id="928">4.46295e-12</wgt>
  <wgt id="929">4.26894e-12</wgt>
  <wgt id="930">4.12333e-12</wgt>
  <wgt id="931">4.12929e-12</wgt>
  <wgt id="932">3.81887e-12</wgt>
  <wgt id="933">4.58162e-12</wgt>
  <wgt id="934">4.17364e-12</wgt>
  <wgt id="935">4.64626e-12</wgt>
  <wgt id="936">4.23281e-12</wgt>
  <wgt id="937">4.33052e-12</wgt>
  <wgt id="938">4.20229e-12</wgt>
  <wgt id="939">4.1455e-12</wgt>
  <wgt id="940">4.30159e-12</wgt>
  <wgt id="941">3.99727e-12</wgt>
  <wgt id="942">4.28935e-12</wgt>
  <wgt id="943">4.69887e-12</wgt>
  <wgt id="944">3.75291e-12</wgt>
  <wgt id="945">4.15471e-12</wgt>
  <wgt id="946">4.02602e-12</wgt>
  <wgt id="947">4.13913e-12</wgt>
  <wgt id="948">4.42719e-12</wgt>
  <wgt id="949">4.50261e-12</wgt>
  <wgt id="950">3.8207e-12</wgt>
  <wgt id="951">4.17872e-12</wgt>
  <wgt id="952">4.4522e-12</wgt>
  <wgt id="953">4.29319e-12</wgt>
  <wgt id="954">4.36467e-12</wgt>
  <wgt id="955">3.86391e-12</wgt>
  <wgt id="956">4.02612e-12</wgt>
  <wgt id="957">4.45135e-12</wgt>
  <wgt id="958">4.24192e-12</wgt>
  <wgt id="959">4.26168e-12</wgt>
  <wgt id="960">3.88094e-12</wgt>
  <wgt id="961">4.26583e-12</wgt>
  <wgt id="962">4.30841e-12</wgt>
  <wgt id="963">4.27777e-12</wgt>
  <wgt id="964">4.44997e-12</wgt>
  <wgt id="965">4.48452e-12</wgt>
  <wgt id="966">4.20341e-12</wgt>
  <wgt id="967">4.39945e-12</wgt>
  <wgt id="968">4.32691e-12</wgt>
  <wgt id="969">4.22009e-12</wgt>
  <wgt id="970">4.3426e-12</wgt>
  <wgt id="971">3.9811e-12</wgt>
  <wgt id="972">4.48986e-12</wgt>
  <wgt id="973">4.09158e-12</wgt>
  <wgt id="974">5.01627e-12</wgt>
  <wgt id="975">3.98491e-12</wgt>
  <wgt id="976">4.19087e-12</wgt>
  <wgt id="977">3.75306e-12</wgt>
  <wgt id="978">4.47799e-12</wgt>
  <wgt id="979">4.6192e-12</wgt>
  <wgt id="980">4.22318e-12</wgt>
  <wgt id="981">4.25327e-12</wgt>
  <wgt id="982">4.10377e-12</wgt>
</rwgt>
</event>
<event>
 5   1  0.3028200E-11  0.2552455E+04  0.7818608E-02  0.7627765E-01
       21   -1    0    0  502  501  0.00000000000E+00  0.00000000000E+00  0.14263186740E+04  0.14263186740E+04  0.00000000000E+00 0. -1.
       21   -1    0    0  501  502 -0.00000000000E+00 -0.00000000000E+00 -0.11419303578E+04  0.11419303578E+04  0.00000000000E+00 0.  1.
       39    2    1    2    0    0  0.00000000000E+00  0.00000000000E+00  0.28438831617E+03  0.25682490318E+04  0.25524549702E+04 0.  0.
       25    1    3    3    0    0  0.12004737654E+04  0.37723819931E+03  0.31555559414E+03  0.13033212395E+04  0.12500000000E+03 0.  0.
       25    1    3    3    0    0 -0.12004737654E+04 -0.37723819931E+03 -0.31167277974E+02  0.12649277923E+04  0.12500000000E+03 0.  0.
<mgrwt>
<rscale>  0 0.25524550E+04</rscale>
<asrwt>0</asrwt>
<pdfrwt beam="1">  1       21 0.21943364E+00 0.25524550E+04</pdfrwt>
<pdfrwt beam="2">  1       21 0.17568159E+00 0.25524550E+04</pdfrwt>
<totfact> 0.65698524E+00</totfact>
</mgrwt>
<rwgt>
  <wgt id="1">3.0282e-12</wgt>
  <wgt id="2">2.62288e-12</wgt>
  <wgt id="3">3.53441e-12</wgt>
  <wgt id="4">3.0282e-12</wgt>
  <wgt id="5">2.62288e-12</wgt>
  <wgt id="6">3.53441e-12</wgt>
  <wgt id="7">3.0282e-12</wgt>
  <wgt id="8">2.62288e-12</wgt>
  <wgt id="9">3.53441e-12</wgt>
  <wgt id="10">3.16062e-12</wgt>
  <wgt id="11">3.15736e-12</wgt>
  <wgt id="12">3.15428e-12</wgt>
  <wgt id="13">3.14955e-12</wgt>
  <wgt id="14">3.17269e-12</wgt>
  <wgt id="15">3.1657e-12</wgt>
  <wgt id="16">3.15496e-12</wgt>
  <wgt id="17">3.16612e-12</wgt>
  <wgt id="18">3.15309e-12</wgt>
  <wgt id="19">3.16871e-12</wgt>
  <wgt id="20">3.15084e-12</wgt>
  <wgt id="21">3.14048e-12</wgt>
  <wgt id="22">3.14833e-12</wgt>
  <wgt id="23">3.13073e-12</wgt>
  <wgt id="24">3.14612e-12</wgt>
  <wgt id="25">3.15348e-12</wgt>
  <wgt id="26">3.17429e-12</wgt>
  <wgt id="27">3.1609e-12</wgt>
  <wgt id="28">3.14654e-12</wgt>
  <wgt id="29">3.1631e-12</wgt>
  <wgt id="30">3.1538e-12</wgt>
  <wgt id="31">3.16908e-12</wgt>
  <wgt id="32">3.15804e-12</wgt>
  <wgt id="33">3.16983e-12</wgt>
  <wgt id="34">3.15015e-12</wgt>
  <wgt id="35">3.16129e-12</wgt>
  <wgt id="36">3.17368e-12</wgt>
  <wgt id="37">3.15241e-12</wgt>
  <wgt id="38">3.14947e-12</wgt>
  <wgt id="39">3.19284e-12</wgt>
  <wgt id="40">3.16614e-12</wgt>
  <wgt id="41">3.16009e-12</wgt>
  <wgt id="42">3.16436e-12</wgt>
  <wgt id="43">3.15908e-12</wgt>
  <wgt id="44">3.15394e-12</wgt>
  <wgt id="45">3.17026e-12</wgt>
  <wgt id="46">3.16762e-12</wgt>
  <wgt id="47">3.15009e-12</wgt>
  <wgt id="48">3.15992e-12</wgt>
  <wgt id="49">3.16081e-12</wgt>
  <wgt id="50">3.17632e-12</wgt>
  <wgt id="51">3.17567e-12</wgt>
  <wgt id="52">3.16458e-12</wgt>
  <wgt id="53">3.13249e-12</wgt>
  <wgt id="54">3.15275e-12</wgt>
  <wgt id="55">3.16088e-12</wgt>
  <wgt id="56">3.17349e-12</wgt>
  <wgt id="57">3.17061e-12</wgt>
  <wgt id="58">3.13814e-12</wgt>
  <wgt id="59">3.14826e-12</wgt>
  <wgt id="60">3.16185e-12</wgt>
  <wgt id="61">3.14729e-12</wgt>
  <wgt id="62">3.15665e-12</wgt>
  <wgt id="63">3.16166e-12</wgt>
  <wgt id="64">3.16382e-12</wgt>
  <wgt id="65">3.16497e-12</wgt>
  <wgt id="66">3.15555e-12</wgt>
  <wgt id="67">3.15081e-12</wgt>
  <wgt id="68">3.15714e-12</wgt>
  <wgt id="69">3.1611e-12</wgt>
  <wgt id="70">3.15841e-12</wgt>
  <wgt id="71">3.16113e-12</wgt>
  <wgt id="72">3.15584e-12</wgt>
  <wgt id="73">3.16275e-12</wgt>
  <wgt id="74">3.16349e-12</wgt>
  <wgt id="75">3.15621e-12</wgt>
  <wgt id="76">3.1705e-12</wgt>
  <wgt id="77">3.15989e-12</wgt>
  <wgt id="78">3.16093e-12</wgt>
  <wgt id="79">3.16791e-12</wgt>
  <wgt id="80">3.14586e-12</wgt>
  <wgt id="81">3.15684e-12</wgt>
  <wgt id="82">3.16063e-12</wgt>
  <wgt id="83">3.14629e-12</wgt>
  <wgt id="84">3.15359e-12</wgt>
  <wgt id="85">3.153e-12</wgt>
  <wgt id="86">3.17048e-12</wgt>
  <wgt id="87">3.14128e-12</wgt>
  <wgt id="88">3.16514e-12</wgt>
  <wgt id="89">3.16399e-12</wgt>
  <wgt id="90">3.16663e-12</wgt>
  <wgt id="91">3.16347e-12</wgt>
  <wgt id="92">3.16755e-12</wgt>
  <wgt id="93">3.16071e-12</wgt>
  <wgt id="94">3.15693e-12</wgt>
  <wgt id="95">3.16403e-12</wgt>
  <wgt id="96">3.16348e-12</wgt>
  <wgt id="97">3.15508e-12</wgt>
  <wgt id="98">3.16209e-12</wgt>
  <wgt id="99">3.15803e-12</wgt>
  <wgt id="100">3.16407e-12</wgt>
  <wgt id="101">3.15952e-12</wgt>
  <wgt id="102">3.1568e-12</wgt>
  <wgt id="103">3.16597e-12</wgt>
  <wgt id="104">3.15816e-12</wgt>
  <wgt id="105">3.16458e-12</wgt>
  <wgt id="106">3.1556e-12</wgt>
  <wgt id="107">3.17039e-12</wgt>
  <wgt id="108">3.15706e-12</wgt>
  <wgt id="109">3.16127e-12</wgt>
  <wgt id="110">3.16054e-12</wgt>
  <wgt id="111">3.18493e-12</wgt>
  <wgt id="112">3.1654e-12</wgt>
  <wgt id="113">4.37477e-12</wgt>
  <wgt id="114">4.46149e-12</wgt>
  <wgt id="115">4.39848e-12</wgt>
  <wgt id="116">6.36517e-12</wgt>
  <wgt id="117">3.57413e-12</wgt>
  <wgt id="118">3.588e-12</wgt>
  <wgt id="119">3.56619e-12</wgt>
  <wgt id="120">3.57435e-12</wgt>
  <wgt id="121">3.57397e-12</wgt>
  <wgt id="122">3.56804e-12</wgt>
  <wgt id="123">3.58238e-12</wgt>
  <wgt id="124">3.56918e-12</wgt>
  <wgt id="125">3.57728e-12</wgt>
  <wgt id="126">3.58129e-12</wgt>
  <wgt id="127">3.56929e-12</wgt>
  <wgt id="128">3.58534e-12</wgt>
  <wgt id="129">3.563e-12</wgt>
  <wgt id="130">3.59523e-12</wgt>
  <wgt id="131">3.55253e-12</wgt>
  <wgt id="132">3.47712e-12</wgt>
  <wgt id="133">3.68945e-12</wgt>
  <wgt id="134">3.53353e-12</wgt>
  <wgt id="135">3.606e-12</wgt>
  <wgt id="136">3.62354e-12</wgt>
  <wgt id="137">3.51436e-12</wgt>
  <wgt id="138">3.723e-12</wgt>
  <wgt id="139">3.431e-12</wgt>
  <wgt id="140">3.55157e-12</wgt>
  <wgt id="141">3.59169e-12</wgt>
  <wgt id="142">3.57446e-12</wgt>
  <wgt id="143">3.58027e-12</wgt>
  <wgt id="144">3.45609e-12</wgt>
  <wgt id="145">3.68533e-12</wgt>
  <wgt id="146">3.61201e-12</wgt>
  <wgt id="147">3.54374e-12</wgt>
  <wgt id="148">3.58617e-12</wgt>
  <wgt id="149">3.57332e-12</wgt>
  <wgt id="150">3.60622e-12</wgt>
  <wgt id="151">3.55918e-12</wgt>
  <wgt id="152">3.57606e-12</wgt>
  <wgt id="153">3.57332e-12</wgt>
  <wgt id="154">3.59869e-12</wgt>
  <wgt id="155">3.54365e-12</wgt>
  <wgt id="156">3.66145e-12</wgt>
  <wgt id="157">3.48741e-12</wgt>
  <wgt id="158">4.29707e-12</wgt>
  <wgt id="159">4.31523e-12</wgt>
  <wgt id="160">4.28274e-12</wgt>
  <wgt id="161">4.28549e-12</wgt>
  <wgt id="162">4.31055e-12</wgt>
  <wgt id="163">4.292e-12</wgt>
  <wgt id="164">4.3049e-12</wgt>
  <wgt id="165">4.29884e-12</wgt>
  <wgt id="166">4.29598e-12</wgt>
  <wgt id="167">4.29406e-12</wgt>
  <wgt id="168">4.30167e-12</wgt>
  <wgt id="169">4.27911e-12</wgt>
  <wgt id="170">4.30858e-12</wgt>
  <wgt id="171">4.29208e-12</wgt>
  <wgt id="172">4.30442e-12</wgt>
  <wgt id="173">4.29556e-12</wgt>
  <wgt id="174">4.29771e-12</wgt>
  <wgt id="175">4.17015e-12</wgt>
  <wgt id="176">4.46352e-12</wgt>
  <wgt id="177">4.32204e-12</wgt>
  <wgt id="178">4.27455e-12</wgt>
  <wgt id="179">4.49287e-12</wgt>
  <wgt id="180">3.99072e-12</wgt>
  <wgt id="181">4.16283e-12</wgt>
  <wgt id="182">4.38603e-12</wgt>
  <wgt id="183">4.21544e-12</wgt>
  <wgt id="184">4.33795e-12</wgt>
  <wgt id="185">4.2599e-12</wgt>
  <wgt id="186">4.3437e-12</wgt>
  <wgt id="187">4.25638e-12</wgt>
  <wgt id="188">4.37087e-12</wgt>
  <wgt id="189">4.267e-12</wgt>
  <wgt id="190">4.3095e-12</wgt>
  <wgt id="191">4.30998e-12</wgt>
  <wgt id="192">4.2896e-12</wgt>
  <wgt id="193">4.36395e-12</wgt>
  <wgt id="194">4.26429e-12</wgt>
  <wgt id="195">4.16736e-12</wgt>
  <wgt id="196">4.51705e-12</wgt>
  <wgt id="197">4.32009e-12</wgt>
  <wgt id="198">4.29186e-12</wgt>
  <wgt id="199">4.29707e-12</wgt>
  <wgt id="200">4.33605e-12</wgt>
  <wgt id="201">4.32221e-12</wgt>
  <wgt id="202">4.30849e-12</wgt>
  <wgt id="203">4.28808e-12</wgt>
  <wgt id="204">4.27834e-12</wgt>
  <wgt id="205">4.27056e-12</wgt>
  <wgt id="206">4.14896e-12</wgt>
  <wgt id="207">4.17358e-12</wgt>
  <wgt id="208">4.12477e-12</wgt>
  <wgt id="209">4.1638e-12</wgt>
  <wgt id="210">4.13846e-12</wgt>
  <wgt id="211">4.14726e-12</wgt>
  <wgt id="212">4.15052e-12</wgt>
  <wgt id="213">4.14872e-12</wgt>
  <wgt id="214">4.14956e-12</wgt>
  <wgt id="215">4.15258e-12</wgt>
  <wgt id="216">4.14658e-12</wgt>
  <wgt id="217">4.16152e-12</wgt>
  <wgt id="218">4.13936e-12</wgt>
  <wgt id="219">4.14612e-12</wgt>
  <wgt id="220">4.15097e-12</wgt>
  <wgt id="221">4.14769e-12</wgt>
  <wgt id="222">4.15246e-12</wgt>
  <wgt id="223">3.9188e-12</wgt>
  <wgt id="224">4.35951e-12</wgt>
  <wgt id="225">4.09589e-12</wgt>
  <wgt id="226">4.21618e-12</wgt>
  <wgt id="227">4.10814e-12</wgt>
  <wgt id="228">4.16699e-12</wgt>
  <wgt id="229">4.08896e-12</wgt>
  <wgt id="230">4.17908e-12</wgt>
  <wgt id="231">4.27489e-12</wgt>
  <wgt id="232">4.04602e-12</wgt>
  <wgt id="233">4.12589e-12</wgt>
  <wgt id="234">4.18663e-12</wgt>
  <wgt id="235">4.04251e-12</wgt>
  <wgt id="236">4.24278e-12</wgt>
  <wgt id="237">4.08063e-12</wgt>
  <wgt id="238">4.17231e-12</wgt>
  <wgt id="239">4.1202e-12</wgt>
  <wgt id="240">4.20122e-12</wgt>
  <wgt id="241">4.10379e-12</wgt>
  <wgt id="242">4.20402e-12</wgt>
  <wgt id="243">4.21374e-12</wgt>
  <wgt id="244">4.16368e-12</wgt>
  <wgt id="245">4.14702e-12</wgt>
  <wgt id="246">4.17742e-12</wgt>
  <wgt id="247">4.14896e-12</wgt>
  <wgt id="248">4.18692e-12</wgt>
  <wgt id="249">4.17248e-12</wgt>
  <wgt id="250">4.15923e-12</wgt>
  <wgt id="251">4.13935e-12</wgt>
  <wgt id="252">4.12993e-12</wgt>
  <wgt id="253">4.12335e-12</wgt>
  <wgt id="254">4.06286e-12</wgt>
  <wgt id="255">4.06665e-12</wgt>
  <wgt id="256">4.05855e-12</wgt>
  <wgt id="257">4.06561e-12</wgt>
  <wgt id="258">4.06075e-12</wgt>
  <wgt id="259">4.09009e-12</wgt>
  <wgt id="260">4.03647e-12</wgt>
  <wgt id="261">4.07012e-12</wgt>
  <wgt id="262">4.0539e-12</wgt>
  <wgt id="263">4.06048e-12</wgt>
  <wgt id="264">4.06545e-12</wgt>
  <wgt id="265">4.05748e-12</wgt>
  <wgt id="266">4.07347e-12</wgt>
  <wgt id="267">4.06414e-12</wgt>
  <wgt id="268">4.06076e-12</wgt>
  <wgt id="269">4.07717e-12</wgt>
  <wgt id="270">4.05306e-12</wgt>
  <wgt id="271">4.05567e-12</wgt>
  <wgt id="272">4.07101e-12</wgt>
  <wgt id="273">4.0496e-12</wgt>
  <wgt id="274">4.0728e-12</wgt>
  <wgt id="275">4.04418e-12</wgt>
  <wgt id="276">4.08207e-12</wgt>
  <wgt id="277">4.03858e-12</wgt>
  <wgt id="278">4.08499e-12</wgt>
  <wgt id="279">3.98056e-12</wgt>
  <wgt id="280">4.16611e-12</wgt>
  <wgt id="281">4.04357e-12</wgt>
  <wgt id="282">4.06436e-12</wgt>
  <wgt id="283">3.93924e-12</wgt>
  <wgt id="284">4.21538e-12</wgt>
  <wgt id="285">3.85896e-12</wgt>
  <wgt id="286">4.23224e-12</wgt>
  <wgt id="287">4.07618e-12</wgt>
  <wgt id="288">4.04566e-12</wgt>
  <wgt id="289">4.09296e-12</wgt>
  <wgt id="290">3.99352e-12</wgt>
  <wgt id="291">4.05015e-12</wgt>
  <wgt id="292">4.06548e-12</wgt>
  <wgt id="293">4.02958e-12</wgt>
  <wgt id="294">4.09575e-12</wgt>
  <wgt id="295">3.98213e-12</wgt>
  <wgt id="296">4.16133e-12</wgt>
  <wgt id="297">4.06e-12</wgt>
  <wgt id="298">4.08069e-12</wgt>
  <wgt id="299">4.04875e-12</wgt>
  <wgt id="300">4.09969e-12</wgt>
  <wgt id="301">3.9938e-12</wgt>
  <wgt id="302">4.22734e-12</wgt>
  <wgt id="303">4.02644e-12</wgt>
  <wgt id="304">4.08349e-12</wgt>
  <wgt id="305">4.06677e-12</wgt>
  <wgt id="306">4.0711e-12</wgt>
  <wgt id="307">4.06221e-12</wgt>
  <wgt id="308">4.07013e-12</wgt>
  <wgt id="309">4.06474e-12</wgt>
  <wgt id="310">4.09521e-12</wgt>
  <wgt id="311">4.04063e-12</wgt>
  <wgt id="312">4.0733e-12</wgt>
  <wgt id="313">4.06015e-12</wgt>
  <wgt id="314">4.06458e-12</wgt>
  <wgt id="315">4.06895e-12</wgt>
  <wgt id="316">4.0616e-12</wgt>
  <wgt id="317">4.07809e-12</wgt>
  <wgt id="318">4.07015e-12</wgt>
  <wgt id="319">4.06116e-12</wgt>
  <wgt id="320">4.08209e-12</wgt>
  <wgt id="321">4.05837e-12</wgt>
  <wgt id="322">4.05762e-12</wgt>
  <wgt id="323">4.07748e-12</wgt>
  <wgt id="324">4.05586e-12</wgt>
  <wgt id="325">4.07642e-12</wgt>
  <wgt id="326">4.0519e-12</wgt>
  <wgt id="327">4.08598e-12</wgt>
  <wgt id="328">4.04529e-12</wgt>
  <wgt id="329">4.07886e-12</wgt>
  <wgt id="330">4.19208e-12</wgt>
  <wgt id="331">3.94771e-12</wgt>
  <wgt id="332">4.05059e-12</wgt>
  <wgt id="333">4.0676e-12</wgt>
  <wgt id="334">3.97016e-12</wgt>
  <wgt id="335">4.18719e-12</wgt>
  <wgt id="336">3.91922e-12</wgt>
  <wgt id="337">4.24729e-12</wgt>
  <wgt id="338">4.11427e-12</wgt>
  <wgt id="339">4.0231e-12</wgt>
  <wgt id="340">4.095e-12</wgt>
  <wgt id="341">3.99475e-12</wgt>
  <wgt id="342">4.05779e-12</wgt>
  <wgt id="343">4.06255e-12</wgt>
  <wgt id="344">4.03704e-12</wgt>
  <wgt id="345">4.10145e-12</wgt>
  <wgt id="346">3.98321e-12</wgt>
  <wgt id="347">4.16331e-12</wgt>
  <wgt id="348">4.0653e-12</wgt>
  <wgt id="349">4.08238e-12</wgt>
  <wgt id="350">4.04942e-12</wgt>
  <wgt id="351">4.111e-12</wgt>
  <wgt id="352">3.99125e-12</wgt>
  <wgt id="353">4.23702e-12</wgt>
  <wgt id="354">4.01175e-12</wgt>
  <wgt id="355">4.10008e-12</wgt>
  <wgt id="356">4.06286e-12</wgt>
  <wgt id="357">4.08127e-12</wgt>
  <wgt id="358">4.06677e-12</wgt>
  <wgt id="359">4.07473e-12</wgt>
  <wgt id="360">4.09859e-12</wgt>
  <wgt id="361">4.07759e-12</wgt>
  <wgt id="362">4.15328e-12</wgt>
  <wgt id="363">4.14256e-12</wgt>
  <wgt id="364">4.12679e-12</wgt>
  <wgt id="365">4.11183e-12</wgt>
  <wgt id="366">4.09555e-12</wgt>
  <wgt id="367">4.06271e-12</wgt>
  <wgt id="368">4.04434e-12</wgt>
  <wgt id="369">4.02437e-12</wgt>
  <wgt id="370">4.07759e-12</wgt>
  <wgt id="371">4.09622e-12</wgt>
  <wgt id="372">4.08604e-12</wgt>
  <wgt id="373">4.07081e-12</wgt>
  <wgt id="374">4.07059e-12</wgt>
  <wgt id="375">4.39904e-12</wgt>
  <wgt id="376">4.39968e-12</wgt>
  <wgt id="377">4.39806e-12</wgt>
  <wgt id="378">4.41521e-12</wgt>
  <wgt id="379">4.3828e-12</wgt>
  <wgt id="380">4.41057e-12</wgt>
  <wgt id="381">4.39437e-12</wgt>
  <wgt id="382">4.42346e-12</wgt>
  <wgt id="383">4.37469e-12</wgt>
  <wgt id="384">4.4019e-12</wgt>
  <wgt id="385">4.39613e-12</wgt>
  <wgt id="386">4.41805e-12</wgt>
  <wgt id="387">4.39072e-12</wgt>
  <wgt id="388">4.39445e-12</wgt>
  <wgt id="389">4.40427e-12</wgt>
  <wgt id="390">4.41164e-12</wgt>
  <wgt id="391">4.38569e-12</wgt>
  <wgt id="392">4.36127e-12</wgt>
  <wgt id="393">4.42041e-12</wgt>
  <wgt id="394">4.40508e-12</wgt>
  <wgt id="395">4.39059e-12</wgt>
  <wgt id="396">4.40364e-12</wgt>
  <wgt id="397">4.39574e-12</wgt>
  <wgt id="398">4.37839e-12</wgt>
  <wgt id="399">4.41902e-12</wgt>
  <wgt id="400">4.39088e-12</wgt>
  <wgt id="401">4.41738e-12</wgt>
  <wgt id="402">4.36027e-12</wgt>
  <wgt id="403">4.4172e-12</wgt>
  <wgt id="404">4.50842e-12</wgt>
  <wgt id="405">4.13604e-12</wgt>
  <wgt id="406">4.32066e-12</wgt>
  <wgt id="407">4.56975e-12</wgt>
  <wgt id="408">4.43934e-12</wgt>
  <wgt id="409">4.32234e-12</wgt>
  <wgt id="410">4.2712e-12</wgt>
  <wgt id="411">4.45876e-12</wgt>
  <wgt id="412">4.39053e-12</wgt>
  <wgt id="413">4.41196e-12</wgt>
  <wgt id="414">4.34786e-12</wgt>
  <wgt id="415">4.43882e-12</wgt>
  <wgt id="416">4.5272e-12</wgt>
  <wgt id="417">4.22231e-12</wgt>
  <wgt id="418">4.40534e-12</wgt>
  <wgt id="419">4.36482e-12</wgt>
  <wgt id="420">4.48007e-12</wgt>
  <wgt id="421">4.35001e-12</wgt>
  <wgt id="422">4.38639e-12</wgt>
  <wgt id="423">4.40553e-12</wgt>
  <wgt id="424">4.50282e-12</wgt>
  <wgt id="425">4.33235e-12</wgt>
  <wgt id="426">4.39904e-12</wgt>
  <wgt id="427">4.35156e-12</wgt>
  <wgt id="428">4.53343e-12</wgt>
  <wgt id="429">4.4446e-12</wgt>
  <wgt id="430">4.57659e-12</wgt>
  <wgt id="431">4.55006e-12</wgt>
  <wgt id="432">4.52529e-12</wgt>
  <wgt id="433">4.50113e-12</wgt>
  <wgt id="434">4.47162e-12</wgt>
  <wgt id="435">4.41098e-12</wgt>
  <wgt id="436">4.38002e-12</wgt>
  <wgt id="437">4.35036e-12</wgt>
  <wgt id="438">4.4446e-12</wgt>
  <wgt id="439">4.45929e-12</wgt>
  <wgt id="440">4.45066e-12</wgt>
  <wgt id="441">4.44025e-12</wgt>
  <wgt id="442">4.43659e-12</wgt>
  <wgt id="443">4.26128e-12</wgt>
  <wgt id="444">4.28937e-12</wgt>
  <wgt id="445">4.24324e-12</wgt>
  <wgt id="446">4.23255e-12</wgt>
  <wgt id="447">4.24538e-12</wgt>
  <wgt id="448">4.14171e-12</wgt>
  <wgt id="449">4.33222e-12</wgt>
  <wgt id="450">4.24877e-12</wgt>
  <wgt id="451">4.25324e-12</wgt>
  <wgt id="452">4.36551e-12</wgt>
  <wgt id="453">4.30852e-12</wgt>
  <wgt id="454">4.08354e-12</wgt>
  <wgt id="455">4.26724e-12</wgt>
  <wgt id="456">4.23817e-12</wgt>
  <wgt id="457">4.28114e-12</wgt>
  <wgt id="458">4.31367e-12</wgt>
  <wgt id="459">4.29191e-12</wgt>
  <wgt id="460">4.28709e-12</wgt>
  <wgt id="461">4.17302e-12</wgt>
  <wgt id="462">4.22147e-12</wgt>
  <wgt id="463">4.21004e-12</wgt>
  <wgt id="464">4.23325e-12</wgt>
  <wgt id="465">4.31191e-12</wgt>
  <wgt id="466">4.20584e-12</wgt>
  <wgt id="467">4.21508e-12</wgt>
  <wgt id="468">4.2484e-12</wgt>
  <wgt id="469">4.24696e-12</wgt>
  <wgt id="470">4.22021e-12</wgt>
  <wgt id="471">4.21862e-12</wgt>
  <wgt id="472">4.28385e-12</wgt>
  <wgt id="473">4.10596e-12</wgt>
  <wgt id="474">3.0282e-12</wgt>
  <wgt id="475">3.20506e-12</wgt>
  <wgt id="476">2.95394e-12</wgt>
  <wgt id="477">2.8933e-12</wgt>
  <wgt id="478">3.04213e-12</wgt>
  <wgt id="479">2.95123e-12</wgt>
  <wgt id="480">3.1555e-12</wgt>
  <wgt id="481">2.981e-12</wgt>
  <wgt id="482">2.92903e-12</wgt>
  <wgt id="483">2.94641e-12</wgt>
  <wgt id="484">3.21234e-12</wgt>
  <wgt id="485">3.01142e-12</wgt>
  <wgt id="486">3.13863e-12</wgt>
  <wgt id="487">3.09809e-12</wgt>
  <wgt id="488">3.07952e-12</wgt>
  <wgt id="489">2.92805e-12</wgt>
  <wgt id="490">2.92187e-12</wgt>
  <wgt id="491">2.99427e-12</wgt>
  <wgt id="492">2.93866e-12</wgt>
  <wgt id="493">2.90446e-12</wgt>
  <wgt id="494">2.93377e-12</wgt>
  <wgt id="495">3.10355e-12</wgt>
  <wgt id="496">2.92993e-12</wgt>
  <wgt id="497">2.89771e-12</wgt>
  <wgt id="498">3.08308e-12</wgt>
  <wgt id="499">2.95868e-12</wgt>
  <wgt id="500">2.98362e-12</wgt>
  <wgt id="501">3.17742e-12</wgt>
  <wgt id="502">2.96381e-12</wgt>
  <wgt id="503">3.03113e-12</wgt>
  <wgt id="504">3.07548e-12</wgt>
  <wgt id="505">2.9813e-12</wgt>
  <wgt id="506">3.10717e-12</wgt>
  <wgt id="507">3.00798e-12</wgt>
  <wgt id="508">3.07428e-12</wgt>
  <wgt id="509">2.91012e-12</wgt>
  <wgt id="510">3.12108e-12</wgt>
  <wgt id="511">2.9684e-12</wgt>
  <wgt id="512">3.0899e-12</wgt>
  <wgt id="513">3.18763e-12</wgt>
  <wgt id="514">3.01567e-12</wgt>
  <wgt id="515">2.98848e-12</wgt>
  <wgt id="516">3.12936e-12</wgt>
  <wgt id="517">3.08882e-12</wgt>
  <wgt id="518">3.09293e-12</wgt>
  <wgt id="519">2.92618e-12</wgt>
  <wgt id="520">3.0742e-12</wgt>
  <wgt id="521">3.12396e-12</wgt>
  <wgt id="522">3.15069e-12</wgt>
  <wgt id="523">3.09859e-12</wgt>
  <wgt id="524">3.06045e-12</wgt>
  <wgt id="525">3.14026e-12</wgt>
  <wgt id="526">3.05709e-12</wgt>
  <wgt id="527">3.06361e-12</wgt>
  <wgt id="528">3.05923e-12</wgt>
  <wgt id="529">2.96151e-12</wgt>
  <wgt id="530">3.07507e-12</wgt>
  <wgt id="531">2.99962e-12</wgt>
  <wgt id="532">3.21469e-12</wgt>
  <wgt id="533">2.85404e-12</wgt>
  <wgt id="534">3.04689e-12</wgt>
  <wgt id="535">3.09477e-12</wgt>
  <wgt id="536">2.99929e-12</wgt>
  <wgt id="537">3.03511e-12</wgt>
  <wgt id="538">3.04968e-12</wgt>
  <wgt id="539">2.98084e-12</wgt>
  <wgt id="540">2.95322e-12</wgt>
  <wgt id="541">2.91799e-12</wgt>
  <wgt id="542">2.99008e-12</wgt>
  <wgt id="543">3.02204e-12</wgt>
  <wgt id="544">3.17692e-12</wgt>
  <wgt id="545">2.9872e-12</wgt>
  <wgt id="546">2.97757e-12</wgt>
  <wgt id="547">2.93469e-12</wgt>
  <wgt id="548">2.90391e-12</wgt>
  <wgt id="549">2.96899e-12</wgt>
  <wgt id="550">2.97673e-12</wgt>
  <wgt id="551">3.05323e-12</wgt>
  <wgt id="552">2.99265e-12</wgt>
  <wgt id="553">3.01449e-12</wgt>
  <wgt id="554">3.24856e-12</wgt>
  <wgt id="555">3.09952e-12</wgt>
  <wgt id="556">2.92187e-12</wgt>
  <wgt id="557">3.08577e-12</wgt>
  <wgt id="558">2.933e-12</wgt>
  <wgt id="559">2.98243e-12</wgt>
  <wgt id="560">3.30048e-12</wgt>
  <wgt id="561">2.98139e-12</wgt>
  <wgt id="562">3.08939e-12</wgt>
  <wgt id="563">2.94096e-12</wgt>
  <wgt id="564">3.04097e-12</wgt>
  <wgt id="565">2.90449e-12</wgt>
  <wgt id="566">3.08982e-12</wgt>
  <wgt id="567">2.99064e-12</wgt>
  <wgt id="568">3.00444e-12</wgt>
  <wgt id="569">3.10961e-12</wgt>
  <wgt id="570">2.91006e-12</wgt>
  <wgt id="571">3.3647e-12</wgt>
  <wgt id="572">2.95453e-12</wgt>
  <wgt id="573">2.89655e-12</wgt>
  <wgt id="574">2.91991e-12</wgt>
  <wgt id="575">3.35191e-12</wgt>
  <wgt id="576">3.35271e-12</wgt>
  <wgt id="577">3.42214e-12</wgt>
  <wgt id="578">3.46271e-12</wgt>
  <wgt id="579">3.43252e-12</wgt>
  <wgt id="580">3.43485e-12</wgt>
  <wgt id="581">3.58975e-12</wgt>
  <wgt id="582">3.34535e-12</wgt>
  <wgt id="583">3.39273e-12</wgt>
  <wgt id="584">3.35692e-12</wgt>
  <wgt id="585">3.36437e-12</wgt>
  <wgt id="586">3.27368e-12</wgt>
  <wgt id="587">3.40897e-12</wgt>
  <wgt id="588">3.344e-12</wgt>
  <wgt id="589">3.44616e-12</wgt>
  <wgt id="590">3.40985e-12</wgt>
  <wgt id="591">3.47265e-12</wgt>
  <wgt id="592">3.25861e-12</wgt>
  <wgt id="593">3.33668e-12</wgt>
  <wgt id="594">3.42162e-12</wgt>
  <wgt id="595">3.35158e-12</wgt>
  <wgt id="596">3.37926e-12</wgt>
  <wgt id="597">3.27119e-12</wgt>
  <wgt id="598">3.21172e-12</wgt>
  <wgt id="599">3.53669e-12</wgt>
  <wgt id="600">3.32327e-12</wgt>
  <wgt id="601">3.25798e-12</wgt>
  <wgt id="602">3.2686e-12</wgt>
  <wgt id="603">3.26937e-12</wgt>
  <wgt id="604">3.4073e-12</wgt>
  <wgt id="605">3.48548e-12</wgt>
  <wgt id="606">3.28952e-12</wgt>
  <wgt id="607">3.31884e-12</wgt>
  <wgt id="608">3.40858e-12</wgt>
  <wgt id="609">3.18493e-12</wgt>
  <wgt id="610">3.22958e-12</wgt>
  <wgt id="611">3.36326e-12</wgt>
  <wgt id="612">3.56976e-12</wgt>
  <wgt id="613">3.33086e-12</wgt>
  <wgt id="614">3.39766e-12</wgt>
  <wgt id="615">3.28559e-12</wgt>
  <wgt id="616">3.50903e-12</wgt>
  <wgt id="617">3.48527e-12</wgt>
  <wgt id="618">3.47525e-12</wgt>
  <wgt id="619">3.29562e-12</wgt>
  <wgt id="620">3.52251e-12</wgt>
  <wgt id="621">3.39348e-12</wgt>
  <wgt id="622">3.40897e-12</wgt>
  <wgt id="623">3.45549e-12</wgt>
  <wgt id="624">3.35156e-12</wgt>
  <wgt id="625">3.30838e-12</wgt>
  <wgt id="626">3.25338e-12</wgt>
  <wgt id="627">3.20289e-12</wgt>
  <wgt id="628">3.55291e-12</wgt>
  <wgt id="629">3.27274e-12</wgt>
  <wgt id="630">3.20454e-12</wgt>
  <wgt id="631">3.38255e-12</wgt>
  <wgt id="632">3.21042e-12</wgt>
  <wgt id="633">3.32007e-12</wgt>
  <wgt id="634">3.32114e-12</wgt>
  <wgt id="635">3.24247e-12</wgt>
  <wgt id="636">3.37257e-12</wgt>
  <wgt id="637">3.32457e-12</wgt>
  <wgt id="638">3.21235e-12</wgt>
  <wgt id="639">3.29652e-12</wgt>
  <wgt id="640">3.34691e-12</wgt>
  <wgt id="641">3.38919e-12</wgt>
  <wgt id="642">3.16264e-12</wgt>
  <wgt id="643">3.32397e-12</wgt>
  <wgt id="644">3.19299e-12</wgt>
  <wgt id="645">3.39119e-12</wgt>
  <wgt id="646">3.37533e-12</wgt>
  <wgt id="647">3.32003e-12</wgt>
  <wgt id="648">3.37938e-12</wgt>
  <wgt id="649">3.40247e-12</wgt>
  <wgt id="650">3.28296e-12</wgt>
  <wgt id="651">3.35983e-12</wgt>
  <wgt id="652">3.31146e-12</wgt>
  <wgt id="653">3.25075e-12</wgt>
  <wgt id="654">3.32676e-12</wgt>
  <wgt id="655">3.31064e-12</wgt>
  <wgt id="656">3.39204e-12</wgt>
  <wgt id="657">3.51777e-12</wgt>
  <wgt id="658">3.33313e-12</wgt>
  <wgt id="659">3.21162e-12</wgt>
  <wgt id="660">3.41503e-12</wgt>
  <wgt id="661">3.29027e-12</wgt>
  <wgt id="662">3.36025e-12</wgt>
  <wgt id="663">3.36122e-12</wgt>
  <wgt id="664">3.30896e-12</wgt>
  <wgt id="665">3.34283e-12</wgt>
  <wgt id="666">3.30894e-12</wgt>
  <wgt id="667">3.45936e-12</wgt>
  <wgt id="668">3.35649e-12</wgt>
  <wgt id="669">3.4296e-12</wgt>
  <wgt id="670">3.44216e-12</wgt>
  <wgt id="671">3.34037e-12</wgt>
  <wgt id="672">3.21153e-12</wgt>
  <wgt id="673">3.38063e-12</wgt>
  <wgt id="674">3.29002e-12</wgt>
  <wgt id="675">3.32215e-12</wgt>
  <wgt id="676">4.28293e-12</wgt>
  <wgt id="677">4.32189e-12</wgt>
  <wgt id="678">4.50199e-12</wgt>
  <wgt id="679">3.96716e-12</wgt>
  <wgt id="680">4.21539e-12</wgt>
  <wgt id="681">4.35367e-12</wgt>
  <wgt id="682">4.45591e-12</wgt>
  <wgt id="683">4.20322e-12</wgt>
  <wgt id="684">4.48689e-12</wgt>
  <wgt id="685">4.0589e-12</wgt>
  <wgt id="686">4.13904e-12</wgt>
  <wgt id="687">4.51531e-12</wgt>
  <wgt id="688">4.27293e-12</wgt>
  <wgt id="689">4.67032e-12</wgt>
  <wgt id="690">4.48602e-12</wgt>
  <wgt id="691">4.57079e-12</wgt>
  <wgt id="692">4.2119e-12</wgt>
  <wgt id="693">5.11945e-12</wgt>
  <wgt id="694">4.55459e-12</wgt>
  <wgt id="695">4.15118e-12</wgt>
  <wgt id="696">4.03349e-12</wgt>
  <wgt id="697">4.17435e-12</wgt>
  <wgt id="698">3.86097e-12</wgt>
  <wgt id="699">3.84528e-12</wgt>
  <wgt id="700">3.68361e-12</wgt>
  <wgt id="701">4.30319e-12</wgt>
  <wgt id="702">4.16746e-12</wgt>
  <wgt id="703">4.97904e-12</wgt>
  <wgt id="704">4.73649e-12</wgt>
  <wgt id="705">4.50459e-12</wgt>
  <wgt id="706">3.98169e-12</wgt>
  <wgt id="707">4.10074e-12</wgt>
  <wgt id="708">4.22067e-12</wgt>
  <wgt id="709">4.20246e-12</wgt>
  <wgt id="710">3.84064e-12</wgt>
  <wgt id="711">4.24613e-12</wgt>
  <wgt id="712">4.19095e-12</wgt>
  <wgt id="713">4.68454e-12</wgt>
  <wgt id="714">4.17364e-12</wgt>
  <wgt id="715">4.23628e-12</wgt>
  <wgt id="716">4.10911e-12</wgt>
  <wgt id="717">4.05074e-12</wgt>
  <wgt id="718">4.31308e-12</wgt>
  <wgt id="719">3.85956e-12</wgt>
  <wgt id="720">4.01248e-12</wgt>
  <wgt id="721">3.85417e-12</wgt>
  <wgt id="722">3.73099e-12</wgt>
  <wgt id="723">4.6073e-12</wgt>
  <wgt id="724">4.51551e-12</wgt>
  <wgt id="725">4.51838e-12</wgt>
  <wgt id="726">4.31959e-12</wgt>
  <wgt id="727">4.18223e-12</wgt>
  <wgt id="728">4.15416e-12</wgt>
  <wgt id="729">3.90868e-12</wgt>
  <wgt id="730">4.68949e-12</wgt>
  <wgt id="731">4.22087e-12</wgt>
  <wgt id="732">4.74599e-12</wgt>
  <wgt id="733">4.27125e-12</wgt>
  <wgt id="734">4.39343e-12</wgt>
  <wgt id="735">4.26717e-12</wgt>
  <wgt id="736">4.17559e-12</wgt>
  <wgt id="737">4.35166e-12</wgt>
  <wgt id="738">4.02505e-12</wgt>
  <wgt id="739">4.40539e-12</wgt>
  <wgt id="740">4.79203e-12</wgt>
  <wgt id="741">3.82228e-12</wgt>
  <wgt id="742">4.21099e-12</wgt>
  <wgt id="743">4.03493e-12</wgt>
  <wgt id="744">4.19285e-12</wgt>
  <wgt id="745">4.51573e-12</wgt>
  <wgt id="746">4.60769e-12</wgt>
  <wgt id="747">3.81486e-12</wgt>
  <wgt id="748">4.2387e-12</wgt>
  <wgt id="749">4.50152e-12</wgt>
  <wgt id="750">4.42239e-12</wgt>
  <wgt id="751">4.40734e-12</wgt>
  <wgt id="752">3.89297e-12</wgt>
  <wgt id="753">4.05955e-12</wgt>
  <wgt id="754">4.54571e-12</wgt>
  <wgt id="755">4.28804e-12</wgt>
  <wgt id="756">4.31324e-12</wgt>
  <wgt id="757">3.89815e-12</wgt>
  <wgt id="758">4.3058e-12</wgt>
  <wgt id="759">4.44561e-12</wgt>
  <wgt id="760">4.31094e-12</wgt>
  <wgt id="761">4.52157e-12</wgt>
  <wgt id="762">4.57015e-12</wgt>
  <wgt id="763">4.24774e-12</wgt>
  <wgt id="764">4.4755e-12</wgt>
  <wgt id="765">4.39843e-12</wgt>
  <wgt id="766">4.28398e-12</wgt>
  <wgt id="767">4.40705e-12</wgt>
  <wgt id="768">4.00831e-12</wgt>
  <wgt id="769">4.56249e-12</wgt>
  <wgt id="770">4.14334e-12</wgt>
  <wgt id="771">5.13061e-12</wgt>
  <wgt id="772">4.04906e-12</wgt>
  <wgt id="773">4.23852e-12</wgt>
  <wgt id="774">3.73839e-12</wgt>
  <wgt id="775">4.5558e-12</wgt>
  <wgt id="776">4.69225e-12</wgt>
  <wgt id="777">4.00018e-12</wgt>
  <wgt id="778">3.08827e-12</wgt>
  <wgt id="779">2.47984e-12</wgt>
  <wgt id="780">1.92308e-12</wgt>
  <wgt id="781">3.23976e-12</wgt>
  <wgt id="782">3.29165e-12</wgt>
  <wgt id="783">2.48833e-12</wgt>
  <wgt id="784">2.62914e-12</wgt>
  <wgt id="785">3.85315e-12</wgt>
  <wgt id="786">2.31884e-12</wgt>
  <wgt id="787">3.60738e-12</wgt>
  <wgt id="788">1.7754e-12</wgt>
  <wgt id="789">2.42228e-12</wgt>
  <wgt id="790">2.26833e-12</wgt>
  <wgt id="791">2.93008e-12</wgt>
  <wgt id="792">4.09163e-12</wgt>
  <wgt id="793">3.03813e-12</wgt>
  <wgt id="794">2.23463e-12</wgt>
  <wgt id="795">3.7578e-12</wgt>
  <wgt id="796">4.15112e-12</wgt>
  <wgt id="797">3.68811e-12</wgt>
  <wgt id="798">2.78469e-12</wgt>
  <wgt id="799">3.58972e-12</wgt>
  <wgt id="800">2.45664e-12</wgt>
  <wgt id="801">2.83949e-12</wgt>
  <wgt id="802">2.23949e-12</wgt>
  <wgt id="803">4.08825e-12</wgt>
  <wgt id="804">3.72305e-12</wgt>
  <wgt id="805">3.78652e-12</wgt>
  <wgt id="806">3.4324e-12</wgt>
  <wgt id="807">2.91055e-12</wgt>
  <wgt id="808">2.98758e-12</wgt>
  <wgt id="809">2.82814e-12</wgt>
  <wgt id="810">3.50664e-12</wgt>
  <wgt id="811">3.40172e-12</wgt>
  <wgt id="812">2.22294e-12</wgt>
  <wgt id="813">2.30842e-12</wgt>
  <wgt id="814">2.643e-12</wgt>
  <wgt id="815">2.47961e-12</wgt>
  <wgt id="816">2.1541e-12</wgt>
  <wgt id="817">3.22986e-12</wgt>
  <wgt id="818">3.14903e-12</wgt>
  <wgt id="819">2.46681e-12</wgt>
  <wgt id="820">3.08027e-12</wgt>
  <wgt id="821">3.64472e-12</wgt>
  <wgt id="822">2.44499e-12</wgt>
  <wgt id="823">3.68823e-12</wgt>
  <wgt id="824">4.24999e-12</wgt>
  <wgt id="825">2.16118e-12</wgt>
  <wgt id="826">3.35604e-12</wgt>
  <wgt id="827">1.73745e-12</wgt>
  <wgt id="828">3.98078e-12</wgt>
  <wgt id="829">3.2516e-12</wgt>
  <wgt id="830">2.04023e-12</wgt>
  <wgt id="831">3.38638e-12</wgt>
  <wgt id="832">5.27044e-12</wgt>
  <wgt id="833">2.80356e-12</wgt>
  <wgt id="834">4.91232e-12</wgt>
  <wgt id="835">2.45158e-12</wgt>
  <wgt id="836">3.01726e-12</wgt>
  <wgt id="837">3.59326e-12</wgt>
  <wgt id="838">2.91364e-12</wgt>
  <wgt id="839">3.35469e-12</wgt>
  <wgt id="840">2.82345e-12</wgt>
  <wgt id="841">3.96744e-12</wgt>
  <wgt id="842">2.74872e-12</wgt>
  <wgt id="843">3.08643e-12</wgt>
  <wgt id="844">3.27581e-12</wgt>
  <wgt id="845">4.56374e-12</wgt>
  <wgt id="846">2.91789e-12</wgt>
  <wgt id="847">3.19822e-12</wgt>
  <wgt id="848">2.55423e-12</wgt>
  <wgt id="849">3.19146e-12</wgt>
  <wgt id="850">4.20781e-12</wgt>
  <wgt id="851">3.43611e-12</wgt>
  <wgt id="852">2.53676e-12</wgt>
  <wgt id="853">3.46453e-12</wgt>
  <wgt id="854">3.87049e-12</wgt>
  <wgt id="855">3.70893e-12</wgt>
  <wgt id="856">2.0951e-12</wgt>
  <wgt id="857">3.05253e-12</wgt>
  <wgt id="858">3.05161e-12</wgt>
  <wgt id="859">2.85393e-12</wgt>
  <wgt id="860">3.4404e-12</wgt>
  <wgt id="861">2.62709e-12</wgt>
  <wgt id="862">3.16732e-12</wgt>
  <wgt id="863">3.3377e-12</wgt>
  <wgt id="864">3.33934e-12</wgt>
  <wgt id="865">4.64912e-12</wgt>
  <wgt id="866">5.08936e-12</wgt>
  <wgt id="867">3.2057e-12</wgt>
  <wgt id="868">3.102e-12</wgt>
  <wgt id="869">2.2954e-12</wgt>
  <wgt id="870">2.4204e-12</wgt>
  <wgt id="871">2.34091e-12</wgt>
  <wgt id="872">3.84279e-12</wgt>
  <wgt id="873">2.4783e-12</wgt>
  <wgt id="874">3.30718e-12</wgt>
  <wgt id="875">2.64535e-12</wgt>
  <wgt id="876">3.85025e-12</wgt>
  <wgt id="877">3.64333e-12</wgt>
  <wgt id="878">2.55378e-12</wgt>
  <wgt id="879">4.28293e-12</wgt>
  <wgt id="880">4.32189e-12</wgt>
  <wgt id="881">4.50199e-12</wgt>
  <wgt id="882">3.96716e-12</wgt>
  <wgt id="883">4.21539e-12</wgt>
  <wgt id="884">4.35367e-12</wgt>
  <wgt id="885">4.45591e-12</wgt>
  <wgt id="886">4.20322e-12</wgt>
  <wgt id="887">4.48689e-12</wgt>
  <wgt id="888">4.0589e-12</wgt>
  <wgt id="889">4.13904e-12</wgt>
  <wgt id="890">4.51531e-12</wgt>
  <wgt id="891">4.27293e-12</wgt>
  <wgt id="892">4.67032e-12</wgt>
  <wgt id="893">4.48602e-12</wgt>
  <wgt id="894">4.57079e-12</wgt>
  <wgt id="895">4.2119e-12</wgt>
  <wgt id="896">5.11945e-12</wgt>
  <wgt id="897">4.55459e-12</wgt>
  <wgt id="898">4.15118e-12</wgt>
  <wgt id="899">4.03349e-12</wgt>
  <wgt id="900">4.17435e-12</wgt>
  <wgt id="901">3.86097e-12</wgt>
  <wgt id="902">3.84528e-12</wgt>
  <wgt id="903">3.68361e-12</wgt>
  <wgt id="904">4.30319e-12</wgt>
  <wgt id="905">4.16746e-12</wgt>
  <wgt id="906">4.97904e-12</wgt>
  <wgt id="907">4.73649e-12</wgt>
  <wgt id="908">4.50459e-12</wgt>
  <wgt id="909">3.98169e-12</wgt>
  <wgt id="910">4.10074e-12</wgt>
  <wgt id="911">4.22067e-12</wgt>
  <wgt id="912">4.20246e-12</wgt>
  <wgt id="913">3.84064e-12</wgt>
  <wgt id="914">4.24613e-12</wgt>
  <wgt id="915">4.19095e-12</wgt>
  <wgt id="916">4.68454e-12</wgt>
  <wgt id="917">4.17364e-12</wgt>
  <wgt id="918">4.23628e-12</wgt>
  <wgt id="919">4.10911e-12</wgt>
  <wgt id="920">4.05074e-12</wgt>
  <wgt id="921">4.31308e-12</wgt>
  <wgt id="922">3.85956e-12</wgt>
  <wgt id="923">4.01248e-12</wgt>
  <wgt id="924">3.85417e-12</wgt>
  <wgt id="925">3.73099e-12</wgt>
  <wgt id="926">4.6073e-12</wgt>
  <wgt id="927">4.51551e-12</wgt>
  <wgt id="928">4.51838e-12</wgt>
  <wgt id="929">4.31959e-12</wgt>
  <wgt id="930">4.18223e-12</wgt>
  <wgt id="931">4.15416e-12</wgt>
  <wgt id="932">3.90868e-12</wgt>
  <wgt id="933">4.68949e-12</wgt>
  <wgt id="934">4.22087e-12</wgt>
  <wgt id="935">4.74599e-12</wgt>
  <wgt id="936">4.27125e-12</wgt>
  <wgt id="937">4.39343e-12</wgt>
  <wgt id="938">4.26717e-12</wgt>
  <wgt id="939">4.17559e-12</wgt>
  <wgt id="940">4.35166e-12</wgt>
  <wgt id="941">4.02505e-12</wgt>
  <wgt id="942">4.40539e-12</wgt>
  <wgt id="943">4.79203e-12</wgt>
  <wgt id="944">3.82228e-12</wgt>
  <wgt id="945">4.21099e-12</wgt>
  <wgt id="946">4.03493e-12</wgt>
  <wgt id="947">4.19285e-12</wgt>
  <wgt id="948">4.51573e-12</wgt>
  <wgt id="949">4.60769e-12</wgt>
  <wgt id="950">3.81486e-12</wgt>
  <wgt id="951">4.2387e-12</wgt>
  <wgt id="952">4.50152e-12</wgt>
  <wgt id="953">4.42239e-12</wgt>
  <wgt id="954">4.40734e-12</wgt>
  <wgt id="955">3.89297e-12</wgt>
  <wgt id="956">4.05955e-12</wgt>
  <wgt id="957">4.54571e-12</wgt>
  <wgt id="958">4.28804e-12</wgt>
  <wgt id="959">4.31324e-12</wgt>
  <wgt id="960">3.89815e-12</wgt>
  <wgt id="961">4.3058e-12</wgt>
  <wgt id="962">4.44561e-12</wgt>
  <wgt id="963">4.31094e-12</wgt>
  <wgt id="964">4.52157e-12</wgt>
  <wgt id="965">4.57015e-12</wgt>
  <wgt id="966">4.24774e-12</wgt>
  <wgt id="967">4.4755e-12</wgt>
  <wgt id="968">4.39843e-12</wgt>
  <wgt id="969">4.28398e-12</wgt>
  <wgt id="970">4.40705e-12</wgt>
  <wgt id="971">4.00831e-12</wgt>
  <wgt id="972">4.56249e-12</wgt>
  <wgt id="973">4.14334e-12</wgt>
  <wgt id="974">5.13061e-12</wgt>
  <wgt id="975">4.04906e-12</wgt>
  <wgt id="976">4.23852e-12</wgt>
  <wgt id="977">3.73839e-12</wgt>
  <wgt id="978">4.5558e-12</wgt>
  <wgt id="979">4.69225e-12</wgt>
  <wgt id="980">4.27331e-12</wgt>
  <wgt id="981">4.31828e-12</wgt>
  <wgt id="982">4.15468e-12</wgt>
</rwgt>
</event>
<event>
 5   1  0.3028200E-11  0.2485768E+04  0.7818608E-02  0.7649050E-01
       21   -1    0    0  502  501  0.00000000000E+00  0.00000000000E+00  0.74972773443E+03  0.74972773443E+03  0.00000000000E+00 0. -1.
       21   -1    0    0  501  502 -0.00000000000E+00 -0.00000000000E+00 -0.20604286566E+04  0.20604286566E+04  0.00000000000E+00 0.  1.
       39    2    1    2    0    0  0.00000000000E+00  0.00000000000E+00 -0.13107009222E+04  0.28101563910E+04  0.24857678964E+04 0.  0.
       25    1    3    3    0    0 -0.94065573226E+02  0.11105630802E+04 -0.12609186548E+04  0.16875246787E+04  0.12500000000E+03 0.  0.
       25    1    3    3    0    0  0.94065573226E+02 -0.11105630802E+04 -0.49782267316E+02  0.11226317123E+04  0.12500000000E+03 0.  0.
<mgrwt>
<rscale>  0 0.24857679E+04</rscale>
<asrwt>0</asrwt>
<pdfrwt beam="1">  1       21 0.11534273E+00 0.24857679E+04</pdfrwt>
<pdfrwt beam="2">  1       21 0.31698902E+00 0.24857679E+04</pdfrwt>
<totfact> 0.51160726E+00</totfact>
</mgrwt>
<rwgt>
  <wgt id="1">3.0282e-12</wgt>
  <wgt id="2">2.6094e-12</wgt>
  <wgt id="3">3.55403e-12</wgt>
  <wgt id="4">3.0282e-12</wgt>
  <wgt id="5">2.6094e-12</wgt>
  <wgt id="6">3.55403e-12</wgt>
  <wgt id="7">3.0282e-12</wgt>
  <wgt id="8">2.6094e-12</wgt>
  <wgt id="9">3.55403e-12</wgt>
  <wgt id="10">3.19694e-12</wgt>
  <wgt id="11">3.19565e-12</wgt>
  <wgt id="12">3.18919e-12</wgt>
  <wgt id="13">3.18968e-12</wgt>
  <wgt id="14">3.20751e-12</wgt>
  <wgt id="15">3.20225e-12</wgt>
  <wgt id="16">3.1893e-12</wgt>
  <wgt id="17">3.21338e-12</wgt>
  <wgt id="18">3.19361e-12</wgt>
  <wgt id="19">3.20963e-12</wgt>
  <wgt id="20">3.19482e-12</wgt>
  <wgt id="21">3.1713e-12</wgt>
  <wgt id="22">3.17435e-12</wgt>
  <wgt id="23">3.14819e-12</wgt>
  <wgt id="24">3.17256e-12</wgt>
  <wgt id="25">3.18452e-12</wgt>
  <wgt id="26">3.20644e-12</wgt>
  <wgt id="27">3.19094e-12</wgt>
  <wgt id="28">3.17621e-12</wgt>
  <wgt id="29">3.19813e-12</wgt>
  <wgt id="30">3.17145e-12</wgt>
  <wgt id="31">3.2114e-12</wgt>
  <wgt id="32">3.17359e-12</wgt>
  <wgt id="33">3.20165e-12</wgt>
  <wgt id="34">3.17635e-12</wgt>
  <wgt id="35">3.17587e-12</wgt>
  <wgt id="36">3.21216e-12</wgt>
  <wgt id="37">3.18586e-12</wgt>
  <wgt id="38">3.18345e-12</wgt>
  <wgt id="39">3.25397e-12</wgt>
  <wgt id="40">3.2014e-12</wgt>
  <wgt id="41">3.19445e-12</wgt>
  <wgt id="42">3.20526e-12</wgt>
  <wgt id="43">3.19975e-12</wgt>
  <wgt id="44">3.20926e-12</wgt>
  <wgt id="45">3.20119e-12</wgt>
  <wgt id="46">3.18483e-12</wgt>
  <wgt id="47">3.22313e-12</wgt>
  <wgt id="48">3.2147e-12</wgt>
  <wgt id="49">3.18294e-12</wgt>
  <wgt id="50">3.17383e-12</wgt>
  <wgt id="51">3.17912e-12</wgt>
  <wgt id="52">3.2025e-12</wgt>
  <wgt id="53">3.22336e-12</wgt>
  <wgt id="54">3.21117e-12</wgt>
  <wgt id="55">3.1956e-12</wgt>
  <wgt id="56">3.1839e-12</wgt>
  <wgt id="57">3.18006e-12</wgt>
  <wgt id="58">3.19306e-12</wgt>
  <wgt id="59">3.20106e-12</wgt>
  <wgt id="60">3.17311e-12</wgt>
  <wgt id="61">3.1788e-12</wgt>
  <wgt id="62">3.18989e-12</wgt>
  <wgt id="63">3.1942e-12</wgt>
  <wgt id="64">3.19445e-12</wgt>
  <wgt id="65">3.18549e-12</wgt>
  <wgt id="66">3.19936e-12</wgt>
  <wgt id="67">3.19142e-12</wgt>
  <wgt id="68">3.19584e-12</wgt>
  <wgt id="69">3.19136e-12</wgt>
  <wgt id="70">3.18843e-12</wgt>
  <wgt id="71">3.19451e-12</wgt>
  <wgt id="72">3.17869e-12</wgt>
  <wgt id="73">3.20993e-12</wgt>
  <wgt id="74">3.20809e-12</wgt>
  <wgt id="75">3.19647e-12</wgt>
  <wgt id="76">3.21785e-12</wgt>
  <wgt id="77">3.19104e-12</wgt>
  <wgt id="78">3.19389e-12</wgt>
  <wgt id="79">3.20565e-12</wgt>
  <wgt id="80">3.17043e-12</wgt>
  <wgt id="81">3.19637e-12</wgt>
  <wgt id="82">3.1998e-12</wgt>
  <wgt id="83">3.17698e-12</wgt>
  <wgt id="84">3.18724e-12</wgt>
  <wgt id="85">3.18438e-12</wgt>
  <wgt id="86">3.20958e-12</wgt>
  <wgt id="87">3.16768e-12</wgt>
  <wgt id="88">3.20546e-12</wgt>
  <wgt id="89">3.20222e-12</wgt>
  <wgt id="90">3.2087e-12</wgt>
  <wgt id="91">3.20101e-12</wgt>
  <wgt id="92">3.20588e-12</wgt>
  <wgt id="93">3.20121e-12</wgt>
  <wgt id="94">3.18871e-12</wgt>
  <wgt id="95">3.2083e-12</wgt>
  <wgt id="96">3.20469e-12</wgt>
  <wgt id="97">3.18439e-12</wgt>
  <wgt id="98">3.19682e-12</wgt>
  <wgt id="99">3.19122e-12</wgt>
  <wgt id="100">3.20472e-12</wgt>
  <wgt id="101">3.19365e-12</wgt>
  <wgt id="102">3.19167e-12</wgt>
  <wgt id="103">3.20841e-12</wgt>
  <wgt id="104">3.19097e-12</wgt>
  <wgt id="105">3.20405e-12</wgt>
  <wgt id="106">3.18855e-12</wgt>
  <wgt id="107">3.21587e-12</wgt>
  <wgt id="108">3.19072e-12</wgt>
  <wgt id="109">3.19996e-12</wgt>
  <wgt id="110">3.19559e-12</wgt>
  <wgt id="111">3.20543e-12</wgt>
  <wgt id="112">3.23446e-12</wgt>
  <wgt id="113">4.62152e-12</wgt>
  <wgt id="114">4.3425e-12</wgt>
  <wgt id="115">4.26538e-12</wgt>
  <wgt id="116">6.04421e-12</wgt>
  <wgt id="117">3.56677e-12</wgt>
  <wgt id="118">3.58088e-12</wgt>
  <wgt id="119">3.5587e-12</wgt>
  <wgt id="120">3.56685e-12</wgt>
  <wgt id="121">3.56669e-12</wgt>
  <wgt id="122">3.56119e-12</wgt>
  <wgt id="123">3.57452e-12</wgt>
  <wgt id="124">3.5621e-12</wgt>
  <wgt id="125">3.56978e-12</wgt>
  <wgt id="126">3.57272e-12</wgt>
  <wgt id="127">3.56278e-12</wgt>
  <wgt id="128">3.57767e-12</wgt>
  <wgt id="129">3.5559e-12</wgt>
  <wgt id="130">3.5853e-12</wgt>
  <wgt id="131">3.54759e-12</wgt>
  <wgt id="132">3.46629e-12</wgt>
  <wgt id="133">3.6868e-12</wgt>
  <wgt id="134">3.52699e-12</wgt>
  <wgt id="135">3.59799e-12</wgt>
  <wgt id="136">3.62228e-12</wgt>
  <wgt id="137">3.50006e-12</wgt>
  <wgt id="138">3.73165e-12</wgt>
  <wgt id="139">3.41041e-12</wgt>
  <wgt id="140">3.54913e-12</wgt>
  <wgt id="141">3.58019e-12</wgt>
  <wgt id="142">3.56603e-12</wgt>
  <wgt id="143">3.57753e-12</wgt>
  <wgt id="144">3.41667e-12</wgt>
  <wgt id="145">3.71272e-12</wgt>
  <wgt id="146">3.61521e-12</wgt>
  <wgt id="147">3.52724e-12</wgt>
  <wgt id="148">3.58015e-12</wgt>
  <wgt id="149">3.56583e-12</wgt>
  <wgt id="150">3.59767e-12</wgt>
  <wgt id="151">3.55227e-12</wgt>
  <wgt id="152">3.56802e-12</wgt>
  <wgt id="153">3.56634e-12</wgt>
  <wgt id="154">3.57657e-12</wgt>
  <wgt id="155">3.54905e-12</wgt>
  <wgt id="156">3.6888e-12</wgt>
  <wgt id="157">3.45561e-12</wgt>
  <wgt id="158">4.27382e-12</wgt>
  <wgt id="159">4.29201e-12</wgt>
  <wgt id="160">4.25909e-12</wgt>
  <wgt id="161">4.26216e-12</wgt>
  <wgt id="162">4.28674e-12</wgt>
  <wgt id="163">4.26863e-12</wgt>
  <wgt id="164">4.28143e-12</wgt>
  <wgt id="165">4.27539e-12</wgt>
  <wgt id="166">4.27254e-12</wgt>
  <wgt id="167">4.27082e-12</wgt>
  <wgt id="168">4.27785e-12</wgt>
  <wgt id="169">4.25646e-12</wgt>
  <wgt id="170">4.28453e-12</wgt>
  <wgt id="171">4.26991e-12</wgt>
  <wgt id="172">4.27918e-12</wgt>
  <wgt id="173">4.26663e-12</wgt>
  <wgt id="174">4.27615e-12</wgt>
  <wgt id="175">4.14503e-12</wgt>
  <wgt id="176">4.44284e-12</wgt>
  <wgt id="177">4.29539e-12</wgt>
  <wgt id="178">4.25417e-12</wgt>
  <wgt id="179">4.49484e-12</wgt>
  <wgt id="180">3.93321e-12</wgt>
  <wgt id="181">4.12793e-12</wgt>
  <wgt id="182">4.37106e-12</wgt>
  <wgt id="183">4.1853e-12</wgt>
  <wgt id="184">4.31775e-12</wgt>
  <wgt id="185">4.22662e-12</wgt>
  <wgt id="186">4.33134e-12</wgt>
  <wgt id="187">4.2261e-12</wgt>
  <wgt id="188">4.35829e-12</wgt>
  <wgt id="189">4.23965e-12</wgt>
  <wgt id="190">4.28759e-12</wgt>
  <wgt id="191">4.28901e-12</wgt>
  <wgt id="192">4.26477e-12</wgt>
  <wgt id="193">4.34746e-12</wgt>
  <wgt id="194">4.23689e-12</wgt>
  <wgt id="195">4.11381e-12</wgt>
  <wgt id="196">4.53518e-12</wgt>
  <wgt id="197">4.29759e-12</wgt>
  <wgt id="198">4.26807e-12</wgt>
  <wgt id="199">4.27382e-12</wgt>
  <wgt id="200">4.31591e-12</wgt>
  <wgt id="201">4.30148e-12</wgt>
  <wgt id="202">4.28753e-12</wgt>
  <wgt id="203">4.26726e-12</wgt>
  <wgt id="204">4.25712e-12</wgt>
  <wgt id="205">4.24885e-12</wgt>
  <wgt id="206">4.16333e-12</wgt>
  <wgt id="207">4.1885e-12</wgt>
  <wgt id="208">4.13849e-12</wgt>
  <wgt id="209">4.17736e-12</wgt>
  <wgt id="210">4.15316e-12</wgt>
  <wgt id="211">4.16164e-12</wgt>
  <wgt id="212">4.16469e-12</wgt>
  <wgt id="213">4.16298e-12</wgt>
  <wgt id="214">4.16388e-12</wgt>
  <wgt id="215">4.16681e-12</wgt>
  <wgt id="216">4.16086e-12</wgt>
  <wgt id="217">4.17389e-12</wgt>
  <wgt id="218">4.15523e-12</wgt>
  <wgt id="219">4.15936e-12</wgt>
  <wgt id="220">4.16574e-12</wgt>
  <wgt id="221">4.1643e-12</wgt>
  <wgt id="222">4.16019e-12</wgt>
  <wgt id="223">3.92004e-12</wgt>
  <wgt id="224">4.38674e-12</wgt>
  <wgt id="225">4.10951e-12</wgt>
  <wgt id="226">4.2318e-12</wgt>
  <wgt id="227">4.12183e-12</wgt>
  <wgt id="228">4.18154e-12</wgt>
  <wgt id="229">4.10165e-12</wgt>
  <wgt id="230">4.19404e-12</wgt>
  <wgt id="231">4.30638e-12</wgt>
  <wgt id="232">4.04655e-12</wgt>
  <wgt id="233">4.13683e-12</wgt>
  <wgt id="234">4.20772e-12</wgt>
  <wgt id="235">3.99489e-12</wgt>
  <wgt id="236">4.30165e-12</wgt>
  <wgt id="237">4.06427e-12</wgt>
  <wgt id="238">4.19639e-12</wgt>
  <wgt id="239">4.12326e-12</wgt>
  <wgt id="240">4.23519e-12</wgt>
  <wgt id="241">4.11163e-12</wgt>
  <wgt id="242">4.22494e-12</wgt>
  <wgt id="243">4.2404e-12</wgt>
  <wgt id="244">4.16511e-12</wgt>
  <wgt id="245">4.16169e-12</wgt>
  <wgt id="246">4.18777e-12</wgt>
  <wgt id="247">4.16333e-12</wgt>
  <wgt id="248">4.20811e-12</wgt>
  <wgt id="249">4.19259e-12</wgt>
  <wgt id="250">4.17643e-12</wgt>
  <wgt id="251">4.1545e-12</wgt>
  <wgt id="252">4.14328e-12</wgt>
  <wgt id="253">4.13561e-12</wgt>
  <wgt id="254">4.0244e-12</wgt>
  <wgt id="255">4.02811e-12</wgt>
  <wgt id="256">4.02041e-12</wgt>
  <wgt id="257">4.02747e-12</wgt>
  <wgt id="258">4.02221e-12</wgt>
  <wgt id="259">4.05154e-12</wgt>
  <wgt id="260">3.99822e-12</wgt>
  <wgt id="261">4.03189e-12</wgt>
  <wgt id="262">4.01558e-12</wgt>
  <wgt id="263">4.02139e-12</wgt>
  <wgt id="264">4.02804e-12</wgt>
  <wgt id="265">4.01914e-12</wgt>
  <wgt id="266">4.03505e-12</wgt>
  <wgt id="267">4.02589e-12</wgt>
  <wgt id="268">4.0224e-12</wgt>
  <wgt id="269">4.03798e-12</wgt>
  <wgt id="270">4.01523e-12</wgt>
  <wgt id="271">4.01406e-12</wgt>
  <wgt id="272">4.03597e-12</wgt>
  <wgt id="273">4.01284e-12</wgt>
  <wgt id="274">4.03326e-12</wgt>
  <wgt id="275">4.00008e-12</wgt>
  <wgt id="276">4.04966e-12</wgt>
  <wgt id="277">4.00048e-12</wgt>
  <wgt id="278">4.04626e-12</wgt>
  <wgt id="279">3.94503e-12</wgt>
  <wgt id="280">4.12451e-12</wgt>
  <wgt id="281">4.00436e-12</wgt>
  <wgt id="282">4.02974e-12</wgt>
  <wgt id="283">3.88967e-12</wgt>
  <wgt id="284">4.19273e-12</wgt>
  <wgt id="285">3.80316e-12</wgt>
  <wgt id="286">4.21161e-12</wgt>
  <wgt id="287">4.03889e-12</wgt>
  <wgt id="288">4.00594e-12</wgt>
  <wgt id="289">4.05769e-12</wgt>
  <wgt id="290">3.95073e-12</wgt>
  <wgt id="291">4.0087e-12</wgt>
  <wgt id="292">4.02505e-12</wgt>
  <wgt id="293">3.98828e-12</wgt>
  <wgt id="294">4.06044e-12</wgt>
  <wgt id="295">3.93726e-12</wgt>
  <wgt id="296">4.13137e-12</wgt>
  <wgt id="297">4.01444e-12</wgt>
  <wgt id="298">4.04592e-12</wgt>
  <wgt id="299">4.01017e-12</wgt>
  <wgt id="300">4.06242e-12</wgt>
  <wgt id="301">3.93849e-12</wgt>
  <wgt id="302">4.22165e-12</wgt>
  <wgt id="303">3.97839e-12</wgt>
  <wgt id="304">4.05021e-12</wgt>
  <wgt id="305">3.99169e-12</wgt>
  <wgt id="306">3.99557e-12</wgt>
  <wgt id="307">3.98761e-12</wgt>
  <wgt id="308">3.99506e-12</wgt>
  <wgt id="309">3.98949e-12</wgt>
  <wgt id="310">4.01942e-12</wgt>
  <wgt id="311">3.96612e-12</wgt>
  <wgt id="312">3.9985e-12</wgt>
  <wgt id="313">3.9845e-12</wgt>
  <wgt id="314">3.98856e-12</wgt>
  <wgt id="315">3.99473e-12</wgt>
  <wgt id="316">3.9864e-12</wgt>
  <wgt id="317">4.00319e-12</wgt>
  <wgt id="318">3.9949e-12</wgt>
  <wgt id="319">3.98612e-12</wgt>
  <wgt id="320">4.00621e-12</wgt>
  <wgt id="321">3.98362e-12</wgt>
  <wgt id="322">3.98017e-12</wgt>
  <wgt id="323">4.00508e-12</wgt>
  <wgt id="324">3.98283e-12</wgt>
  <wgt id="325">3.99944e-12</wgt>
  <wgt id="326">3.97182e-12</wgt>
  <wgt id="327">4.01723e-12</wgt>
  <wgt id="328">3.97085e-12</wgt>
  <wgt id="329">4.00321e-12</wgt>
  <wgt id="330">4.11148e-12</wgt>
  <wgt id="331">3.87798e-12</wgt>
  <wgt id="332">3.97502e-12</wgt>
  <wgt id="333">3.99497e-12</wgt>
  <wgt id="334">3.8889e-12</wgt>
  <wgt id="335">4.12081e-12</wgt>
  <wgt id="336">3.83458e-12</wgt>
  <wgt id="337">4.18669e-12</wgt>
  <wgt id="338">4.0421e-12</wgt>
  <wgt id="339">3.94534e-12</wgt>
  <wgt id="340">4.02182e-12</wgt>
  <wgt id="341">3.91739e-12</wgt>
  <wgt id="342">3.98038e-12</wgt>
  <wgt id="343">3.98417e-12</wgt>
  <wgt id="344">3.96002e-12</wgt>
  <wgt id="345">4.02857e-12</wgt>
  <wgt id="346">3.90251e-12</wgt>
  <wgt id="347">4.09417e-12</wgt>
  <wgt id="348">3.98228e-12</wgt>
  <wgt id="349">4.01113e-12</wgt>
  <wgt id="350">3.97411e-12</wgt>
  <wgt id="351">4.03648e-12</wgt>
  <wgt id="352">3.9032e-12</wgt>
  <wgt id="353">4.1857e-12</wgt>
  <wgt id="354">3.92565e-12</wgt>
  <wgt id="355">4.03092e-12</wgt>
  <wgt id="356">4.0244e-12</wgt>
  <wgt id="357">3.99574e-12</wgt>
  <wgt id="358">3.99169e-12</wgt>
  <wgt id="359">4.02484e-12</wgt>
  <wgt id="360">4.09284e-12</wgt>
  <wgt id="361">4.0454e-12</wgt>
  <wgt id="362">4.12873e-12</wgt>
  <wgt id="363">4.11765e-12</wgt>
  <wgt id="364">4.0972e-12</wgt>
  <wgt id="365">4.08103e-12</wgt>
  <wgt id="366">4.06444e-12</wgt>
  <wgt id="367">4.03277e-12</wgt>
  <wgt id="368">4.01296e-12</wgt>
  <wgt id="369">3.9916e-12</wgt>
  <wgt id="370">4.0454e-12</wgt>
  <wgt id="371">4.06273e-12</wgt>
  <wgt id="372">4.053e-12</wgt>
  <wgt id="373">4.03923e-12</wgt>
  <wgt id="374">4.04385e-12</wgt>
  <wgt id="375">4.60582e-12</wgt>
  <wgt id="376">4.60627e-12</wgt>
  <wgt id="377">4.60515e-12</wgt>
  <wgt id="378">4.62337e-12</wgt>
  <wgt id="379">4.58835e-12</wgt>
  <wgt id="380">4.6188e-12</wgt>
  <wgt id="381">4.60061e-12</wgt>
  <wgt id="382">4.62899e-12</wgt>
  <wgt id="383">4.58285e-12</wgt>
  <wgt id="384">4.60883e-12</wgt>
  <wgt id="385">4.60288e-12</wgt>
  <wgt id="386">4.62259e-12</wgt>
  <wgt id="387">4.59857e-12</wgt>
  <wgt id="388">4.60152e-12</wgt>
  <wgt id="389">4.61105e-12</wgt>
  <wgt id="390">4.61718e-12</wgt>
  <wgt id="391">4.5937e-12</wgt>
  <wgt id="392">4.56246e-12</wgt>
  <wgt id="393">4.63039e-12</wgt>
  <wgt id="394">4.60966e-12</wgt>
  <wgt id="395">4.6003e-12</wgt>
  <wgt id="396">4.61415e-12</wgt>
  <wgt id="397">4.59984e-12</wgt>
  <wgt id="398">4.59367e-12</wgt>
  <wgt id="399">4.61751e-12</wgt>
  <wgt id="400">4.59771e-12</wgt>
  <wgt id="401">4.62394e-12</wgt>
  <wgt id="402">4.56125e-12</wgt>
  <wgt id="403">4.63324e-12</wgt>
  <wgt id="404">4.74229e-12</wgt>
  <wgt id="405">4.28185e-12</wgt>
  <wgt id="406">4.50811e-12</wgt>
  <wgt id="407">4.8229e-12</wgt>
  <wgt id="408">4.65696e-12</wgt>
  <wgt id="409">4.51135e-12</wgt>
  <wgt id="410">4.44743e-12</wgt>
  <wgt id="411">4.68209e-12</wgt>
  <wgt id="412">4.59487e-12</wgt>
  <wgt id="413">4.62221e-12</wgt>
  <wgt id="414">4.5427e-12</wgt>
  <wgt id="415">4.65489e-12</wgt>
  <wgt id="416">4.7679e-12</wgt>
  <wgt id="417">4.38379e-12</wgt>
  <wgt id="418">4.61505e-12</wgt>
  <wgt id="419">4.55611e-12</wgt>
  <wgt id="420">4.72364e-12</wgt>
  <wgt id="421">4.52821e-12</wgt>
  <wgt id="422">4.57694e-12</wgt>
  <wgt id="423">4.61941e-12</wgt>
  <wgt id="424">4.74853e-12</wgt>
  <wgt id="425">4.50969e-12</wgt>
  <wgt id="426">4.60582e-12</wgt>
  <wgt id="427">4.51476e-12</wgt>
  <wgt id="428">4.81848e-12</wgt>
  <wgt id="429">4.67027e-12</wgt>
  <wgt id="430">4.8286e-12</wgt>
  <wgt id="431">4.79625e-12</wgt>
  <wgt id="432">4.76706e-12</wgt>
  <wgt id="433">4.73836e-12</wgt>
  <wgt id="434">4.7018e-12</wgt>
  <wgt id="435">4.63071e-12</wgt>
  <wgt id="436">4.59486e-12</wgt>
  <wgt id="437">4.55992e-12</wgt>
  <wgt id="438">4.67027e-12</wgt>
  <wgt id="439">4.68475e-12</wgt>
  <wgt id="440">4.67574e-12</wgt>
  <wgt id="441">4.66639e-12</wgt>
  <wgt id="442">4.6634e-12</wgt>
  <wgt id="443">4.22464e-12</wgt>
  <wgt id="444">4.26855e-12</wgt>
  <wgt id="445">4.25875e-12</wgt>
  <wgt id="446">4.19378e-12</wgt>
  <wgt id="447">4.22192e-12</wgt>
  <wgt id="448">4.11518e-12</wgt>
  <wgt id="449">4.31477e-12</wgt>
  <wgt id="450">4.26993e-12</wgt>
  <wgt id="451">4.21262e-12</wgt>
  <wgt id="452">4.32433e-12</wgt>
  <wgt id="453">4.28094e-12</wgt>
  <wgt id="454">4.00183e-12</wgt>
  <wgt id="455">4.25677e-12</wgt>
  <wgt id="456">4.29125e-12</wgt>
  <wgt id="457">4.24112e-12</wgt>
  <wgt id="458">4.2984e-12</wgt>
  <wgt id="459">4.26318e-12</wgt>
  <wgt id="460">4.30386e-12</wgt>
  <wgt id="461">4.11873e-12</wgt>
  <wgt id="462">4.18936e-12</wgt>
  <wgt id="463">4.15608e-12</wgt>
  <wgt id="464">4.20126e-12</wgt>
  <wgt id="465">4.27405e-12</wgt>
  <wgt id="466">4.1232e-12</wgt>
  <wgt id="467">4.18735e-12</wgt>
  <wgt id="468">4.21953e-12</wgt>
  <wgt id="469">4.21127e-12</wgt>
  <wgt id="470">4.15846e-12</wgt>
  <wgt id="471">4.16925e-12</wgt>
  <wgt id="472">4.25542e-12</wgt>
  <wgt id="473">4.07126e-12</wgt>
  <wgt id="474">3.0282e-12</wgt>
  <wgt id="475">3.04556e-12</wgt>
  <wgt id="476">3.01105e-12</wgt>
  <wgt id="477">3.08619e-12</wgt>
  <wgt id="478">3.06682e-12</wgt>
  <wgt id="479">2.88057e-12</wgt>
  <wgt id="480">3.18575e-12</wgt>
  <wgt id="481">3.0404e-12</wgt>
  <wgt id="482">3.01991e-12</wgt>
  <wgt id="483">3.03403e-12</wgt>
  <wgt id="484">3.17112e-12</wgt>
  <wgt id="485">2.79344e-12</wgt>
  <wgt id="486">3.17598e-12</wgt>
  <wgt id="487">2.95682e-12</wgt>
  <wgt id="488">3.05766e-12</wgt>
  <wgt id="489">2.72763e-12</wgt>
  <wgt id="490">2.96909e-12</wgt>
  <wgt id="491">2.9839e-12</wgt>
  <wgt id="492">2.96991e-12</wgt>
  <wgt id="493">2.80251e-12</wgt>
  <wgt id="494">2.81615e-12</wgt>
  <wgt id="495">3.0454e-12</wgt>
  <wgt id="496">2.87443e-12</wgt>
  <wgt id="497">2.82969e-12</wgt>
  <wgt id="498">3.11453e-12</wgt>
  <wgt id="499">3.04431e-12</wgt>
  <wgt id="500">2.98428e-12</wgt>
  <wgt id="501">3.16455e-12</wgt>
  <wgt id="502">3.13329e-12</wgt>
  <wgt id="503">2.97419e-12</wgt>
  <wgt id="504">3.12649e-12</wgt>
  <wgt id="505">3.15049e-12</wgt>
  <wgt id="506">2.82789e-12</wgt>
  <wgt id="507">2.97811e-12</wgt>
  <wgt id="508">3.18243e-12</wgt>
  <wgt id="509">2.9243e-12</wgt>
  <wgt id="510">3.06677e-12</wgt>
  <wgt id="511">2.87745e-12</wgt>
  <wgt id="512">3.23063e-12</wgt>
  <wgt id="513">3.1681e-12</wgt>
  <wgt id="514">3.1839e-12</wgt>
  <wgt id="515">3.10182e-12</wgt>
  <wgt id="516">3.33508e-12</wgt>
  <wgt id="517">3.1034e-12</wgt>
  <wgt id="518">3.14042e-12</wgt>
  <wgt id="519">2.90236e-12</wgt>
  <wgt id="520">3.0731e-12</wgt>
  <wgt id="521">2.97464e-12</wgt>
  <wgt id="522">3.15487e-12</wgt>
  <wgt id="523">2.8983e-12</wgt>
  <wgt id="524">3.09649e-12</wgt>
  <wgt id="525">2.98257e-12</wgt>
  <wgt id="526">3.17998e-12</wgt>
  <wgt id="527">2.99938e-12</wgt>
  <wgt id="528">3.02277e-12</wgt>
  <wgt id="529">2.89151e-12</wgt>
  <wgt id="530">3.17749e-12</wgt>
  <wgt id="531">2.90515e-12</wgt>
  <wgt id="532">3.29011e-12</wgt>
  <wgt id="533">2.99599e-12</wgt>
  <wgt id="534">2.91751e-12</wgt>
  <wgt id="535">3.06561e-12</wgt>
  <wgt id="536">3.12927e-12</wgt>
  <wgt id="537">2.88531e-12</wgt>
  <wgt id="538">3.00899e-12</wgt>
  <wgt id="539">2.95244e-12</wgt>
  <wgt id="540">3.19208e-12</wgt>
  <wgt id="541">3.01416e-12</wgt>
  <wgt id="542">2.96191e-12</wgt>
  <wgt id="543">2.92309e-12</wgt>
  <wgt id="544">3.06832e-12</wgt>
  <wgt id="545">2.87155e-12</wgt>
  <wgt id="546">2.80788e-12</wgt>
  <wgt id="547">2.91679e-12</wgt>
  <wgt id="548">2.92141e-12</wgt>
  <wgt id="549">2.96533e-12</wgt>
  <wgt id="550">2.94743e-12</wgt>
  <wgt id="551">3.04191e-12</wgt>
  <wgt id="552">2.80061e-12</wgt>
  <wgt id="553">2.85204e-12</wgt>
  <wgt id="554">3.19451e-12</wgt>
  <wgt id="555">3.10375e-12</wgt>
  <wgt id="556">2.96909e-12</wgt>
  <wgt id="557">3.09421e-12</wgt>
  <wgt id="558">2.9886e-12</wgt>
  <wgt id="559">3.05528e-12</wgt>
  <wgt id="560">3.35909e-12</wgt>
  <wgt id="561">3.09534e-12</wgt>
  <wgt id="562">3.13625e-12</wgt>
  <wgt id="563">3.31565e-12</wgt>
  <wgt id="564">3.19198e-12</wgt>
  <wgt id="565">3.11473e-12</wgt>
  <wgt id="566">2.94061e-12</wgt>
  <wgt id="567">3.02282e-12</wgt>
  <wgt id="568">2.92126e-12</wgt>
  <wgt id="569">3.04847e-12</wgt>
  <wgt id="570">3.01068e-12</wgt>
  <wgt id="571">3.36837e-12</wgt>
  <wgt id="572">2.91995e-12</wgt>
  <wgt id="573">2.93358e-12</wgt>
  <wgt id="574">2.95144e-12</wgt>
  <wgt id="575">3.35874e-12</wgt>
  <wgt id="576">3.64044e-12</wgt>
  <wgt id="577">3.50023e-12</wgt>
  <wgt id="578">3.40349e-12</wgt>
  <wgt id="579">3.48668e-12</wgt>
  <wgt id="580">3.57054e-12</wgt>
  <wgt id="581">3.7042e-12</wgt>
  <wgt id="582">3.57073e-12</wgt>
  <wgt id="583">3.42621e-12</wgt>
  <wgt id="584">3.32632e-12</wgt>
  <wgt id="585">3.1259e-12</wgt>
  <wgt id="586">3.16119e-12</wgt>
  <wgt id="587">3.42136e-12</wgt>
  <wgt id="588">3.66049e-12</wgt>
  <wgt id="589">3.66569e-12</wgt>
  <wgt id="590">3.34258e-12</wgt>
  <wgt id="591">3.45634e-12</wgt>
  <wgt id="592">3.14501e-12</wgt>
  <wgt id="593">3.26062e-12</wgt>
  <wgt id="594">3.28748e-12</wgt>
  <wgt id="595">3.52041e-12</wgt>
  <wgt id="596">3.93493e-12</wgt>
  <wgt id="597">3.39602e-12</wgt>
  <wgt id="598">3.41273e-12</wgt>
  <wgt id="599">3.57855e-12</wgt>
  <wgt id="600">3.57434e-12</wgt>
  <wgt id="601">3.21675e-12</wgt>
  <wgt id="602">3.25193e-12</wgt>
  <wgt id="603">3.14861e-12</wgt>
  <wgt id="604">3.44611e-12</wgt>
  <wgt id="605">3.39619e-12</wgt>
  <wgt id="606">3.4042e-12</wgt>
  <wgt id="607">3.50318e-12</wgt>
  <wgt id="608">3.48247e-12</wgt>
  <wgt id="609">3.30083e-12</wgt>
  <wgt id="610">3.20668e-12</wgt>
  <wgt id="611">3.21771e-12</wgt>
  <wgt id="612">3.48829e-12</wgt>
  <wgt id="613">3.19985e-12</wgt>
  <wgt id="614">3.33554e-12</wgt>
  <wgt id="615">3.40763e-12</wgt>
  <wgt id="616">3.23578e-12</wgt>
  <wgt id="617">3.49705e-12</wgt>
  <wgt id="618">3.67453e-12</wgt>
  <wgt id="619">3.28828e-12</wgt>
  <wgt id="620">3.46977e-12</wgt>
  <wgt id="621">3.32379e-12</wgt>
  <wgt id="622">3.42136e-12</wgt>
  <wgt id="623">3.37158e-12</wgt>
  <wgt id="624">3.37505e-12</wgt>
  <wgt id="625">3.20018e-12</wgt>
  <wgt id="626">2.99509e-12</wgt>
  <wgt id="627">3.03691e-12</wgt>
  <wgt id="628">3.36137e-12</wgt>
  <wgt id="629">3.41715e-12</wgt>
  <wgt id="630">3.27814e-12</wgt>
  <wgt id="631">3.44605e-12</wgt>
  <wgt id="632">3.06768e-12</wgt>
  <wgt id="633">3.33414e-12</wgt>
  <wgt id="634">3.21921e-12</wgt>
  <wgt id="635">3.10037e-12</wgt>
  <wgt id="636">3.39204e-12</wgt>
  <wgt id="637">3.35263e-12</wgt>
  <wgt id="638">3.19369e-12</wgt>
  <wgt id="639">3.20913e-12</wgt>
  <wgt id="640">3.27418e-12</wgt>
  <wgt id="641">3.51564e-12</wgt>
  <wgt id="642">3.09565e-12</wgt>
  <wgt id="643">3.26958e-12</wgt>
  <wgt id="644">3.01919e-12</wgt>
  <wgt id="645">3.3562e-12</wgt>
  <wgt id="646">3.1003e-12</wgt>
  <wgt id="647">3.39577e-12</wgt>
  <wgt id="648">3.51363e-12</wgt>
  <wgt id="649">3.38046e-12</wgt>
  <wgt id="650">3.20698e-12</wgt>
  <wgt id="651">3.58614e-12</wgt>
  <wgt id="652">3.2188e-12</wgt>
  <wgt id="653">3.22556e-12</wgt>
  <wgt id="654">3.40583e-12</wgt>
  <wgt id="655">3.21046e-12</wgt>
  <wgt id="656">3.36577e-12</wgt>
  <wgt id="657">3.66712e-12</wgt>
  <wgt id="658">3.38586e-12</wgt>
  <wgt id="659">3.21315e-12</wgt>
  <wgt id="660">3.25128e-12</wgt>
  <wgt id="661">3.26513e-12</wgt>
  <wgt id="662">3.29897e-12</wgt>
  <wgt id="663">3.41629e-12</wgt>
  <wgt id="664">3.39519e-12</wgt>
  <wgt id="665">3.3156e-12</wgt>
  <wgt id="666">3.27829e-12</wgt>
  <wgt id="667">3.54281e-12</wgt>
  <wgt id="668">3.31352e-12</wgt>
  <wgt id="669">3.35238e-12</wgt>
  <wgt id="670">3.52429e-12</wgt>
  <wgt id="671">3.39042e-12</wgt>
  <wgt id="672">3.26682e-12</wgt>
  <wgt id="673">3.56735e-12</wgt>
  <wgt id="674">3.25293e-12</wgt>
  <wgt id="675">3.22478e-12</wgt>
  <wgt id="676">4.3821e-12</wgt>
  <wgt id="677">4.42313e-12</wgt>
  <wgt id="678">4.815e-12</wgt>
  <wgt id="679">4.46784e-12</wgt>
  <wgt id="680">4.4095e-12</wgt>
  <wgt id="681">4.28202e-12</wgt>
  <wgt id="682">4.59805e-12</wgt>
  <wgt id="683">4.036e-12</wgt>
  <wgt id="684">4.63578e-12</wgt>
  <wgt id="685">4.34497e-12</wgt>
  <wgt id="686">4.4719e-12</wgt>
  <wgt id="687">4.55354e-12</wgt>
  <wgt id="688">4.23768e-12</wgt>
  <wgt id="689">4.62969e-12</wgt>
  <wgt id="690">4.52017e-12</wgt>
  <wgt id="691">4.49463e-12</wgt>
  <wgt id="692">4.26822e-12</wgt>
  <wgt id="693">5.84686e-12</wgt>
  <wgt id="694">4.837e-12</wgt>
  <wgt id="695">4.08974e-12</wgt>
  <wgt id="696">4.15739e-12</wgt>
  <wgt id="697">3.93952e-12</wgt>
  <wgt id="698">3.60629e-12</wgt>
  <wgt id="699">3.69037e-12</wgt>
  <wgt id="700">3.83786e-12</wgt>
  <wgt id="701">4.38371e-12</wgt>
  <wgt id="702">4.1908e-12</wgt>
  <wgt id="703">5.48354e-12</wgt>
  <wgt id="704">4.96206e-12</wgt>
  <wgt id="705">4.91489e-12</wgt>
  <wgt id="706">4.052e-12</wgt>
  <wgt id="707">4.09293e-12</wgt>
  <wgt id="708">4.19169e-12</wgt>
  <wgt id="709">4.24313e-12</wgt>
  <wgt id="710">3.64729e-12</wgt>
  <wgt id="711">4.66851e-12</wgt>
  <wgt id="712">4.11363e-12</wgt>
  <wgt id="713">4.7321e-12</wgt>
  <wgt id="714">3.94867e-12</wgt>
  <wgt id="715">4.17522e-12</wgt>
  <wgt id="716">4.21069e-12</wgt>
  <wgt id="717">3.80105e-12</wgt>
  <wgt id="718">4.47271e-12</wgt>
  <wgt id="719">3.97524e-12</wgt>
  <wgt id="720">4.45714e-12</wgt>
  <wgt id="721">3.73468e-12</wgt>
  <wgt id="722">3.42714e-12</wgt>
  <wgt id="723">4.95199e-12</wgt>
  <wgt id="724">4.76577e-12</wgt>
  <wgt id="725">4.60526e-12</wgt>
  <wgt id="726">4.36777e-12</wgt>
  <wgt id="727">4.39412e-12</wgt>
  <wgt id="728">4.297e-12</wgt>
  <wgt id="729">3.98266e-12</wgt>
  <wgt id="730">4.89572e-12</wgt>
  <wgt id="731">4.31818e-12</wgt>
  <wgt id="732">5.12731e-12</wgt>
  <wgt id="733">4.08073e-12</wgt>
  <wgt id="734">4.54702e-12</wgt>
  <wgt id="735">4.36543e-12</wgt>
  <wgt id="736">4.06045e-12</wgt>
  <wgt id="737">4.092e-12</wgt>
  <wgt id="738">4.14821e-12</wgt>
  <wgt id="739">4.67736e-12</wgt>
  <wgt id="740">5.22181e-12</wgt>
  <wgt id="741">4.53681e-12</wgt>
  <wgt id="742">4.20044e-12</wgt>
  <wgt id="743">3.9744e-12</wgt>
  <wgt id="744">4.29544e-12</wgt>
  <wgt id="745">4.81967e-12</wgt>
  <wgt id="746">4.95662e-12</wgt>
  <wgt id="747">3.63097e-12</wgt>
  <wgt id="748">4.21407e-12</wgt>
  <wgt id="749">4.58225e-12</wgt>
  <wgt id="750">4.7165e-12</wgt>
  <wgt id="751">4.43316e-12</wgt>
  <wgt id="752">3.92377e-12</wgt>
  <wgt id="753">3.91377e-12</wgt>
  <wgt id="754">4.5827e-12</wgt>
  <wgt id="755">4.28621e-12</wgt>
  <wgt id="756">4.25726e-12</wgt>
  <wgt id="757">3.77231e-12</wgt>
  <wgt id="758">4.27925e-12</wgt>
  <wgt id="759">4.77642e-12</wgt>
  <wgt id="760">4.21003e-12</wgt>
  <wgt id="761">4.87504e-12</wgt>
  <wgt id="762">4.90275e-12</wgt>
  <wgt id="763">4.49062e-12</wgt>
  <wgt id="764">4.70175e-12</wgt>
  <wgt id="765">4.42321e-12</wgt>
  <wgt id="766">4.44432e-12</wgt>
  <wgt id="767">4.48405e-12</wgt>
  <wgt id="768">3.9761e-12</wgt>
  <wgt id="769">4.62966e-12</wgt>
  <wgt id="770">4.09222e-12</wgt>
  <wgt id="771">5.44883e-12</wgt>
  <wgt id="772">4.24799e-12</wgt>
  <wgt id="773">4.39913e-12</wgt>
  <wgt id="774">3.45793e-12</wgt>
  <wgt id="775">4.60574e-12</wgt>
  <wgt id="776">5.09339e-12</wgt>
  <wgt id="777">3.86879e-12</wgt>
  <wgt id="778">2.85065e-12</wgt>
  <wgt id="779">1.74129e-12</wgt>
  <wgt id="780">1.01601e-12</wgt>
  <wgt id="781">3.22372e-12</wgt>
  <wgt id="782">3.49385e-12</wgt>
  <wgt id="783">1.55602e-12</wgt>
  <wgt id="784">1.98061e-12</wgt>
  <wgt id="785">4.3093e-12</wgt>
  <wgt id="786">1.52381e-12</wgt>
  <wgt id="787">3.74299e-12</wgt>
  <wgt id="788">5.12509e-13</wgt>
  <wgt id="789">1.92355e-12</wgt>
  <wgt id="790">1.55468e-12</wgt>
  <wgt id="791">3.28144e-12</wgt>
  <wgt id="792">3.88378e-12</wgt>
  <wgt id="793">2.66591e-12</wgt>
  <wgt id="794">1.41629e-12</wgt>
  <wgt id="795">4.01551e-12</wgt>
  <wgt id="796">4.10045e-12</wgt>
  <wgt id="797">3.73441e-12</wgt>
  <wgt id="798">2.16661e-12</wgt>
  <wgt id="799">3.67995e-12</wgt>
  <wgt id="800">2.13732e-12</wgt>
  <wgt id="801">2.78199e-12</wgt>
  <wgt id="802">1.35983e-12</wgt>
  <wgt id="803">4.64117e-12</wgt>
  <wgt id="804">4.00032e-12</wgt>
  <wgt id="805">3.9248e-12</wgt>
  <wgt id="806">3.1594e-12</wgt>
  <wgt id="807">2.79622e-12</wgt>
  <wgt id="808">2.75047e-12</wgt>
  <wgt id="809">2.53305e-12</wgt>
  <wgt id="810">3.49739e-12</wgt>
  <wgt id="811">3.02831e-12</wgt>
  <wgt id="812">1.59205e-12</wgt>
  <wgt id="813">1.72472e-12</wgt>
  <wgt id="814">1.94441e-12</wgt>
  <wgt id="815">1.59894e-12</wgt>
  <wgt id="816">1.77113e-12</wgt>
  <wgt id="817">2.91668e-12</wgt>
  <wgt id="818">3.83896e-12</wgt>
  <wgt id="819">1.70906e-12</wgt>
  <wgt id="820">2.68185e-12</wgt>
  <wgt id="821">3.54616e-12</wgt>
  <wgt id="822">2.2698e-12</wgt>
  <wgt id="823">3.73453e-12</wgt>
  <wgt id="824">4.42757e-12</wgt>
  <wgt id="825">1.26896e-12</wgt>
  <wgt id="826">3.65644e-12</wgt>
  <wgt id="827">1.14602e-12</wgt>
  <wgt id="828">3.73696e-12</wgt>
  <wgt id="829">2.96818e-12</wgt>
  <wgt id="830">1.20332e-12</wgt>
  <wgt id="831">3.4316e-12</wgt>
  <wgt id="832">5.29808e-12</wgt>
  <wgt id="833">2.24906e-12</wgt>
  <wgt id="834">5.17316e-12</wgt>
  <wgt id="835">1.92191e-12</wgt>
  <wgt id="836">2.30945e-12</wgt>
  <wgt id="837">3.44614e-12</wgt>
  <wgt id="838">2.2573e-12</wgt>
  <wgt id="839">3.42704e-12</wgt>
  <wgt id="840">2.40888e-12</wgt>
  <wgt id="841">4.14018e-12</wgt>
  <wgt id="842">2.84746e-12</wgt>
  <wgt id="843">3.09166e-12</wgt>
  <wgt id="844">3.23299e-12</wgt>
  <wgt id="845">5.19343e-12</wgt>
  <wgt id="846">2.81283e-12</wgt>
  <wgt id="847">3.07316e-12</wgt>
  <wgt id="848">1.6671e-12</wgt>
  <wgt id="849">3.16491e-12</wgt>
  <wgt id="850">4.56756e-12</wgt>
  <wgt id="851">3.44894e-12</wgt>
  <wgt id="852">1.38642e-12</wgt>
  <wgt id="853">3.61347e-12</wgt>
  <wgt id="854">4.12171e-12</wgt>
  <wgt id="855">3.64163e-12</wgt>
  <wgt id="856">1.19059e-12</wgt>
  <wgt id="857">2.4674e-12</wgt>
  <wgt id="858">2.70781e-12</wgt>
  <wgt id="859">2.73741e-12</wgt>
  <wgt id="860">3.74933e-12</wgt>
  <wgt id="861">2.31235e-12</wgt>
  <wgt id="862">2.9598e-12</wgt>
  <wgt id="863">3.3712e-12</wgt>
  <wgt id="864">2.95639e-12</wgt>
  <wgt id="865">4.84558e-12</wgt>
  <wgt id="866">5.32448e-12</wgt>
  <wgt id="867">2.92183e-12</wgt>
  <wgt id="868">3.03279e-12</wgt>
  <wgt id="869">1.53499e-12</wgt>
  <wgt id="870">1.89164e-12</wgt>
  <wgt id="871">1.92209e-12</wgt>
  <wgt id="872">4.26667e-12</wgt>
  <wgt id="873">2.20688e-12</wgt>
  <wgt id="874">3.2276e-12</wgt>
  <wgt id="875">2.14949e-12</wgt>
  <wgt id="876">4.07673e-12</wgt>
  <wgt id="877">3.34501e-12</wgt>
  <wgt id="878">2.26615e-12</wgt>
  <wgt id="879">4.3821e-12</wgt>
  <wgt id="880">4.42313e-12</wgt>
  <wgt id="881">4.815e-12</wgt>
  <wgt id="882">4.46784e-12</wgt>
  <wgt id="883">4.4095e-12</wgt>
  <wgt id="884">4.28202e-12</wgt>
  <wgt id="885">4.59805e-12</wgt>
  <wgt id="886">4.036e-12</wgt>
  <wgt id="887">4.63578e-12</wgt>
  <wgt id="888">4.34497e-12</wgt>
  <wgt id="889">4.4719e-12</wgt>
  <wgt id="890">4.55354e-12</wgt>
  <wgt id="891">4.23768e-12</wgt>
  <wgt id="892">4.62969e-12</wgt>
  <wgt id="893">4.52017e-12</wgt>
  <wgt id="894">4.49463e-12</wgt>
  <wgt id="895">4.26822e-12</wgt>
  <wgt id="896">5.84686e-12</wgt>
  <wgt id="897">4.837e-12</wgt>
  <wgt id="898">4.08974e-12</wgt>
  <wgt id="899">4.15739e-12</wgt>
  <wgt id="900">3.93952e-12</wgt>
  <wgt id="901">3.60629e-12</wgt>
  <wgt id="902">3.69037e-12</wgt>
  <wgt id="903">3.83786e-12</wgt>
  <wgt id="904">4.38371e-12</wgt>
  <wgt id="905">4.1908e-12</wgt>
  <wgt id="906">5.48354e-12</wgt>
  <wgt id="907">4.96206e-12</wgt>
  <wgt id="908">4.91489e-12</wgt>
  <wgt id="909">4.052e-12</wgt>
  <wgt id="910">4.09293e-12</wgt>
  <wgt id="911">4.19169e-12</wgt>
  <wgt id="912">4.24313e-12</wgt>
  <wgt id="913">3.64729e-12</wgt>
  <wgt id="914">4.66851e-12</wgt>
  <wgt id="915">4.11363e-12</wgt>
  <wgt id="916">4.7321e-12</wgt>
  <wgt id="917">3.94867e-12</wgt>
  <wgt id="918">4.17522e-12</wgt>
  <wgt id="919">4.21069e-12</wgt>
  <wgt id="920">3.80105e-12</wgt>
  <wgt id="921">4.47271e-12</wgt>
  <wgt id="922">3.97524e-12</wgt>
  <wgt id="923">4.45714e-12</wgt>
  <wgt id="924">3.73468e-12</wgt>
  <wgt id="925">3.42714e-12</wgt>
  <wgt id="926">4.95199e-12</wgt>
  <wgt id="927">4.76577e-12</wgt>
  <wgt id="928">4.60526e-12</wgt>
  <wgt id="929">4.36777e-12</wgt>
  <wgt id="930">4.39412e-12</wgt>
  <wgt id="931">4.297e-12</wgt>
  <wgt id="932">3.98266e-12</wgt>
  <wgt id="933">4.89572e-12</wgt>
  <wgt id="934">4.31818e-12</wgt>
  <wgt id="935">5.12731e-12</wgt>
  <wgt id="936">4.08073e-12</wgt>
  <wgt id="937">4.54702e-12</wgt>
  <wgt id="938">4.36543e-12</wgt>
  <wgt id="939">4.06045e-12</wgt>
  <wgt id="940">4.092e-12</wgt>
  <wgt id="941">4.14821e-12</wgt>
  <wgt id="942">4.67736e-12</wgt>
  <wgt id="943">5.22181e-12</wgt>
  <wgt id="944">4.53681e-12</wgt>
  <wgt id="945">4.20044e-12</wgt>
  <wgt id="946">3.9744e-12</wgt>
  <wgt id="947">4.29544e-12</wgt>
  <wgt id="948">4.81967e-12</wgt>
  <wgt id="949">4.95662e-12</wgt>
  <wgt id="950">3.63097e-12</wgt>
  <wgt id="951">4.21407e-12</wgt>
  <wgt id="952">4.58225e-12</wgt>
  <wgt id="953">4.7165e-12</wgt>
  <wgt id="954">4.43316e-12</wgt>
  <wgt id="955">3.92377e-12</wgt>
  <wgt id="956">3.91377e-12</wgt>
  <wgt id="957">4.5827e-12</wgt>
  <wgt id="958">4.28621e-12</wgt>
  <wgt id="959">4.25726e-12</wgt>
  <wgt id="960">3.77231e-12</wgt>
  <wgt id="961">4.27925e-12</wgt>
  <wgt id="962">4.77642e-12</wgt>
  <wgt id="963">4.21003e-12</wgt>
  <wgt id="964">4.87504e-12</wgt>
  <wgt id="965">4.90275e-12</wgt>
  <wgt id="966">4.49062e-12</wgt>
  <wgt id="967">4.70175e-12</wgt>
  <wgt id="968">4.42321e-12</wgt>
  <wgt id="969">4.44432e-12</wgt>
  <wgt id="970">4.48405e-12</wgt>
  <wgt id="971">3.9761e-12</wgt>
  <wgt id="972">4.62966e-12</wgt>
  <wgt id="973">4.09222e-12</wgt>
  <wgt id="974">5.44883e-12</wgt>
  <wgt id="975">4.24799e-12</wgt>
  <wgt id="976">4.39913e-12</wgt>
  <wgt id="977">3.45793e-12</wgt>
  <wgt id="978">4.60574e-12</wgt>
  <wgt id="979">5.09339e-12</wgt>
  <wgt id="980">4.35198e-12</wgt>
  <wgt id="981">4.4841e-12</wgt>
  <wgt id="982">4.24853e-12</wgt>
</rwgt>
</event>
<event>
 5   1  0.3028200E-11  0.2369420E+04  0.7818608E-02  0.7687907E-01
       21   -1    0    0  502  501  0.00000000000E+00  0.00000000000E+00  0.32174125496E+04  0.32174125496E+04  0.00000000000E+00 0. -1.
       21   -1    0    0  501  502 -0.00000000000E+00 -0.00000000000E+00 -0.43623180110E+03  0.43623180110E+03  0.00000000000E+00 0.  1.
       39    2    1    2    0    0  0.00000000000E+00  0.00000000000E+00  0.27811807485E+04  0.36536443507E+04  0.23694199049E+04 0.  0.
       25    1    3    3    0    0 -0.25775755301E+03  0.91520906392E+03  0.24632126922E+04  0.26433101131E+04  0.12500000000E+03 0.  0.
       25    1    3    3    0    0  0.25775755301E+03 -0.91520906392E+03  0.31796805623E+03  0.10103342376E+04  0.12500000000E+03 0.  0.
<mgrwt>
<rscale>  0 0.23694199E+04</rscale>
<asrwt>0</asrwt>
<pdfrwt beam="1">  1       21 0.49498653E+00 0.23694199E+04</pdfrwt>
<pdfrwt beam="2">  1       21 0.67112587E-01 0.23694199E+04</pdfrwt>
<totfact> 0.13953792E+00</totfact>
</mgrwt>
<rwgt>
  <wgt id="1">3.0282e-12</wgt>
  <wgt id="2">2.5453e-12</wgt>
  <wgt id="3">3.65961e-12</wgt>
  <wgt id="4">3.0282e-12</wgt>
  <wgt id="5">2.5453e-12</wgt>
  <wgt id="6">3.65961e-12</wgt>
  <wgt id="7">3.0282e-12</wgt>
  <wgt id="8">2.5453e-12</wgt>
  <wgt id="9">3.65961e-12</wgt>
  <wgt id="10">3.31345e-12</wgt>
  <wgt id="11">3.31821e-12</wgt>
  <wgt id="12">3.30834e-12</wgt>
  <wgt id="13">3.32111e-12</wgt>
  <wgt id="14">3.28735e-12</wgt>
  <wgt id="15">3.29989e-12</wgt>
  <wgt id="16">3.30891e-12</wgt>
  <wgt id="17">3.34986e-12</wgt>
  <wgt id="18">3.31155e-12</wgt>
  <wgt id="19">3.32351e-12</wgt>
  <wgt id="20">3.32962e-12</wgt>
  <wgt id="21">3.23939e-12</wgt>
  <wgt id="22">3.27827e-12</wgt>
  <wgt id="23">3.25319e-12</wgt>
  <wgt id="24">3.29682e-12</wgt>
  <wgt id="25">3.32727e-12</wgt>
  <wgt id="26">3.31812e-12</wgt>
  <wgt id="27">3.32014e-12</wgt>
  <wgt id="28">3.29513e-12</wgt>
  <wgt id="29">3.31679e-12</wgt>
  <wgt id="30">3.29594e-12</wgt>
  <wgt id="31">3.32441e-12</wgt>
  <wgt id="32">3.27561e-12</wgt>
  <wgt id="33">3.31417e-12</wgt>
  <wgt id="34">3.28225e-12</wgt>
  <wgt id="35">3.26987e-12</wgt>
  <wgt id="36">3.32356e-12</wgt>
  <wgt id="37">3.29659e-12</wgt>
  <wgt id="38">3.28429e-12</wgt>
  <wgt id="39">3.39626e-12</wgt>
  <wgt id="40">3.3482e-12</wgt>
  <wgt id="41">3.29972e-12</wgt>
  <wgt id="42">3.2846e-12</wgt>
  <wgt id="43">3.30637e-12</wgt>
  <wgt id="44">3.34094e-12</wgt>
  <wgt id="45">3.3394e-12</wgt>
  <wgt id="46">3.28148e-12</wgt>
  <wgt id="47">3.40043e-12</wgt>
  <wgt id="48">3.37692e-12</wgt>
  <wgt id="49">3.32491e-12</wgt>
  <wgt id="50">3.27527e-12</wgt>
  <wgt id="51">3.28799e-12</wgt>
  <wgt id="52">3.32085e-12</wgt>
  <wgt id="53">3.4453e-12</wgt>
  <wgt id="54">3.34858e-12</wgt>
  <wgt id="55">3.29485e-12</wgt>
  <wgt id="56">3.19329e-12</wgt>
  <wgt id="57">3.23501e-12</wgt>
  <wgt id="58">3.31579e-12</wgt>
  <wgt id="59">3.36064e-12</wgt>
  <wgt id="60">3.23867e-12</wgt>
  <wgt id="61">3.36713e-12</wgt>
  <wgt id="62">3.38153e-12</wgt>
  <wgt id="63">3.28812e-12</wgt>
  <wgt id="64">3.31627e-12</wgt>
  <wgt id="65">3.3079e-12</wgt>
  <wgt id="66">3.4015e-12</wgt>
  <wgt id="67">3.43356e-12</wgt>
  <wgt id="68">3.32072e-12</wgt>
  <wgt id="69">3.32859e-12</wgt>
  <wgt id="70">3.2412e-12</wgt>
  <wgt id="71">3.39106e-12</wgt>
  <wgt id="72">3.43862e-12</wgt>
  <wgt id="73">3.21735e-12</wgt>
  <wgt id="74">3.35959e-12</wgt>
  <wgt id="75">3.16132e-12</wgt>
  <wgt id="76">3.30743e-12</wgt>
  <wgt id="77">3.27436e-12</wgt>
  <wgt id="78">3.29638e-12</wgt>
  <wgt id="79">3.28835e-12</wgt>
  <wgt id="80">3.34932e-12</wgt>
  <wgt id="81">3.32796e-12</wgt>
  <wgt id="82">3.28906e-12</wgt>
  <wgt id="83">3.3005e-12</wgt>
  <wgt id="84">3.26796e-12</wgt>
  <wgt id="85">3.26854e-12</wgt>
  <wgt id="86">3.37299e-12</wgt>
  <wgt id="87">3.25797e-12</wgt>
  <wgt id="88">3.30844e-12</wgt>
  <wgt id="89">3.31664e-12</wgt>
  <wgt id="90">3.38571e-12</wgt>
  <wgt id="91">3.29995e-12</wgt>
  <wgt id="92">3.31867e-12</wgt>
  <wgt id="93">3.35981e-12</wgt>
  <wgt id="94">3.25469e-12</wgt>
  <wgt id="95">3.44127e-12</wgt>
  <wgt id="96">3.41281e-12</wgt>
  <wgt id="97">3.22937e-12</wgt>
  <wgt id="98">3.29905e-12</wgt>
  <wgt id="99">3.27148e-12</wgt>
  <wgt id="100">3.36689e-12</wgt>
  <wgt id="101">3.25574e-12</wgt>
  <wgt id="102">3.30013e-12</wgt>
  <wgt id="103">3.4097e-12</wgt>
  <wgt id="104">3.27601e-12</wgt>
  <wgt id="105">3.37661e-12</wgt>
  <wgt id="106">3.25231e-12</wgt>
  <wgt id="107">3.45126e-12</wgt>
  <wgt id="108">3.28832e-12</wgt>
  <wgt id="109">3.32339e-12</wgt>
  <wgt id="110">3.29536e-12</wgt>
  <wgt id="111">3.21865e-12</wgt>
  <wgt id="112">3.41365e-12</wgt>
  <wgt id="113">6.07495e-12</wgt>
  <wgt id="114">4.08437e-12</wgt>
  <wgt id="115">4.01743e-12</wgt>
  <wgt id="116">5.48718e-12</wgt>
  <wgt id="117">3.81391e-12</wgt>
  <wgt id="118">3.83036e-12</wgt>
  <wgt id="119">3.80457e-12</wgt>
  <wgt id="120">3.81357e-12</wgt>
  <wgt id="121">3.81405e-12</wgt>
  <wgt id="122">3.80936e-12</wgt>
  <wgt id="123">3.8203e-12</wgt>
  <wgt id="124">3.80969e-12</wgt>
  <wgt id="125">3.81654e-12</wgt>
  <wgt id="126">3.8164e-12</wgt>
  <wgt id="127">3.8123e-12</wgt>
  <wgt id="128">3.82479e-12</wgt>
  <wgt id="129">3.80315e-12</wgt>
  <wgt id="130">3.82425e-12</wgt>
  <wgt id="131">3.80267e-12</wgt>
  <wgt id="132">3.68914e-12</wgt>
  <wgt id="133">3.9648e-12</wgt>
  <wgt id="134">3.77536e-12</wgt>
  <wgt id="135">3.84444e-12</wgt>
  <wgt id="136">3.90063e-12</wgt>
  <wgt id="137">3.71106e-12</wgt>
  <wgt id="138">4.06392e-12</wgt>
  <wgt id="139">3.5873e-12</wgt>
  <wgt id="140">3.81573e-12</wgt>
  <wgt id="141">3.81085e-12</wgt>
  <wgt id="142">3.81093e-12</wgt>
  <wgt id="143">3.83611e-12</wgt>
  <wgt id="144">3.52555e-12</wgt>
  <wgt id="145">4.12499e-12</wgt>
  <wgt id="146">3.922e-12</wgt>
  <wgt id="147">3.72304e-12</wgt>
  <wgt id="148">3.8283e-12</wgt>
  <wgt id="149">3.81305e-12</wgt>
  <wgt id="150">3.84329e-12</wgt>
  <wgt id="151">3.80005e-12</wgt>
  <wgt id="152">3.81194e-12</wgt>
  <wgt id="153">3.81459e-12</wgt>
  <wgt id="154">3.76245e-12</wgt>
  <wgt id="155">3.85078e-12</wgt>
  <wgt id="156">4.10357e-12</wgt>
  <wgt id="157">3.59175e-12</wgt>
  <wgt id="158">4.4726e-12</wgt>
  <wgt id="159">4.49268e-12</wgt>
  <wgt id="160">4.45646e-12</wgt>
  <wgt id="161">4.4601e-12</wgt>
  <wgt id="162">4.48648e-12</wgt>
  <wgt id="163">4.46698e-12</wgt>
  <wgt id="164">4.48111e-12</wgt>
  <wgt id="165">4.47398e-12</wgt>
  <wgt id="166">4.47169e-12</wgt>
  <wgt id="167">4.46999e-12</wgt>
  <wgt id="168">4.47616e-12</wgt>
  <wgt id="169">4.45682e-12</wgt>
  <wgt id="170">4.48254e-12</wgt>
  <wgt id="171">4.47287e-12</wgt>
  <wgt id="172">4.47259e-12</wgt>
  <wgt id="173">4.44573e-12</wgt>
  <wgt id="174">4.48229e-12</wgt>
  <wgt id="175">4.32562e-12</wgt>
  <wgt id="176">4.66704e-12</wgt>
  <wgt id="177">4.48033e-12</wgt>
  <wgt id="178">4.46631e-12</wgt>
  <wgt id="179">4.81929e-12</wgt>
  <wgt id="180">3.97105e-12</wgt>
  <wgt id="181">4.26991e-12</wgt>
  <wgt id="182">4.61168e-12</wgt>
  <wgt id="183">4.34928e-12</wgt>
  <wgt id="184">4.53432e-12</wgt>
  <wgt id="185">4.39793e-12</wgt>
  <wgt id="186">4.56328e-12</wgt>
  <wgt id="187">4.39117e-12</wgt>
  <wgt id="188">4.61279e-12</wgt>
  <wgt id="189">4.42231e-12</wgt>
  <wgt id="190">4.49309e-12</wgt>
  <wgt id="191">4.49906e-12</wgt>
  <wgt id="192">4.45671e-12</wgt>
  <wgt id="193">4.57672e-12</wgt>
  <wgt id="194">4.41923e-12</wgt>
  <wgt id="195">4.1692e-12</wgt>
  <wgt id="196">4.94976e-12</wgt>
  <wgt id="197">4.49756e-12</wgt>
  <wgt id="198">4.46663e-12</wgt>
  <wgt id="199">4.4726e-12</wgt>
  <wgt id="200">4.52841e-12</wgt>
  <wgt id="201">4.51226e-12</wgt>
  <wgt id="202">4.49515e-12</wgt>
  <wgt id="203">4.47486e-12</wgt>
  <wgt id="204">4.46233e-12</wgt>
  <wgt id="205">4.45297e-12</wgt>
  <wgt id="206">4.47863e-12</wgt>
  <wgt id="207">4.50716e-12</wgt>
  <wgt id="208">4.45014e-12</wgt>
  <wgt id="209">4.49174e-12</wgt>
  <wgt id="210">4.4689e-12</wgt>
  <wgt id="211">4.47706e-12</wgt>
  <wgt id="212">4.47986e-12</wgt>
  <wgt id="213">4.4781e-12</wgt>
  <wgt id="214">4.4788e-12</wgt>
  <wgt id="215">4.48209e-12</wgt>
  <wgt id="216">4.47609e-12</wgt>
  <wgt id="217">4.48331e-12</wgt>
  <wgt id="218">4.47469e-12</wgt>
  <wgt id="219">4.47189e-12</wgt>
  <wgt id="220">4.48278e-12</wgt>
  <wgt id="221">4.48786e-12</wgt>
  <wgt id="222">4.45353e-12</wgt>
  <wgt id="223">4.15407e-12</wgt>
  <wgt id="224">4.77994e-12</wgt>
  <wgt id="225">4.41947e-12</wgt>
  <wgt id="226">4.55486e-12</wgt>
  <wgt id="227">4.43206e-12</wgt>
  <wgt id="228">4.49901e-12</wgt>
  <wgt id="229">4.40235e-12</wgt>
  <wgt id="230">4.51624e-12</wgt>
  <wgt id="231">4.70555e-12</wgt>
  <wgt id="232">4.29658e-12</wgt>
  <wgt id="233">4.42457e-12</wgt>
  <wgt id="234">4.56991e-12</wgt>
  <wgt id="235">4.03457e-12</wgt>
  <wgt id="236">4.84125e-12</wgt>
  <wgt id="237">4.24043e-12</wgt>
  <wgt id="238">4.55869e-12</wgt>
  <wgt id="239">4.38629e-12</wgt>
  <wgt id="240">4.64551e-12</wgt>
  <wgt id="241">4.39635e-12</wgt>
  <wgt id="242">4.57201e-12</wgt>
  <wgt id="243">4.6308e-12</wgt>
  <wgt id="244">4.42758e-12</wgt>
  <wgt id="245">4.48098e-12</wgt>
  <wgt id="246">4.48283e-12</wgt>
  <wgt id="247">4.47863e-12</wgt>
  <wgt id="248">4.54809e-12</wgt>
  <wgt id="249">4.52674e-12</wgt>
  <wgt id="250">4.49719e-12</wgt>
  <wgt id="251">4.46826e-12</wgt>
  <wgt id="252">4.44828e-12</wgt>
  <wgt id="253">4.43632e-12</wgt>
  <wgt id="254">4.17304e-12</wgt>
  <wgt id="255">4.17632e-12</wgt>
  <wgt id="256">4.16939e-12</wgt>
  <wgt id="257">4.17633e-12</wgt>
  <wgt id="258">4.17046e-12</wgt>
  <wgt id="259">4.20152e-12</wgt>
  <wgt id="260">4.14542e-12</wgt>
  <wgt id="261">4.18112e-12</wgt>
  <wgt id="262">4.16326e-12</wgt>
  <wgt id="263">4.16768e-12</wgt>
  <wgt id="264">4.17936e-12</wgt>
  <wgt id="265">4.16766e-12</wgt>
  <wgt id="266">4.18351e-12</wgt>
  <wgt id="267">4.17414e-12</wgt>
  <wgt id="268">4.17161e-12</wgt>
  <wgt id="269">4.18383e-12</wgt>
  <wgt id="270">4.16559e-12</wgt>
  <wgt id="271">4.14986e-12</wgt>
  <wgt id="272">4.19903e-12</wgt>
  <wgt id="273">4.16513e-12</wgt>
  <wgt id="274">4.17892e-12</wgt>
  <wgt id="275">4.12709e-12</wgt>
  <wgt id="276">4.22096e-12</wgt>
  <wgt id="277">4.15641e-12</wgt>
  <wgt id="278">4.18793e-12</wgt>
  <wgt id="279">4.09087e-12</wgt>
  <wgt id="280">4.27736e-12</wgt>
  <wgt id="281">4.13087e-12</wgt>
  <wgt id="282">4.21719e-12</wgt>
  <wgt id="283">3.98043e-12</wgt>
  <wgt id="284">4.42325e-12</wgt>
  <wgt id="285">3.8564e-12</wgt>
  <wgt id="286">4.45545e-12</wgt>
  <wgt id="287">4.19173e-12</wgt>
  <wgt id="288">4.14946e-12</wgt>
  <wgt id="289">4.21904e-12</wgt>
  <wgt id="290">4.0779e-12</wgt>
  <wgt id="291">4.15171e-12</wgt>
  <wgt id="292">4.15804e-12</wgt>
  <wgt id="293">4.12179e-12</wgt>
  <wgt id="294">4.22431e-12</wgt>
  <wgt id="295">4.04674e-12</wgt>
  <wgt id="296">4.32761e-12</wgt>
  <wgt id="297">4.1276e-12</wgt>
  <wgt id="298">4.21123e-12</wgt>
  <wgt id="299">4.15569e-12</wgt>
  <wgt id="300">4.21918e-12</wgt>
  <wgt id="301">3.99796e-12</wgt>
  <wgt id="302">4.55e-12</wgt>
  <wgt id="303">4.07899e-12</wgt>
  <wgt id="304">4.22456e-12</wgt>
  <wgt id="305">3.99092e-12</wgt>
  <wgt id="306">3.99399e-12</wgt>
  <wgt id="307">3.98757e-12</wgt>
  <wgt id="308">3.99441e-12</wgt>
  <wgt id="309">3.98863e-12</wgt>
  <wgt id="310">4.01839e-12</wgt>
  <wgt id="311">3.96558e-12</wgt>
  <wgt id="312">4.00032e-12</wgt>
  <wgt id="313">3.98092e-12</wgt>
  <wgt id="314">3.98478e-12</wgt>
  <wgt id="315">3.99713e-12</wgt>
  <wgt id="316">3.98513e-12</wgt>
  <wgt id="317">4.00377e-12</wgt>
  <wgt id="318">3.99367e-12</wgt>
  <wgt id="319">3.98625e-12</wgt>
  <wgt id="320">4.00326e-12</wgt>
  <wgt id="321">3.98431e-12</wgt>
  <wgt id="322">3.9696e-12</wgt>
  <wgt id="323">4.01623e-12</wgt>
  <wgt id="324">3.98887e-12</wgt>
  <wgt id="325">3.99295e-12</wgt>
  <wgt id="326">3.95236e-12</wgt>
  <wgt id="327">4.04096e-12</wgt>
  <wgt id="328">3.98345e-12</wgt>
  <wgt id="329">3.99394e-12</wgt>
  <wgt id="330">4.10583e-12</wgt>
  <wgt id="331">3.88278e-12</wgt>
  <wgt id="332">3.95441e-12</wgt>
  <wgt id="333">4.02414e-12</wgt>
  <wgt id="334">3.85733e-12</wgt>
  <wgt id="335">4.16418e-12</wgt>
  <wgt id="336">3.78294e-12</wgt>
  <wgt id="337">4.26104e-12</wgt>
  <wgt id="338">4.05383e-12</wgt>
  <wgt id="339">3.93503e-12</wgt>
  <wgt id="340">4.02707e-12</wgt>
  <wgt id="341">3.90764e-12</wgt>
  <wgt id="342">3.98064e-12</wgt>
  <wgt id="343">3.96173e-12</wgt>
  <wgt id="344">3.95048e-12</wgt>
  <wgt id="345">4.03833e-12</wgt>
  <wgt id="346">3.86951e-12</wgt>
  <wgt id="347">4.12749e-12</wgt>
  <wgt id="348">3.94443e-12</wgt>
  <wgt id="349">4.02798e-12</wgt>
  <wgt id="350">3.97116e-12</wgt>
  <wgt id="351">4.04223e-12</wgt>
  <wgt id="352">3.83322e-12</wgt>
  <wgt id="353">4.31299e-12</wgt>
  <wgt id="354">3.87256e-12</wgt>
  <wgt id="355">4.059e-12</wgt>
  <wgt id="356">4.17304e-12</wgt>
  <wgt id="357">3.95705e-12</wgt>
  <wgt id="358">3.99092e-12</wgt>
  <wgt id="359">4.12356e-12</wgt>
  <wgt id="360">4.38554e-12</wgt>
  <wgt id="361">4.21957e-12</wgt>
  <wgt id="362">4.34881e-12</wgt>
  <wgt id="363">4.33314e-12</wgt>
  <wgt id="364">4.29041e-12</wgt>
  <wgt id="365">4.26671e-12</wgt>
  <wgt id="366">4.24572e-12</wgt>
  <wgt id="367">4.21309e-12</wgt>
  <wgt id="368">4.18497e-12</wgt>
  <wgt id="369">4.15457e-12</wgt>
  <wgt id="370">4.21957e-12</wgt>
  <wgt id="371">4.23326e-12</wgt>
  <wgt id="372">4.22508e-12</wgt>
  <wgt id="373">4.21594e-12</wgt>
  <wgt id="374">4.23964e-12</wgt>
  <wgt id="375">6.1712e-12</wgt>
  <wgt id="376">6.17122e-12</wgt>
  <wgt id="377">6.17148e-12</wgt>
  <wgt id="378">6.19883e-12</wgt>
  <wgt id="379">6.14394e-12</wgt>
  <wgt id="380">6.1916e-12</wgt>
  <wgt id="381">6.16308e-12</wgt>
  <wgt id="382">6.18923e-12</wgt>
  <wgt id="383">6.15358e-12</wgt>
  <wgt id="384">6.17597e-12</wgt>
  <wgt id="385">6.1668e-12</wgt>
  <wgt id="386">6.17386e-12</wgt>
  <wgt id="387">6.17025e-12</wgt>
  <wgt id="388">6.16763e-12</wgt>
  <wgt id="389">6.17563e-12</wgt>
  <wgt id="390">6.17638e-12</wgt>
  <wgt id="391">6.16601e-12</wgt>
  <wgt id="392">6.0994e-12</wgt>
  <wgt id="393">6.21205e-12</wgt>
  <wgt id="394">6.16521e-12</wgt>
  <wgt id="395">6.17944e-12</wgt>
  <wgt id="396">6.19151e-12</wgt>
  <wgt id="397">6.15695e-12</wgt>
  <wgt id="398">6.18585e-12</wgt>
  <wgt id="399">6.1576e-12</wgt>
  <wgt id="400">6.15772e-12</wgt>
  <wgt id="401">6.20356e-12</wgt>
  <wgt id="402">6.06757e-12</wgt>
  <wgt id="403">6.27665e-12</wgt>
  <wgt id="404">6.49008e-12</wgt>
  <wgt id="405">5.44296e-12</wgt>
  <wgt id="406">5.9401e-12</wgt>
  <wgt id="407">6.70388e-12</wgt>
  <wgt id="408">6.29226e-12</wgt>
  <wgt id="409">5.95562e-12</wgt>
  <wgt id="410">5.80456e-12</wgt>
  <wgt id="411">6.35622e-12</wgt>
  <wgt id="412">6.14586e-12</wgt>
  <wgt id="413">6.20671e-12</wgt>
  <wgt id="414">6.03019e-12</wgt>
  <wgt id="415">6.28129e-12</wgt>
  <wgt id="416">6.57141e-12</wgt>
  <wgt id="417">5.64104e-12</wgt>
  <wgt id="418">6.19611e-12</wgt>
  <wgt id="419">6.03761e-12</wgt>
  <wgt id="420">6.54903e-12</wgt>
  <wgt id="421">5.90293e-12</wgt>
  <wgt id="422">6.02783e-12</wgt>
  <wgt id="423">6.23404e-12</wgt>
  <wgt id="424">6.59307e-12</wgt>
  <wgt id="425">5.87357e-12</wgt>
  <wgt id="426">6.1712e-12</wgt>
  <wgt id="427">5.80188e-12</wgt>
  <wgt id="428">6.91131e-12</wgt>
  <wgt id="429">6.36246e-12</wgt>
  <wgt id="430">6.73815e-12</wgt>
  <wgt id="431">6.65284e-12</wgt>
  <wgt id="432">6.58598e-12</wgt>
  <wgt id="433">6.52031e-12</wgt>
  <wgt id="434">6.42927e-12</wgt>
  <wgt id="435">6.28098e-12</wgt>
  <wgt id="436">6.21023e-12</wgt>
  <wgt id="437">6.1369e-12</wgt>
  <wgt id="438">6.36246e-12</wgt>
  <wgt id="439">6.37808e-12</wgt>
  <wgt id="440">6.36583e-12</wgt>
  <wgt id="441">6.36197e-12</wgt>
  <wgt id="442">6.36244e-12</wgt>
  <wgt id="443">4.16536e-12</wgt>
  <wgt id="444">4.25073e-12</wgt>
  <wgt id="445">4.32015e-12</wgt>
  <wgt id="446">4.14851e-12</wgt>
  <wgt id="447">4.13779e-12</wgt>
  <wgt id="448">4.09632e-12</wgt>
  <wgt id="449">4.35165e-12</wgt>
  <wgt id="450">4.29443e-12</wgt>
  <wgt id="451">4.15491e-12</wgt>
  <wgt id="452">4.23839e-12</wgt>
  <wgt id="453">4.35754e-12</wgt>
  <wgt id="454">3.83433e-12</wgt>
  <wgt id="455">4.26776e-12</wgt>
  <wgt id="456">4.34378e-12</wgt>
  <wgt id="457">4.17415e-12</wgt>
  <wgt id="458">4.27249e-12</wgt>
  <wgt id="459">4.19942e-12</wgt>
  <wgt id="460">4.38086e-12</wgt>
  <wgt id="461">4.0075e-12</wgt>
  <wgt id="462">4.12707e-12</wgt>
  <wgt id="463">4.06065e-12</wgt>
  <wgt id="464">4.18029e-12</wgt>
  <wgt id="465">4.19929e-12</wgt>
  <wgt id="466">3.90707e-12</wgt>
  <wgt id="467">4.15443e-12</wgt>
  <wgt id="468">4.20004e-12</wgt>
  <wgt id="469">4.14384e-12</wgt>
  <wgt id="470">4.0443e-12</wgt>
  <wgt id="471">4.06774e-12</wgt>
  <wgt id="472">4.19402e-12</wgt>
  <wgt id="473">3.98437e-12</wgt>
  <wgt id="474">3.0282e-12</wgt>
  <wgt id="475">3.17523e-12</wgt>
  <wgt id="476">3.29656e-12</wgt>
  <wgt id="477">3.69885e-12</wgt>
  <wgt id="478">3.48583e-12</wgt>
  <wgt id="479">2.49628e-12</wgt>
  <wgt id="480">3.38151e-12</wgt>
  <wgt id="481">3.25967e-12</wgt>
  <wgt id="482">3.89275e-12</wgt>
  <wgt id="483">3.08147e-12</wgt>
  <wgt id="484">3.664e-12</wgt>
  <wgt id="485">2.9807e-12</wgt>
  <wgt id="486">3.33635e-12</wgt>
  <wgt id="487">2.82417e-12</wgt>
  <wgt id="488">2.34933e-12</wgt>
  <wgt id="489">1.90633e-12</wgt>
  <wgt id="490">3.39117e-12</wgt>
  <wgt id="491">3.06738e-12</wgt>
  <wgt id="492">3.12294e-12</wgt>
  <wgt id="493">2.04058e-12</wgt>
  <wgt id="494">2.10756e-12</wgt>
  <wgt id="495">3.56662e-12</wgt>
  <wgt id="496">2.0417e-12</wgt>
  <wgt id="497">2.85066e-12</wgt>
  <wgt id="498">3.09138e-12</wgt>
  <wgt id="499">3.05104e-12</wgt>
  <wgt id="500">3.72364e-12</wgt>
  <wgt id="501">3.49306e-12</wgt>
  <wgt id="502">3.84125e-12</wgt>
  <wgt id="503">2.96786e-12</wgt>
  <wgt id="504">3.17239e-12</wgt>
  <wgt id="505">3.5939e-12</wgt>
  <wgt id="506">2.43177e-12</wgt>
  <wgt id="507">2.70589e-12</wgt>
  <wgt id="508">3.17774e-12</wgt>
  <wgt id="509">3.41695e-12</wgt>
  <wgt id="510">2.54332e-12</wgt>
  <wgt id="511">2.95366e-12</wgt>
  <wgt id="512">3.19967e-12</wgt>
  <wgt id="513">3.82669e-12</wgt>
  <wgt id="514">3.48216e-12</wgt>
  <wgt id="515">3.87934e-12</wgt>
  <wgt id="516">3.61526e-12</wgt>
  <wgt id="517">3.04016e-12</wgt>
  <wgt id="518">3.59527e-12</wgt>
  <wgt id="519">3.24133e-12</wgt>
  <wgt id="520">2.25982e-12</wgt>
  <wgt id="521">2.76111e-12</wgt>
  <wgt id="522">2.8675e-12</wgt>
  <wgt id="523">3.28635e-12</wgt>
  <wgt id="524">2.69714e-12</wgt>
  <wgt id="525">3.22122e-12</wgt>
  <wgt id="526">3.33519e-12</wgt>
  <wgt id="527">3.15424e-12</wgt>
  <wgt id="528">2.35133e-12</wgt>
  <wgt id="529">1.81747e-12</wgt>
  <wgt id="530">3.46633e-12</wgt>
  <wgt id="531">2.874e-12</wgt>
  <wgt id="532">3.10102e-12</wgt>
  <wgt id="533">3.2831e-12</wgt>
  <wgt id="534">2.42827e-12</wgt>
  <wgt id="535">3.595e-12</wgt>
  <wgt id="536">3.64195e-12</wgt>
  <wgt id="537">2.33225e-12</wgt>
  <wgt id="538">2.87597e-12</wgt>
  <wgt id="539">3.08382e-12</wgt>
  <wgt id="540">2.64413e-12</wgt>
  <wgt id="541">3.08338e-12</wgt>
  <wgt id="542">2.26332e-12</wgt>
  <wgt id="543">2.456e-12</wgt>
  <wgt id="544">2.75577e-12</wgt>
  <wgt id="545">2.59909e-12</wgt>
  <wgt id="546">2.71302e-12</wgt>
  <wgt id="547">2.67253e-12</wgt>
  <wgt id="548">3.68748e-12</wgt>
  <wgt id="549">2.89726e-12</wgt>
  <wgt id="550">2.08517e-12</wgt>
  <wgt id="551">2.34593e-12</wgt>
  <wgt id="552">3.71068e-12</wgt>
  <wgt id="553">2.62991e-12</wgt>
  <wgt id="554">2.73937e-12</wgt>
  <wgt id="555">2.87576e-12</wgt>
  <wgt id="556">3.39117e-12</wgt>
  <wgt id="557">2.71527e-12</wgt>
  <wgt id="558">2.9029e-12</wgt>
  <wgt id="559">3.17005e-12</wgt>
  <wgt id="560">3.07972e-12</wgt>
  <wgt id="561">3.61231e-12</wgt>
  <wgt id="562">3.26586e-12</wgt>
  <wgt id="563">3.19571e-12</wgt>
  <wgt id="564">3.69528e-12</wgt>
  <wgt id="565">3.79026e-12</wgt>
  <wgt id="566">2.21324e-12</wgt>
  <wgt id="567">3.43173e-12</wgt>
  <wgt id="568">2.21335e-12</wgt>
  <wgt id="569">3.20444e-12</wgt>
  <wgt id="570">3.20163e-12</wgt>
  <wgt id="571">3.59888e-12</wgt>
  <wgt id="572">2.31963e-12</wgt>
  <wgt id="573">2.98806e-12</wgt>
  <wgt id="574">3.19577e-12</wgt>
  <wgt id="575">3.02049e-12</wgt>
  <wgt id="576">3.2313e-12</wgt>
  <wgt id="577">3.14583e-12</wgt>
  <wgt id="578">1.91674e-12</wgt>
  <wgt id="579">3.14345e-12</wgt>
  <wgt id="580">3.02367e-12</wgt>
  <wgt id="581">3.66939e-12</wgt>
  <wgt id="582">2.74245e-12</wgt>
  <wgt id="583">3.49183e-12</wgt>
  <wgt id="584">3.31519e-12</wgt>
  <wgt id="585">2.85256e-12</wgt>
  <wgt id="586">2.70902e-12</wgt>
  <wgt id="587">3.03846e-12</wgt>
  <wgt id="588">4.31437e-12</wgt>
  <wgt id="589">3.65496e-12</wgt>
  <wgt id="590">3.30449e-12</wgt>
  <wgt id="591">3.30624e-12</wgt>
  <wgt id="592">3.52821e-12</wgt>
  <wgt id="593">3.16525e-12</wgt>
  <wgt id="594">3.11376e-12</wgt>
  <wgt id="595">3.57374e-12</wgt>
  <wgt id="596">3.24063e-12</wgt>
  <wgt id="597">2.63712e-12</wgt>
  <wgt id="598">4.06949e-12</wgt>
  <wgt id="599">3.63038e-12</wgt>
  <wgt id="600">3.07169e-12</wgt>
  <wgt id="601">2.81079e-12</wgt>
  <wgt id="602">2.22809e-12</wgt>
  <wgt id="603">2.02848e-12</wgt>
  <wgt id="604">3.67513e-12</wgt>
  <wgt id="605">2.76639e-12</wgt>
  <wgt id="606">1.37158e-12</wgt>
  <wgt id="607">3.31793e-12</wgt>
  <wgt id="608">3.01979e-12</wgt>
  <wgt id="609">2.95981e-12</wgt>
  <wgt id="610">2.41139e-12</wgt>
  <wgt id="611">2.63007e-12</wgt>
  <wgt id="612">2.79739e-12</wgt>
  <wgt id="613">2.5408e-12</wgt>
  <wgt id="614">3.39971e-12</wgt>
  <wgt id="615">3.17467e-12</wgt>
  <wgt id="616">2.41883e-12</wgt>
  <wgt id="617">3.03917e-12</wgt>
  <wgt id="618">3.59642e-12</wgt>
  <wgt id="619">2.81468e-12</wgt>
  <wgt id="620">3.20145e-12</wgt>
  <wgt id="621">3.40743e-12</wgt>
  <wgt id="622">3.03846e-12</wgt>
  <wgt id="623">3.0475e-12</wgt>
  <wgt id="624">2.57531e-12</wgt>
  <wgt id="625">2.75386e-12</wgt>
  <wgt id="626">7.10522e-13</wgt>
  <wgt id="627">2.67268e-12</wgt>
  <wgt id="628">3.24503e-12</wgt>
  <wgt id="629">3.80356e-12</wgt>
  <wgt id="630">3.67265e-12</wgt>
  <wgt id="631">3.78426e-12</wgt>
  <wgt id="632">2.80403e-12</wgt>
  <wgt id="633">3.05635e-12</wgt>
  <wgt id="634">2.43695e-12</wgt>
  <wgt id="635">2.99719e-12</wgt>
  <wgt id="636">2.31709e-12</wgt>
  <wgt id="637">2.91389e-12</wgt>
  <wgt id="638">2.77829e-12</wgt>
  <wgt id="639">2.39586e-12</wgt>
  <wgt id="640">2.26152e-12</wgt>
  <wgt id="641">3.70989e-12</wgt>
  <wgt id="642">2.4455e-12</wgt>
  <wgt id="643">2.94758e-12</wgt>
  <wgt id="644">3.1913e-12</wgt>
  <wgt id="645">3.61637e-12</wgt>
  <wgt id="646">2.05914e-12</wgt>
  <wgt id="647">3.61453e-12</wgt>
  <wgt id="648">3.64917e-12</wgt>
  <wgt id="649">3.67576e-12</wgt>
  <wgt id="650">3.21055e-12</wgt>
  <wgt id="651">2.91143e-12</wgt>
  <wgt id="652">2.60515e-12</wgt>
  <wgt id="653">3.06983e-12</wgt>
  <wgt id="654">3.09988e-12</wgt>
  <wgt id="655">2.23272e-12</wgt>
  <wgt id="656">3.63869e-12</wgt>
  <wgt id="657">3.68781e-12</wgt>
  <wgt id="658">2.62317e-12</wgt>
  <wgt id="659">3.35936e-12</wgt>
  <wgt id="660">2.36649e-12</wgt>
  <wgt id="661">2.7566e-12</wgt>
  <wgt id="662">3.2633e-12</wgt>
  <wgt id="663">3.44764e-12</wgt>
  <wgt id="664">3.51566e-12</wgt>
  <wgt id="665">2.63638e-12</wgt>
  <wgt id="666">2.82032e-12</wgt>
  <wgt id="667">2.99499e-12</wgt>
  <wgt id="668">3.05483e-12</wgt>
  <wgt id="669">2.60625e-12</wgt>
  <wgt id="670">3.51957e-12</wgt>
  <wgt id="671">3.0178e-12</wgt>
  <wgt id="672">3.637e-12</wgt>
  <wgt id="673">3.55582e-12</wgt>
  <wgt id="674">3.06662e-12</wgt>
  <wgt id="675">2.71269e-12</wgt>
  <wgt id="676">4.30113e-12</wgt>
  <wgt id="677">4.22219e-12</wgt>
  <wgt id="678">5.27323e-12</wgt>
  <wgt id="679">4.40516e-12</wgt>
  <wgt id="680">4.69399e-12</wgt>
  <wgt id="681">4.13694e-12</wgt>
  <wgt id="682">5.09458e-12</wgt>
  <wgt id="683">3.8541e-12</wgt>
  <wgt id="684">5.32458e-12</wgt>
  <wgt id="685">4.70433e-12</wgt>
  <wgt id="686">4.7404e-12</wgt>
  <wgt id="687">3.6772e-12</wgt>
  <wgt id="688">4.68801e-12</wgt>
  <wgt id="689">5.94065e-12</wgt>
  <wgt id="690">5.16028e-12</wgt>
  <wgt id="691">5.15146e-12</wgt>
  <wgt id="692">3.66999e-12</wgt>
  <wgt id="693">7.44934e-12</wgt>
  <wgt id="694">5.79805e-12</wgt>
  <wgt id="695">2.96376e-12</wgt>
  <wgt id="696">2.62382e-12</wgt>
  <wgt id="697">2.88323e-12</wgt>
  <wgt id="698">2.2157e-12</wgt>
  <wgt id="699">3.60165e-12</wgt>
  <wgt id="700">2.56381e-12</wgt>
  <wgt id="701">4.67697e-12</wgt>
  <wgt id="702">3.81177e-12</wgt>
  <wgt id="703">6.97173e-12</wgt>
  <wgt id="704">5.67006e-12</wgt>
  <wgt id="705">4.2784e-12</wgt>
  <wgt id="706">2.46965e-12</wgt>
  <wgt id="707">3.51433e-12</wgt>
  <wgt id="708">3.7992e-12</wgt>
  <wgt id="709">3.45859e-12</wgt>
  <wgt id="710">8.14488e-13</wgt>
  <wgt id="711">5.16777e-12</wgt>
  <wgt id="712">4.09846e-12</wgt>
  <wgt id="713">4.88281e-12</wgt>
  <wgt id="714">2.87869e-12</wgt>
  <wgt id="715">2.94799e-12</wgt>
  <wgt id="716">3.6735e-12</wgt>
  <wgt id="717">2.28567e-12</wgt>
  <wgt id="718">4.15823e-12</wgt>
  <wgt id="719">3.52822e-12</wgt>
  <wgt id="720">3.46116e-12</wgt>
  <wgt id="721">2.73357e-12</wgt>
  <wgt id="722">4.85936e-13</wgt>
  <wgt id="723">6.37616e-12</wgt>
  <wgt id="724">5.02718e-12</wgt>
  <wgt id="725">5.04968e-12</wgt>
  <wgt id="726">4.38503e-12</wgt>
  <wgt id="727">4.53867e-12</wgt>
  <wgt id="728">6.07075e-12</wgt>
  <wgt id="729">2.41384e-12</wgt>
  <wgt id="730">5.77898e-12</wgt>
  <wgt id="731">4.23338e-12</wgt>
  <wgt id="732">5.35266e-12</wgt>
  <wgt id="733">3.76271e-12</wgt>
  <wgt id="734">4.70063e-12</wgt>
  <wgt id="735">3.31599e-12</wgt>
  <wgt id="736">3.32205e-12</wgt>
  <wgt id="737">1.65499e-12</wgt>
  <wgt id="738">3.4593e-12</wgt>
  <wgt id="739">4.4797e-12</wgt>
  <wgt id="740">6.13952e-12</wgt>
  <wgt id="741">5.45735e-12</wgt>
  <wgt id="742">3.19239e-12</wgt>
  <wgt id="743">3.8715e-12</wgt>
  <wgt id="744">3.93588e-12</wgt>
  <wgt id="745">5.73759e-12</wgt>
  <wgt id="746">6.13873e-12</wgt>
  <wgt id="747">3.23412e-12</wgt>
  <wgt id="748">4.26415e-12</wgt>
  <wgt id="749">5.68875e-12</wgt>
  <wgt id="750">5.52301e-12</wgt>
  <wgt id="751">4.85636e-12</wgt>
  <wgt id="752">3.36028e-12</wgt>
  <wgt id="753">3.36579e-12</wgt>
  <wgt id="754">4.31076e-12</wgt>
  <wgt id="755">3.42042e-12</wgt>
  <wgt id="756">3.54824e-12</wgt>
  <wgt id="757">3.46298e-12</wgt>
  <wgt id="758">4.56314e-12</wgt>
  <wgt id="759">4.51987e-12</wgt>
  <wgt id="760">3.11837e-12</wgt>
  <wgt id="761">5.81968e-12</wgt>
  <wgt id="762">5.39045e-12</wgt>
  <wgt id="763">6.62868e-12</wgt>
  <wgt id="764">5.58403e-12</wgt>
  <wgt id="765">5.02169e-12</wgt>
  <wgt id="766">5.45913e-12</wgt>
  <wgt id="767">5.20538e-12</wgt>
  <wgt id="768">3.61975e-12</wgt>
  <wgt id="769">4.64906e-12</wgt>
  <wgt id="770">1.27616e-12</wgt>
  <wgt id="771">7.39954e-12</wgt>
  <wgt id="772">3.90278e-12</wgt>
  <wgt id="773">5.07354e-12</wgt>
  <wgt id="774">3.19133e-12</wgt>
  <wgt id="775">5.25731e-12</wgt>
  <wgt id="776">6.7384e-12</wgt>
  <wgt id="777">2.13346e-12</wgt>
  <wgt id="778">1.77211e-12</wgt>
  <wgt id="779">7.65997e-20</wgt>
  <wgt id="780">7.61619e-20</wgt>
  <wgt id="781">1.13146e-13</wgt>
  <wgt id="782">4.25355e-13</wgt>
  <wgt id="783">7.68661e-20</wgt>
  <wgt id="784">7.71428e-20</wgt>
  <wgt id="785">4.42534e-12</wgt>
  <wgt id="786">7.57764e-20</wgt>
  <wgt id="787">3.61614e-12</wgt>
  <wgt id="788">7.40233e-20</wgt>
  <wgt id="789">8.06331e-20</wgt>
  <wgt id="790">7.57691e-20</wgt>
  <wgt id="791">4.80977e-13</wgt>
  <wgt id="792">1.71134e-12</wgt>
  <wgt id="793">7.77697e-20</wgt>
  <wgt id="794">7.56141e-20</wgt>
  <wgt id="795">3.73476e-12</wgt>
  <wgt id="796">4.44896e-12</wgt>
  <wgt id="797">3.31861e-12</wgt>
  <wgt id="798">7.60372e-20</wgt>
  <wgt id="799">3.90386e-12</wgt>
  <wgt id="800">7.78894e-20</wgt>
  <wgt id="801">2.91134e-12</wgt>
  <wgt id="802">7.72231e-20</wgt>
  <wgt id="803">2.75868e-12</wgt>
  <wgt id="804">3.96253e-12</wgt>
  <wgt id="805">3.91449e-12</wgt>
  <wgt id="806">7.13292e-13</wgt>
  <wgt id="807">7.88197e-20</wgt>
  <wgt id="808">2.66943e-12</wgt>
  <wgt id="809">7.94362e-20</wgt>
  <wgt id="810">6.73781e-12</wgt>
  <wgt id="811">2.56508e-12</wgt>
  <wgt id="812">7.69021e-20</wgt>
  <wgt id="813">7.60529e-20</wgt>
  <wgt id="814">7.42374e-20</wgt>
  <wgt id="815">7.64929e-20</wgt>
  <wgt id="816">7.75351e-20</wgt>
  <wgt id="817">2.40869e-12</wgt>
  <wgt id="818">3.57327e-12</wgt>
  <wgt id="819">7.73206e-20</wgt>
  <wgt id="820">7.85192e-20</wgt>
  <wgt id="821">3.12631e-12</wgt>
  <wgt id="822">7.8494e-20</wgt>
  <wgt id="823">4.17721e-12</wgt>
  <wgt id="824">2.64474e-12</wgt>
  <wgt id="825">7.56067e-20</wgt>
  <wgt id="826">3.98455e-12</wgt>
  <wgt id="827">7.62877e-20</wgt>
  <wgt id="828">2.48185e-12</wgt>
  <wgt id="829">2.05726e-12</wgt>
  <wgt id="830">7.59492e-20</wgt>
  <wgt id="831">3.22211e-12</wgt>
  <wgt id="832">6.23385e-12</wgt>
  <wgt id="833">7.85723e-20</wgt>
  <wgt id="834">6.56707e-12</wgt>
  <wgt id="835">7.71751e-20</wgt>
  <wgt id="836">8.09637e-20</wgt>
  <wgt id="837">3.20685e-12</wgt>
  <wgt id="838">7.71933e-20</wgt>
  <wgt id="839">4.3224e-12</wgt>
  <wgt id="840">4.07225e-13</wgt>
  <wgt id="841">3.64545e-12</wgt>
  <wgt id="842">7.93503e-20</wgt>
  <wgt id="843">3.71992e-13</wgt>
  <wgt id="844">3.21117e-12</wgt>
  <wgt id="845">5.6753e-12</wgt>
  <wgt id="846">8.04134e-20</wgt>
  <wgt id="847">2.72859e-12</wgt>
  <wgt id="848">7.79509e-20</wgt>
  <wgt id="849">3.27791e-12</wgt>
  <wgt id="850">5.07576e-12</wgt>
  <wgt id="851">3.18241e-12</wgt>
  <wgt id="852">7.71403e-20</wgt>
  <wgt id="853">3.33728e-12</wgt>
  <wgt id="854">4.54465e-12</wgt>
  <wgt id="855">1.57372e-12</wgt>
  <wgt id="856">7.57123e-20</wgt>
  <wgt id="857">7.84915e-20</wgt>
  <wgt id="858">2.73403e-12</wgt>
  <wgt id="859">7.85862e-20</wgt>
  <wgt id="860">6.1849e-13</wgt>
  <wgt id="861">7.91404e-20</wgt>
  <wgt id="862">2.42223e-12</wgt>
  <wgt id="863">3.47631e-12</wgt>
  <wgt id="864">1.21179e-12</wgt>
  <wgt id="865">5.01925e-12</wgt>
  <wgt id="866">5.54367e-12</wgt>
  <wgt id="867">2.28377e-12</wgt>
  <wgt id="868">3.20766e-12</wgt>
  <wgt id="869">7.62576e-20</wgt>
  <wgt id="870">7.71178e-20</wgt>
  <wgt id="871">7.72378e-20</wgt>
  <wgt id="872">5.68649e-12</wgt>
  <wgt id="873">7.77499e-20</wgt>
  <wgt id="874">3.08941e-12</wgt>
  <wgt id="875">7.64027e-20</wgt>
  <wgt id="876">5.11378e-12</wgt>
  <wgt id="877">3.08997e-12</wgt>
  <wgt id="878">7.79989e-20</wgt>
  <wgt id="879">4.30113e-12</wgt>
  <wgt id="880">4.22219e-12</wgt>
  <wgt id="881">5.27323e-12</wgt>
  <wgt id="882">4.40516e-12</wgt>
  <wgt id="883">4.69399e-12</wgt>
  <wgt id="884">4.13694e-12</wgt>
  <wgt id="885">5.09458e-12</wgt>
  <wgt id="886">3.8541e-12</wgt>
  <wgt id="887">5.32458e-12</wgt>
  <wgt id="888">4.70433e-12</wgt>
  <wgt id="889">4.7404e-12</wgt>
  <wgt id="890">3.6772e-12</wgt>
  <wgt id="891">4.68801e-12</wgt>
  <wgt id="892">5.94065e-12</wgt>
  <wgt id="893">5.16028e-12</wgt>
  <wgt id="894">5.15146e-12</wgt>
  <wgt id="895">3.66999e-12</wgt>
  <wgt id="896">7.44934e-12</wgt>
  <wgt id="897">5.79805e-12</wgt>
  <wgt id="898">2.96376e-12</wgt>
  <wgt id="899">2.62382e-12</wgt>
  <wgt id="900">2.88323e-12</wgt>
  <wgt id="901">2.2157e-12</wgt>
  <wgt id="902">3.60165e-12</wgt>
  <wgt id="903">2.56381e-12</wgt>
  <wgt id="904">4.67697e-12</wgt>
  <wgt id="905">3.81177e-12</wgt>
  <wgt id="906">6.97173e-12</wgt>
  <wgt id="907">5.67006e-12</wgt>
  <wgt id="908">4.2784e-12</wgt>
  <wgt id="909">2.46965e-12</wgt>
  <wgt id="910">3.51433e-12</wgt>
  <wgt id="911">3.7992e-12</wgt>
  <wgt id="912">3.45859e-12</wgt>
  <wgt id="913">8.14488e-13</wgt>
  <wgt id="914">5.16777e-12</wgt>
  <wgt id="915">4.09846e-12</wgt>
  <wgt id="916">4.88281e-12</wgt>
  <wgt id="917">2.87869e-12</wgt>
  <wgt id="918">2.94799e-12</wgt>
  <wgt id="919">3.6735e-12</wgt>
  <wgt id="920">2.28567e-12</wgt>
  <wgt id="921">4.15823e-12</wgt>
  <wgt id="922">3.52822e-12</wgt>
  <wgt id="923">3.46116e-12</wgt>
  <wgt id="924">2.73357e-12</wgt>
  <wgt id="925">4.85936e-13</wgt>
  <wgt id="926">6.37616e-12</wgt>
  <wgt id="927">5.02718e-12</wgt>
  <wgt id="928">5.04968e-12</wgt>
  <wgt id="929">4.38503e-12</wgt>
  <wgt id="930">4.53867e-12</wgt>
  <wgt id="931">6.07075e-12</wgt>
  <wgt id="932">2.41384e-12</wgt>
  <wgt id="933">5.77898e-12</wgt>
  <wgt id="934">4.23338e-12</wgt>
  <wgt id="935">5.35266e-12</wgt>
  <wgt id="936">3.76271e-12</wgt>
  <wgt id="937">4.70063e-12</wgt>
  <wgt id="938">3.31599e-12</wgt>
  <wgt id="939">3.32205e-12</wgt>
  <wgt id="940">1.65499e-12</wgt>
  <wgt id="941">3.4593e-12</wgt>
  <wgt id="942">4.4797e-12</wgt>
  <wgt id="943">6.13952e-12</wgt>
  <wgt id="944">5.45735e-12</wgt>
  <wgt id="945">3.19239e-12</wgt>
  <wgt id="946">3.8715e-12</wgt>
  <wgt id="947">3.93588e-12</wgt>
  <wgt id="948">5.73759e-12</wgt>
  <wgt id="949">6.13873e-12</wgt>
  <wgt id="950">3.23412e-12</wgt>
  <wgt id="951">4.26415e-12</wgt>
  <wgt id="952">5.68875e-12</wgt>
  <wgt id="953">5.52301e-12</wgt>
  <wgt id="954">4.85636e-12</wgt>
  <wgt id="955">3.36028e-12</wgt>
  <wgt id="956">3.36579e-12</wgt>
  <wgt id="957">4.31076e-12</wgt>
  <wgt id="958">3.42042e-12</wgt>
  <wgt id="959">3.54824e-12</wgt>
  <wgt id="960">3.46298e-12</wgt>
  <wgt id="961">4.56314e-12</wgt>
  <wgt id="962">4.51987e-12</wgt>
  <wgt id="963">3.11837e-12</wgt>
  <wgt id="964">5.81968e-12</wgt>
  <wgt id="965">5.39045e-12</wgt>
  <wgt id="966">6.62868e-12</wgt>
  <wgt id="967">5.58403e-12</wgt>
  <wgt id="968">5.02169e-12</wgt>
  <wgt id="969">5.45913e-12</wgt>
  <wgt id="970">5.20538e-12</wgt>
  <wgt id="971">3.61975e-12</wgt>
  <wgt id="972">4.64906e-12</wgt>
  <wgt id="973">1.27616e-12</wgt>
  <wgt id="974">7.39954e-12</wgt>
  <wgt id="975">3.90278e-12</wgt>
  <wgt id="976">5.07354e-12</wgt>
  <wgt id="977">3.19133e-12</wgt>
  <wgt id="978">5.25731e-12</wgt>
  <wgt id="979">6.7384e-12</wgt>
  <wgt id="980">4.21338e-12</wgt>
  <wgt id="981">4.91971e-12</wgt>
  <wgt id="982">4.59654e-12</wgt>
</rwgt>
</event>
<event>
 5   1  0.3028200E-11  0.2511977E+04  0.7818608E-02  0.7640603E-01
       21   -1    0    0  502  501  0.00000000000E+00  0.00000000000E+00  0.53771342635E+03  0.53771342635E+03  0.00000000000E+00 0.  1.
       21   -1    0    0  501  502 -0.00000000000E+00 -0.00000000000E+00 -0.29337310972E+04  0.29337310972E+04  0.00000000000E+00 0. -1.
       39    2    1    2    0    0  0.00000000000E+00  0.00000000000E+00 -0.23960176709E+04  0.34714445236E+04  0.25119765925E+04 0.  0.
       25    1    3    3    0    0 -0.80794664019E+02 -0.12048989293E+04 -0.75325812978E+03  0.14287519091E+04  0.12500000000E+03 0.  0.
       25    1    3    3    0    0  0.80794664019E+02  0.12048989293E+04 -0.16427595411E+04  0.20426926145E+04  0.12500000000E+03 0.  0.
<mgrwt>
<rscale>  0 0.25119766E+04</rscale>
<asrwt>0</asrwt>
<pdfrwt beam="1">  1       21 0.82725143E-01 0.25119766E+04</pdfrwt>
<pdfrwt beam="2">  1       21 0.45134324E+00 0.25119766E+04</pdfrwt>
<totfact> 0.16538440E+00</totfact>
</mgrwt>
<rwgt>
  <wgt id="1">3.0282e-12</wgt>
  <wgt id="2">2.55824e-12</wgt>
  <wgt id="3">3.63694e-12</wgt>
  <wgt id="4">3.0282e-12</wgt>
  <wgt id="5">2.55824e-12</wgt>
  <wgt id="6">3.63694e-12</wgt>
  <wgt id="7">3.0282e-12</wgt>
  <wgt id="8">2.55824e-12</wgt>
  <wgt id="9">3.63694e-12</wgt>
  <wgt id="10">3.29198e-12</wgt>
  <wgt id="11">3.29834e-12</wgt>
  <wgt id="12">3.28073e-12</wgt>
  <wgt id="13">3.2937e-12</wgt>
  <wgt id="14">3.28149e-12</wgt>
  <wgt id="15">3.28949e-12</wgt>
  <wgt id="16">3.27323e-12</wgt>
  <wgt id="17">3.32626e-12</wgt>
  <wgt id="18">3.2925e-12</wgt>
  <wgt id="19">3.30953e-12</wgt>
  <wgt id="20">3.30299e-12</wgt>
  <wgt id="21">3.23906e-12</wgt>
  <wgt id="22">3.2569e-12</wgt>
  <wgt id="23">3.23034e-12</wgt>
  <wgt id="24">3.26636e-12</wgt>
  <wgt id="25">3.2924e-12</wgt>
  <wgt id="26">3.29962e-12</wgt>
  <wgt id="27">3.28948e-12</wgt>
  <wgt id="28">3.27086e-12</wgt>
  <wgt id="29">3.29194e-12</wgt>
  <wgt id="30">3.25991e-12</wgt>
  <wgt id="31">3.30503e-12</wgt>
  <wgt id="32">3.2462e-12</wgt>
  <wgt id="33">3.29356e-12</wgt>
  <wgt id="34">3.2579e-12</wgt>
  <wgt id="35">3.24526e-12</wgt>
  <wgt id="36">3.30749e-12</wgt>
  <wgt id="37">3.28076e-12</wgt>
  <wgt id="38">3.27015e-12</wgt>
  <wgt id="39">3.37764e-12</wgt>
  <wgt id="40">3.31332e-12</wgt>
  <wgt id="41">3.28143e-12</wgt>
  <wgt id="42">3.28729e-12</wgt>
  <wgt id="43">3.2967e-12</wgt>
  <wgt id="44">3.31725e-12</wgt>
  <wgt id="45">3.30637e-12</wgt>
  <wgt id="46">3.2578e-12</wgt>
  <wgt id="47">3.36995e-12</wgt>
  <wgt id="48">3.3469e-12</wgt>
  <wgt id="49">3.29041e-12</wgt>
  <wgt id="50">3.24386e-12</wgt>
  <wgt id="51">3.25953e-12</wgt>
  <wgt id="52">3.29273e-12</wgt>
  <wgt id="53">3.41011e-12</wgt>
  <wgt id="54">3.32725e-12</wgt>
  <wgt id="55">3.27172e-12</wgt>
  <wgt id="56">3.19144e-12</wgt>
  <wgt id="57">3.21743e-12</wgt>
  <wgt id="58">3.28969e-12</wgt>
  <wgt id="59">3.32167e-12</wgt>
  <wgt id="60">3.2179e-12</wgt>
  <wgt id="61">3.32409e-12</wgt>
  <wgt id="62">3.34247e-12</wgt>
  <wgt id="63">3.27456e-12</wgt>
  <wgt id="64">3.28792e-12</wgt>
  <wgt id="65">3.26925e-12</wgt>
  <wgt id="66">3.35171e-12</wgt>
  <wgt id="67">3.3738e-12</wgt>
  <wgt id="68">3.29429e-12</wgt>
  <wgt id="69">3.29479e-12</wgt>
  <wgt id="70">3.23364e-12</wgt>
  <wgt id="71">3.34824e-12</wgt>
  <wgt id="72">3.36472e-12</wgt>
  <wgt id="73">3.23006e-12</wgt>
  <wgt id="74">3.32832e-12</wgt>
  <wgt id="75">3.18785e-12</wgt>
  <wgt id="76">3.30702e-12</wgt>
  <wgt id="77">3.27125e-12</wgt>
  <wgt id="78">3.28278e-12</wgt>
  <wgt id="79">3.28955e-12</wgt>
  <wgt id="80">3.29049e-12</wgt>
  <wgt id="81">3.28721e-12</wgt>
  <wgt id="82">3.2847e-12</wgt>
  <wgt id="83">3.26287e-12</wgt>
  <wgt id="84">3.25337e-12</wgt>
  <wgt id="85">3.24719e-12</wgt>
  <wgt id="86">3.34971e-12</wgt>
  <wgt id="87">3.22481e-12</wgt>
  <wgt id="88">3.30208e-12</wgt>
  <wgt id="89">3.30354e-12</wgt>
  <wgt id="90">3.33919e-12</wgt>
  <wgt id="91">3.28827e-12</wgt>
  <wgt id="92">3.30929e-12</wgt>
  <wgt id="93">3.31033e-12</wgt>
  <wgt id="94">3.25753e-12</wgt>
  <wgt id="95">3.35445e-12</wgt>
  <wgt id="96">3.34173e-12</wgt>
  <wgt id="97">3.23762e-12</wgt>
  <wgt id="98">3.29027e-12</wgt>
  <wgt id="99">3.26633e-12</wgt>
  <wgt id="100">3.3167e-12</wgt>
  <wgt id="101">3.26641e-12</wgt>
  <wgt id="102">3.28337e-12</wgt>
  <wgt id="103">3.33831e-12</wgt>
  <wgt id="104">3.28135e-12</wgt>
  <wgt id="105">3.33279e-12</wgt>
  <wgt id="106">3.25502e-12</wgt>
  <wgt id="107">3.36446e-12</wgt>
  <wgt id="108">3.27343e-12</wgt>
  <wgt id="109">3.29447e-12</wgt>
  <wgt id="110">3.2864e-12</wgt>
  <wgt id="111">3.22494e-12</wgt>
  <wgt id="112">3.37771e-12</wgt>
  <wgt id="113">5.53661e-12</wgt>
  <wgt id="114">4.11428e-12</wgt>
  <wgt id="115">4.03938e-12</wgt>
  <wgt id="116">5.63687e-12</wgt>
  <wgt id="117">3.68195e-12</wgt>
  <wgt id="118">3.6981e-12</wgt>
  <wgt id="119">3.67279e-12</wgt>
  <wgt id="120">3.68161e-12</wgt>
  <wgt id="121">3.68206e-12</wgt>
  <wgt id="122">3.6773e-12</wgt>
  <wgt id="123">3.68849e-12</wgt>
  <wgt id="124">3.6778e-12</wgt>
  <wgt id="125">3.68465e-12</wgt>
  <wgt id="126">3.68576e-12</wgt>
  <wgt id="127">3.67943e-12</wgt>
  <wgt id="128">3.69269e-12</wgt>
  <wgt id="129">3.67132e-12</wgt>
  <wgt id="130">3.69503e-12</wgt>
  <wgt id="131">3.66817e-12</wgt>
  <wgt id="132">3.56528e-12</wgt>
  <wgt id="133">3.82277e-12</wgt>
  <wgt id="134">3.64272e-12</wgt>
  <wgt id="135">3.71299e-12</wgt>
  <wgt id="136">3.75831e-12</wgt>
  <wgt id="137">3.59114e-12</wgt>
  <wgt id="138">3.90356e-12</wgt>
  <wgt id="139">3.47865e-12</wgt>
  <wgt id="140">3.67757e-12</wgt>
  <wgt id="141">3.684e-12</wgt>
  <wgt id="142">3.67939e-12</wgt>
  <wgt id="143">3.70163e-12</wgt>
  <wgt id="144">3.43695e-12</wgt>
  <wgt id="145">3.93879e-12</wgt>
  <wgt id="146">3.76931e-12</wgt>
  <wgt id="147">3.60885e-12</wgt>
  <wgt id="148">3.69674e-12</wgt>
  <wgt id="149">3.68089e-12</wgt>
  <wgt id="150">3.71166e-12</wgt>
  <wgt id="151">3.668e-12</wgt>
  <wgt id="152">3.68124e-12</wgt>
  <wgt id="153">3.68215e-12</wgt>
  <wgt id="154">3.65055e-12</wgt>
  <wgt id="155">3.70076e-12</wgt>
  <wgt id="156">3.91576e-12</wgt>
  <wgt id="157">3.49583e-12</wgt>
  <wgt id="158">4.34868e-12</wgt>
  <wgt id="159">4.36793e-12</wgt>
  <wgt id="160">4.33324e-12</wgt>
  <wgt id="161">4.33632e-12</wgt>
  <wgt id="162">4.36258e-12</wgt>
  <wgt id="163">4.34294e-12</wgt>
  <wgt id="164">4.35706e-12</wgt>
  <wgt id="165">4.34984e-12</wgt>
  <wgt id="166">4.34776e-12</wgt>
  <wgt id="167">4.34616e-12</wgt>
  <wgt id="168">4.35238e-12</wgt>
  <wgt id="169">4.33306e-12</wgt>
  <wgt id="170">4.35851e-12</wgt>
  <wgt id="171">4.34758e-12</wgt>
  <wgt id="172">4.35045e-12</wgt>
  <wgt id="173">4.32822e-12</wgt>
  <wgt id="174">4.3561e-12</wgt>
  <wgt id="175">4.2068e-12</wgt>
  <wgt id="176">4.53636e-12</wgt>
  <wgt id="177">4.36166e-12</wgt>
  <wgt id="178">4.33744e-12</wgt>
  <wgt id="179">4.65462e-12</wgt>
  <wgt id="180">3.89812e-12</wgt>
  <wgt id="181">4.16376e-12</wgt>
  <wgt id="182">4.47447e-12</wgt>
  <wgt id="183">4.23658e-12</wgt>
  <wgt id="184">4.40486e-12</wgt>
  <wgt id="185">4.28083e-12</wgt>
  <wgt id="186">4.43099e-12</wgt>
  <wgt id="187">4.27939e-12</wgt>
  <wgt id="188">4.46917e-12</wgt>
  <wgt id="189">4.30327e-12</wgt>
  <wgt id="190">4.36728e-12</wgt>
  <wgt id="191">4.37118e-12</wgt>
  <wgt id="192">4.33518e-12</wgt>
  <wgt id="193">4.44437e-12</wgt>
  <wgt id="194">4.29989e-12</wgt>
  <wgt id="195">4.08958e-12</wgt>
  <wgt id="196">4.75714e-12</wgt>
  <wgt id="197">4.37412e-12</wgt>
  <wgt id="198">4.34253e-12</wgt>
  <wgt id="199">4.34868e-12</wgt>
  <wgt id="200">4.40031e-12</wgt>
  <wgt id="201">4.3846e-12</wgt>
  <wgt id="202">4.36858e-12</wgt>
  <wgt id="203">4.34799e-12</wgt>
  <wgt id="204">4.33641e-12</wgt>
  <wgt id="205">4.32706e-12</wgt>
  <wgt id="206">4.31516e-12</wgt>
  <wgt id="207">4.3423e-12</wgt>
  <wgt id="208">4.28788e-12</wgt>
  <wgt id="209">4.32912e-12</wgt>
  <wgt id="210">4.30482e-12</wgt>
  <wgt id="211">4.31351e-12</wgt>
  <wgt id="212">4.31648e-12</wgt>
  <wgt id="213">4.31458e-12</wgt>
  <wgt id="214">4.31542e-12</wgt>
  <wgt id="215">4.3189e-12</wgt>
  <wgt id="216">4.31258e-12</wgt>
  <wgt id="217">4.32154e-12</wgt>
  <wgt id="218">4.3097e-12</wgt>
  <wgt id="219">4.31008e-12</wgt>
  <wgt id="220">4.31831e-12</wgt>
  <wgt id="221">4.32161e-12</wgt>
  <wgt id="222">4.29718e-12</wgt>
  <wgt id="223">4.01687e-12</wgt>
  <wgt id="224">4.59127e-12</wgt>
  <wgt id="225">4.25721e-12</wgt>
  <wgt id="226">4.38956e-12</wgt>
  <wgt id="227">4.2702e-12</wgt>
  <wgt id="228">4.33501e-12</wgt>
  <wgt id="229">4.24361e-12</wgt>
  <wgt id="230">4.35041e-12</wgt>
  <wgt id="231">4.5142e-12</wgt>
  <wgt id="232">4.15445e-12</wgt>
  <wgt id="233">4.2722e-12</wgt>
  <wgt id="234">4.38812e-12</wgt>
  <wgt id="235">3.96232e-12</wgt>
  <wgt id="236">4.59943e-12</wgt>
  <wgt id="237">4.12311e-12</wgt>
  <wgt id="238">4.37915e-12</wgt>
  <wgt id="239">4.24065e-12</wgt>
  <wgt id="240">4.44951e-12</wgt>
  <wgt id="241">4.24258e-12</wgt>
  <wgt id="242">4.39856e-12</wgt>
  <wgt id="243">4.44252e-12</wgt>
  <wgt id="244">4.28191e-12</wgt>
  <wgt id="245">4.31604e-12</wgt>
  <wgt id="246">4.32726e-12</wgt>
  <wgt id="247">4.31516e-12</wgt>
  <wgt id="248">4.37728e-12</wgt>
  <wgt id="249">4.35763e-12</wgt>
  <wgt id="250">4.33301e-12</wgt>
  <wgt id="251">4.30564e-12</wgt>
  <wgt id="252">4.28872e-12</wgt>
  <wgt id="253">4.27835e-12</wgt>
  <wgt id="254">4.05941e-12</wgt>
  <wgt id="255">4.06269e-12</wgt>
  <wgt id="256">4.05561e-12</wgt>
  <wgt id="257">4.06254e-12</wgt>
  <wgt id="258">4.05705e-12</wgt>
  <wgt id="259">4.08726e-12</wgt>
  <wgt id="260">4.0326e-12</wgt>
  <wgt id="261">4.0681e-12</wgt>
  <wgt id="262">4.04924e-12</wgt>
  <wgt id="263">4.05446e-12</wgt>
  <wgt id="264">4.06506e-12</wgt>
  <wgt id="265">4.05393e-12</wgt>
  <wgt id="266">4.07046e-12</wgt>
  <wgt id="267">4.06078e-12</wgt>
  <wgt id="268">4.05764e-12</wgt>
  <wgt id="269">4.07163e-12</wgt>
  <wgt id="270">4.05109e-12</wgt>
  <wgt id="271">4.04088e-12</wgt>
  <wgt id="272">4.08031e-12</wgt>
  <wgt id="273">4.05021e-12</wgt>
  <wgt id="274">4.06636e-12</wgt>
  <wgt id="275">4.02015e-12</wgt>
  <wgt id="276">4.10059e-12</wgt>
  <wgt id="277">4.03939e-12</wgt>
  <wgt id="278">4.07748e-12</wgt>
  <wgt id="279">3.9778e-12</wgt>
  <wgt id="280">4.16294e-12</wgt>
  <wgt id="281">4.02736e-12</wgt>
  <wgt id="282">4.08668e-12</wgt>
  <wgt id="283">3.88498e-12</wgt>
  <wgt id="284">4.28332e-12</wgt>
  <wgt id="285">3.7751e-12</wgt>
  <wgt id="286">4.30976e-12</wgt>
  <wgt id="287">4.07666e-12</wgt>
  <wgt id="288">4.03751e-12</wgt>
  <wgt id="289">4.10173e-12</wgt>
  <wgt id="290">3.97108e-12</wgt>
  <wgt id="291">4.03928e-12</wgt>
  <wgt id="292">4.04952e-12</wgt>
  <wgt id="293">4.01333e-12</wgt>
  <wgt id="294">4.10566e-12</wgt>
  <wgt id="295">3.94698e-12</wgt>
  <wgt id="296">4.19747e-12</wgt>
  <wgt id="297">4.02561e-12</wgt>
  <wgt id="298">4.09263e-12</wgt>
  <wgt id="299">4.04307e-12</wgt>
  <wgt id="300">4.10299e-12</wgt>
  <wgt id="301">3.91357e-12</wgt>
  <wgt id="302">4.37728e-12</wgt>
  <wgt id="303">3.98101e-12</wgt>
  <wgt id="304">4.10261e-12</wgt>
  <wgt id="305">3.92587e-12</wgt>
  <wgt id="306">3.92935e-12</wgt>
  <wgt id="307">3.92226e-12</wgt>
  <wgt id="308">3.92926e-12</wgt>
  <wgt id="309">3.92395e-12</wgt>
  <wgt id="310">3.95338e-12</wgt>
  <wgt id="311">3.90104e-12</wgt>
  <wgt id="312">3.9351e-12</wgt>
  <wgt id="313">3.9162e-12</wgt>
  <wgt id="314">3.92062e-12</wgt>
  <wgt id="315">3.93124e-12</wgt>
  <wgt id="316">3.92018e-12</wgt>
  <wgt id="317">3.93902e-12</wgt>
  <wgt id="318">3.92918e-12</wgt>
  <wgt id="319">3.9206e-12</wgt>
  <wgt id="320">3.93969e-12</wgt>
  <wgt id="321">3.91862e-12</wgt>
  <wgt id="322">3.90827e-12</wgt>
  <wgt id="323">3.94694e-12</wgt>
  <wgt id="324">3.92149e-12</wgt>
  <wgt id="325">3.92986e-12</wgt>
  <wgt id="326">3.89308e-12</wgt>
  <wgt id="327">3.96848e-12</wgt>
  <wgt id="328">3.91282e-12</wgt>
  <wgt id="329">3.93235e-12</wgt>
  <wgt id="330">4.04316e-12</wgt>
  <wgt id="331">3.81566e-12</wgt>
  <wgt id="332">3.89884e-12</wgt>
  <wgt id="333">3.94611e-12</wgt>
  <wgt id="334">3.80124e-12</wgt>
  <wgt id="335">4.08623e-12</wgt>
  <wgt id="336">3.73462e-12</wgt>
  <wgt id="337">4.1715e-12</wgt>
  <wgt id="338">3.98513e-12</wgt>
  <wgt id="339">3.87304e-12</wgt>
  <wgt id="340">3.96058e-12</wgt>
  <wgt id="341">3.84498e-12</wgt>
  <wgt id="342">3.9146e-12</wgt>
  <wgt id="343">3.90356e-12</wgt>
  <wgt id="344">3.88839e-12</wgt>
  <wgt id="345">3.97014e-12</wgt>
  <wgt id="346">3.81581e-12</wgt>
  <wgt id="347">4.05091e-12</wgt>
  <wgt id="348">3.89155e-12</wgt>
  <wgt id="349">3.95795e-12</wgt>
  <wgt id="350">3.90677e-12</wgt>
  <wgt id="351">3.97544e-12</wgt>
  <wgt id="352">3.78979e-12</wgt>
  <wgt id="353">4.20837e-12</wgt>
  <wgt id="354">3.82374e-12</wgt>
  <wgt id="355">3.98509e-12</wgt>
  <wgt id="356">4.05941e-12</wgt>
  <wgt id="357">3.90388e-12</wgt>
  <wgt id="358">3.92587e-12</wgt>
  <wgt id="359">4.02668e-12</wgt>
  <wgt id="360">4.22354e-12</wgt>
  <wgt id="361">4.09777e-12</wgt>
  <wgt id="362">4.21153e-12</wgt>
  <wgt id="363">4.1975e-12</wgt>
  <wgt id="364">4.16208e-12</wgt>
  <wgt id="365">4.14072e-12</wgt>
  <wgt id="366">4.12135e-12</wgt>
  <wgt id="367">4.08909e-12</wgt>
  <wgt id="368">4.06387e-12</wgt>
  <wgt id="369">4.03665e-12</wgt>
  <wgt id="370">4.09777e-12</wgt>
  <wgt id="371">4.11243e-12</wgt>
  <wgt id="372">4.10381e-12</wgt>
  <wgt id="373">4.09291e-12</wgt>
  <wgt id="374">4.1105e-12</wgt>
  <wgt id="375">5.52548e-12</wgt>
  <wgt id="376">5.52589e-12</wgt>
  <wgt id="377">5.52553e-12</wgt>
  <wgt id="378">5.5494e-12</wgt>
  <wgt id="379">5.50212e-12</wgt>
  <wgt id="380">5.54284e-12</wgt>
  <wgt id="381">5.51863e-12</wgt>
  <wgt id="382">5.54652e-12</wgt>
  <wgt id="383">5.50486e-12</wgt>
  <wgt id="384">5.52976e-12</wgt>
  <wgt id="385">5.5217e-12</wgt>
  <wgt id="386">5.53449e-12</wgt>
  <wgt id="387">5.52175e-12</wgt>
  <wgt id="388">5.52158e-12</wgt>
  <wgt id="389">5.5304e-12</wgt>
  <wgt id="390">5.53364e-12</wgt>
  <wgt id="391">5.51736e-12</wgt>
  <wgt id="392">5.4621e-12</wgt>
  <wgt id="393">5.56139e-12</wgt>
  <wgt id="394">5.52325e-12</wgt>
  <wgt id="395">5.52845e-12</wgt>
  <wgt id="396">5.54296e-12</wgt>
  <wgt id="397">5.51338e-12</wgt>
  <wgt id="398">5.53023e-12</wgt>
  <wgt id="399">5.52159e-12</wgt>
  <wgt id="400">5.51364e-12</wgt>
  <wgt id="401">5.55343e-12</wgt>
  <wgt id="402">5.4456e-12</wgt>
  <wgt id="403">5.59956e-12</wgt>
  <wgt id="404">5.77476e-12</wgt>
  <wgt id="405">4.94972e-12</wgt>
  <wgt id="406">5.34587e-12</wgt>
  <wgt id="407">5.93663e-12</wgt>
  <wgt id="408">5.62019e-12</wgt>
  <wgt id="409">5.35577e-12</wgt>
  <wgt id="410">5.23937e-12</wgt>
  <wgt id="411">5.66855e-12</wgt>
  <wgt id="412">5.5061e-12</wgt>
  <wgt id="413">5.55212e-12</wgt>
  <wgt id="414">5.41413e-12</wgt>
  <wgt id="415">5.61235e-12</wgt>
  <wgt id="416">5.83418e-12</wgt>
  <wgt id="417">5.11343e-12</wgt>
  <wgt id="418">5.54472e-12</wgt>
  <wgt id="419">5.42273e-12</wgt>
  <wgt id="420">5.80368e-12</wgt>
  <wgt id="421">5.32999e-12</wgt>
  <wgt id="422">5.42667e-12</wgt>
  <wgt id="423">5.56939e-12</wgt>
  <wgt id="424">5.83948e-12</wgt>
  <wgt id="425">5.30559e-12</wgt>
  <wgt id="426">5.52548e-12</wgt>
  <wgt id="427">5.26353e-12</wgt>
  <wgt id="428">6.06046e-12</wgt>
  <wgt id="429">5.66771e-12</wgt>
  <wgt id="430">5.95653e-12</wgt>
  <wgt id="431">5.89338e-12</wgt>
  <wgt id="432">5.84144e-12</wgt>
  <wgt id="433">5.79042e-12</wgt>
  <wgt id="434">5.72113e-12</wgt>
  <wgt id="435">5.60242e-12</wgt>
  <wgt id="436">5.5452e-12</wgt>
  <wgt id="437">5.48657e-12</wgt>
  <wgt id="438">5.66771e-12</wgt>
  <wgt id="439">5.68324e-12</wgt>
  <wgt id="440">5.67172e-12</wgt>
  <wgt id="441">5.66603e-12</wgt>
  <wgt id="442">5.66518e-12</wgt>
  <wgt id="443">4.15844e-12</wgt>
  <wgt id="444">4.23608e-12</wgt>
  <wgt id="445">4.28562e-12</wgt>
  <wgt id="446">4.13756e-12</wgt>
  <wgt id="447">4.14467e-12</wgt>
  <wgt id="448">4.07675e-12</wgt>
  <wgt id="449">4.31863e-12</wgt>
  <wgt id="450">4.27634e-12</wgt>
  <wgt id="451">4.14612e-12</wgt>
  <wgt id="452">4.24215e-12</wgt>
  <wgt id="453">4.29249e-12</wgt>
  <wgt id="454">3.84853e-12</wgt>
  <wgt id="455">4.24245e-12</wgt>
  <wgt id="456">4.31653e-12</wgt>
  <wgt id="457">4.17007e-12</wgt>
  <wgt id="458">4.25912e-12</wgt>
  <wgt id="459">4.19524e-12</wgt>
  <wgt id="460">4.34201e-12</wgt>
  <wgt id="461">4.01481e-12</wgt>
  <wgt id="462">4.12003e-12</wgt>
  <wgt id="463">4.06361e-12</wgt>
  <wgt id="464">4.15177e-12</wgt>
  <wgt id="465">4.19825e-12</wgt>
  <wgt id="466">3.93687e-12</wgt>
  <wgt id="467">4.14138e-12</wgt>
  <wgt id="468">4.18098e-12</wgt>
  <wgt id="469">4.13619e-12</wgt>
  <wgt id="470">4.04804e-12</wgt>
  <wgt id="471">4.06877e-12</wgt>
  <wgt id="472">4.199e-12</wgt>
  <wgt id="473">3.98538e-12</wgt>
  <wgt id="474">3.0282e-12</wgt>
  <wgt id="475">3.12765e-12</wgt>
  <wgt id="476">3.19963e-12</wgt>
  <wgt id="477">3.43023e-12</wgt>
  <wgt id="478">3.34108e-12</wgt>
  <wgt id="479">2.55422e-12</wgt>
  <wgt id="480">3.35925e-12</wgt>
  <wgt id="481">3.13976e-12</wgt>
  <wgt id="482">3.47957e-12</wgt>
  <wgt id="483">3.43288e-12</wgt>
  <wgt id="484">3.40775e-12</wgt>
  <wgt id="485">2.75842e-12</wgt>
  <wgt id="486">3.22891e-12</wgt>
  <wgt id="487">2.79506e-12</wgt>
  <wgt id="488">2.72725e-12</wgt>
  <wgt id="489">2.19848e-12</wgt>
  <wgt id="490">3.20054e-12</wgt>
  <wgt id="491">2.98005e-12</wgt>
  <wgt id="492">3.01537e-12</wgt>
  <wgt id="493">2.35143e-12</wgt>
  <wgt id="494">2.33836e-12</wgt>
  <wgt id="495">3.34805e-12</wgt>
  <wgt id="496">2.43831e-12</wgt>
  <wgt id="497">2.77205e-12</wgt>
  <wgt id="498">3.08295e-12</wgt>
  <wgt id="499">3.12098e-12</wgt>
  <wgt id="500">3.40774e-12</wgt>
  <wgt id="501">3.38503e-12</wgt>
  <wgt id="502">3.65486e-12</wgt>
  <wgt id="503">2.91077e-12</wgt>
  <wgt id="504">3.16299e-12</wgt>
  <wgt id="505">3.42838e-12</wgt>
  <wgt id="506">2.39418e-12</wgt>
  <wgt id="507">2.70742e-12</wgt>
  <wgt id="508">3.22912e-12</wgt>
  <wgt id="509">3.19511e-12</wgt>
  <wgt id="510">2.77989e-12</wgt>
  <wgt id="511">2.84595e-12</wgt>
  <wgt id="512">3.31105e-12</wgt>
  <wgt id="513">3.53898e-12</wgt>
  <wgt id="514">3.54356e-12</wgt>
  <wgt id="515">3.63707e-12</wgt>
  <wgt id="516">3.60808e-12</wgt>
  <wgt id="517">3.07717e-12</wgt>
  <wgt id="518">3.46475e-12</wgt>
  <wgt id="519">3.05137e-12</wgt>
  <wgt id="520">2.64546e-12</wgt>
  <wgt id="521">2.7322e-12</wgt>
  <wgt id="522">2.93128e-12</wgt>
  <wgt id="523">3.0331e-12</wgt>
  <wgt id="524">3.07378e-12</wgt>
  <wgt id="525">3.032e-12</wgt>
  <wgt id="526">3.36127e-12</wgt>
  <wgt id="527">3.05851e-12</wgt>
  <wgt id="528">2.65893e-12</wgt>
  <wgt id="529">2.25183e-12</wgt>
  <wgt id="530">3.40857e-12</wgt>
  <wgt id="531">2.82011e-12</wgt>
  <wgt id="532">3.16126e-12</wgt>
  <wgt id="533">3.22299e-12</wgt>
  <wgt id="534">2.56146e-12</wgt>
  <wgt id="535">3.37116e-12</wgt>
  <wgt id="536">3.42809e-12</wgt>
  <wgt id="537">2.54399e-12</wgt>
  <wgt id="538">2.94927e-12</wgt>
  <wgt id="539">2.98774e-12</wgt>
  <wgt id="540">2.78421e-12</wgt>
  <wgt id="541">3.03337e-12</wgt>
  <wgt id="542">2.56713e-12</wgt>
  <wgt id="543">2.61253e-12</wgt>
  <wgt id="544">2.88488e-12</wgt>
  <wgt id="545">2.6389e-12</wgt>
  <wgt id="546">2.65407e-12</wgt>
  <wgt id="547">2.72053e-12</wgt>
  <wgt id="548">3.32331e-12</wgt>
  <wgt id="549">2.94778e-12</wgt>
  <wgt id="550">2.35265e-12</wgt>
  <wgt id="551">2.70218e-12</wgt>
  <wgt id="552">3.39623e-12</wgt>
  <wgt id="553">2.55463e-12</wgt>
  <wgt id="554">2.97959e-12</wgt>
  <wgt id="555">2.95326e-12</wgt>
  <wgt id="556">3.20054e-12</wgt>
  <wgt id="557">2.81798e-12</wgt>
  <wgt id="558">2.95591e-12</wgt>
  <wgt id="559">3.24842e-12</wgt>
  <wgt id="560">3.26675e-12</wgt>
  <wgt id="561">3.516e-12</wgt>
  <wgt id="562">3.22045e-12</wgt>
  <wgt id="563">3.18575e-12</wgt>
  <wgt id="564">3.4949e-12</wgt>
  <wgt id="565">3.63842e-12</wgt>
  <wgt id="566">2.40469e-12</wgt>
  <wgt id="567">3.2803e-12</wgt>
  <wgt id="568">2.50258e-12</wgt>
  <wgt id="569">3.12925e-12</wgt>
  <wgt id="570">3.32435e-12</wgt>
  <wgt id="571">3.54571e-12</wgt>
  <wgt id="572">2.58381e-12</wgt>
  <wgt id="573">2.96093e-12</wgt>
  <wgt id="574">3.0807e-12</wgt>
  <wgt id="575">3.2e-12</wgt>
  <wgt id="576">3.58629e-12</wgt>
  <wgt id="577">3.19169e-12</wgt>
  <wgt id="578">2.62446e-12</wgt>
  <wgt id="579">3.33454e-12</wgt>
  <wgt id="580">3.20808e-12</wgt>
  <wgt id="581">3.64306e-12</wgt>
  <wgt id="582">3.31662e-12</wgt>
  <wgt id="583">3.54515e-12</wgt>
  <wgt id="584">3.31623e-12</wgt>
  <wgt id="585">2.85306e-12</wgt>
  <wgt id="586">2.92942e-12</wgt>
  <wgt id="587">3.2788e-12</wgt>
  <wgt id="588">4.19564e-12</wgt>
  <wgt id="589">3.79414e-12</wgt>
  <wgt id="590">3.37849e-12</wgt>
  <wgt id="591">3.41387e-12</wgt>
  <wgt id="592">3.35628e-12</wgt>
  <wgt id="593">3.1327e-12</wgt>
  <wgt id="594">3.07059e-12</wgt>
  <wgt id="595">3.73977e-12</wgt>
  <wgt id="596">3.49176e-12</wgt>
  <wgt id="597">3.11885e-12</wgt>
  <wgt id="598">3.81653e-12</wgt>
  <wgt id="599">3.71098e-12</wgt>
  <wgt id="600">3.77482e-12</wgt>
  <wgt id="601">3.00663e-12</wgt>
  <wgt id="602">2.6946e-12</wgt>
  <wgt id="603">2.57478e-12</wgt>
  <wgt id="604">3.66598e-12</wgt>
  <wgt id="605">3.00946e-12</wgt>
  <wgt id="606">2.51974e-12</wgt>
  <wgt id="607">3.46447e-12</wgt>
  <wgt id="608">3.23734e-12</wgt>
  <wgt id="609">3.01248e-12</wgt>
  <wgt id="610">2.79505e-12</wgt>
  <wgt id="611">2.84019e-12</wgt>
  <wgt id="612">3.07695e-12</wgt>
  <wgt id="613">2.83192e-12</wgt>
  <wgt id="614">3.39089e-12</wgt>
  <wgt id="615">3.57846e-12</wgt>
  <wgt id="616">2.54697e-12</wgt>
  <wgt id="617">3.35011e-12</wgt>
  <wgt id="618">3.65746e-12</wgt>
  <wgt id="619">3.11832e-12</wgt>
  <wgt id="620">3.24033e-12</wgt>
  <wgt id="621">3.29119e-12</wgt>
  <wgt id="622">3.2788e-12</wgt>
  <wgt id="623">3.12564e-12</wgt>
  <wgt id="624">2.97388e-12</wgt>
  <wgt id="625">2.96315e-12</wgt>
  <wgt id="626">1.70582e-12</wgt>
  <wgt id="627">2.70185e-12</wgt>
  <wgt id="628">3.26664e-12</wgt>
  <wgt id="629">4.14282e-12</wgt>
  <wgt id="630">3.45529e-12</wgt>
  <wgt id="631">3.72275e-12</wgt>
  <wgt id="632">2.89885e-12</wgt>
  <wgt id="633">3.19276e-12</wgt>
  <wgt id="634">2.76575e-12</wgt>
  <wgt id="635">3.06957e-12</wgt>
  <wgt id="636">2.85214e-12</wgt>
  <wgt id="637">3.39084e-12</wgt>
  <wgt id="638">2.94031e-12</wgt>
  <wgt id="639">2.74866e-12</wgt>
  <wgt id="640">2.7523e-12</wgt>
  <wgt id="641">3.64243e-12</wgt>
  <wgt id="642">2.5304e-12</wgt>
  <wgt id="643">3.05841e-12</wgt>
  <wgt id="644">3.11311e-12</wgt>
  <wgt id="645">3.44926e-12</wgt>
  <wgt id="646">2.38666e-12</wgt>
  <wgt id="647">3.67297e-12</wgt>
  <wgt id="648">3.73257e-12</wgt>
  <wgt id="649">3.50626e-12</wgt>
  <wgt id="650">3.29987e-12</wgt>
  <wgt id="651">3.27201e-12</wgt>
  <wgt id="652">2.91723e-12</wgt>
  <wgt id="653">3.08477e-12</wgt>
  <wgt id="654">3.14436e-12</wgt>
  <wgt id="655">2.60703e-12</wgt>
  <wgt id="656">3.49346e-12</wgt>
  <wgt id="657">3.74002e-12</wgt>
  <wgt id="658">2.96639e-12</wgt>
  <wgt id="659">3.25496e-12</wgt>
  <wgt id="660">2.68255e-12</wgt>
  <wgt id="661">2.98227e-12</wgt>
  <wgt id="662">3.29241e-12</wgt>
  <wgt id="663">3.49376e-12</wgt>
  <wgt id="664">3.64047e-12</wgt>
  <wgt id="665">2.95245e-12</wgt>
  <wgt id="666">3.04375e-12</wgt>
  <wgt id="667">3.28479e-12</wgt>
  <wgt id="668">3.11811e-12</wgt>
  <wgt id="669">2.94001e-12</wgt>
  <wgt id="670">3.55366e-12</wgt>
  <wgt id="671">3.2758e-12</wgt>
  <wgt id="672">3.63618e-12</wgt>
  <wgt id="673">3.68279e-12</wgt>
  <wgt id="674">3.05701e-12</wgt>
  <wgt id="675">2.86364e-12</wgt>
  <wgt id="676">4.39617e-12</wgt>
  <wgt id="677">4.29825e-12</wgt>
  <wgt id="678">5.26213e-12</wgt>
  <wgt id="679">5.06672e-12</wgt>
  <wgt id="680">4.59184e-12</wgt>
  <wgt id="681">4.14477e-12</wgt>
  <wgt id="682">4.91283e-12</wgt>
  <wgt id="683">3.7877e-12</wgt>
  <wgt id="684">5.17927e-12</wgt>
  <wgt id="685">4.68516e-12</wgt>
  <wgt id="686">4.84634e-12</wgt>
  <wgt id="687">4.14446e-12</wgt>
  <wgt id="688">4.45598e-12</wgt>
  <wgt id="689">5.3651e-12</wgt>
  <wgt id="690">4.92856e-12</wgt>
  <wgt id="691">4.80341e-12</wgt>
  <wgt id="692">3.99523e-12</wgt>
  <wgt id="693">7.49769e-12</wgt>
  <wgt id="694">5.47766e-12</wgt>
  <wgt id="695">3.42491e-12</wgt>
  <wgt id="696">3.41197e-12</wgt>
  <wgt id="697">3.15618e-12</wgt>
  <wgt id="698">2.741e-12</wgt>
  <wgt id="699">3.54146e-12</wgt>
  <wgt id="700">3.34143e-12</wgt>
  <wgt id="701">4.54558e-12</wgt>
  <wgt id="702">3.84923e-12</wgt>
  <wgt id="703">6.87343e-12</wgt>
  <wgt id="704">5.40547e-12</wgt>
  <wgt id="705">4.71068e-12</wgt>
  <wgt id="706">3.24411e-12</wgt>
  <wgt id="707">3.7709e-12</wgt>
  <wgt id="708">3.81074e-12</wgt>
  <wgt id="709">3.8095e-12</wgt>
  <wgt id="710">1.87835e-12</wgt>
  <wgt id="711">5.16627e-12</wgt>
  <wgt id="712">4.03992e-12</wgt>
  <wgt id="713">4.84034e-12</wgt>
  <wgt id="714">3.24518e-12</wgt>
  <wgt id="715">3.57984e-12</wgt>
  <wgt id="716">3.96415e-12</wgt>
  <wgt id="717">2.85587e-12</wgt>
  <wgt id="718">4.40717e-12</wgt>
  <wgt id="719">3.98578e-12</wgt>
  <wgt id="720">4.46266e-12</wgt>
  <wgt id="721">3.38257e-12</wgt>
  <wgt id="722">1.78634e-12</wgt>
  <wgt id="723">5.94674e-12</wgt>
  <wgt id="724">5.07592e-12</wgt>
  <wgt id="725">4.92797e-12</wgt>
  <wgt id="726">4.35414e-12</wgt>
  <wgt id="727">4.61823e-12</wgt>
  <wgt id="728">5.39558e-12</wgt>
  <wgt id="729">2.86187e-12</wgt>
  <wgt id="730">5.47341e-12</wgt>
  <wgt id="731">4.36493e-12</wgt>
  <wgt id="732">5.46311e-12</wgt>
  <wgt id="733">3.78128e-12</wgt>
  <wgt id="734">4.71186e-12</wgt>
  <wgt id="735">3.76572e-12</wgt>
  <wgt id="736">3.63328e-12</wgt>
  <wgt id="737">2.38886e-12</wgt>
  <wgt id="738">3.8722e-12</wgt>
  <wgt id="739">4.39714e-12</wgt>
  <wgt id="740">6.20639e-12</wgt>
  <wgt id="741">5.35302e-12</wgt>
  <wgt id="742">3.33414e-12</wgt>
  <wgt id="743">3.83807e-12</wgt>
  <wgt id="744">3.99821e-12</wgt>
  <wgt id="745">5.56142e-12</wgt>
  <wgt id="746">5.84041e-12</wgt>
  <wgt id="747">3.28307e-12</wgt>
  <wgt id="748">4.09838e-12</wgt>
  <wgt id="749">5.2328e-12</wgt>
  <wgt id="750">5.19519e-12</wgt>
  <wgt id="751">4.71076e-12</wgt>
  <wgt id="752">3.61467e-12</wgt>
  <wgt id="753">3.52119e-12</wgt>
  <wgt id="754">4.53155e-12</wgt>
  <wgt id="755">3.86488e-12</wgt>
  <wgt id="756">3.90202e-12</wgt>
  <wgt id="757">3.45193e-12</wgt>
  <wgt id="758">4.39686e-12</wgt>
  <wgt id="759">4.63843e-12</wgt>
  <wgt id="760">3.60601e-12</wgt>
  <wgt id="761">5.59852e-12</wgt>
  <wgt id="762">5.60993e-12</wgt>
  <wgt id="763">5.8161e-12</wgt>
  <wgt id="764">5.3927e-12</wgt>
  <wgt id="765">4.75013e-12</wgt>
  <wgt id="766">5.03541e-12</wgt>
  <wgt id="767">4.8801e-12</wgt>
  <wgt id="768">3.67137e-12</wgt>
  <wgt id="769">4.576e-12</wgt>
  <wgt id="770">2.66752e-12</wgt>
  <wgt id="771">6.72089e-12</wgt>
  <wgt id="772">3.97909e-12</wgt>
  <wgt id="773">4.89336e-12</wgt>
  <wgt id="774">3.17673e-12</wgt>
  <wgt id="775">4.96294e-12</wgt>
  <wgt id="776">6.52526e-12</wgt>
  <wgt id="777">2.59281e-12</wgt>
  <wgt id="778">1.92442e-12</wgt>
  <wgt id="779">4.18712e-20</wgt>
  <wgt id="780">4.15858e-20</wgt>
  <wgt id="781">1.29456e-12</wgt>
  <wgt id="782">1.81599e-12</wgt>
  <wgt id="783">4.23071e-20</wgt>
  <wgt id="784">4.23562e-20</wgt>
  <wgt id="785">4.32515e-12</wgt>
  <wgt id="786">4.11688e-20</wgt>
  <wgt id="787">3.62543e-12</wgt>
  <wgt id="788">4.02465e-20</wgt>
  <wgt id="789">4.36654e-20</wgt>
  <wgt id="790">4.11837e-20</wgt>
  <wgt id="791">1.46955e-12</wgt>
  <wgt id="792">2.62609e-12</wgt>
  <wgt id="793">4.28142e-20</wgt>
  <wgt id="794">4.15747e-20</wgt>
  <wgt id="795">3.92867e-12</wgt>
  <wgt id="796">4.22774e-12</wgt>
  <wgt id="797">3.32118e-12</wgt>
  <wgt id="798">4.21473e-20</wgt>
  <wgt id="799">4.03737e-12</wgt>
  <wgt id="800">4.24483e-20</wgt>
  <wgt id="801">3.27624e-12</wgt>
  <wgt id="802">4.22576e-20</wgt>
  <wgt id="803">3.60602e-12</wgt>
  <wgt id="804">4.03657e-12</wgt>
  <wgt id="805">4.02171e-12</wgt>
  <wgt id="806">2.41475e-12</wgt>
  <wgt id="807">1.42434e-12</wgt>
  <wgt id="808">2.5433e-12</wgt>
  <wgt id="809">4.72799e-13</wgt>
  <wgt id="810">5.88148e-12</wgt>
  <wgt id="811">2.53339e-12</wgt>
  <wgt id="812">4.2115e-20</wgt>
  <wgt id="813">4.12255e-20</wgt>
  <wgt id="814">1.42615e-14</wgt>
  <wgt id="815">4.19042e-20</wgt>
  <wgt id="816">4.22704e-20</wgt>
  <wgt id="817">2.5029e-12</wgt>
  <wgt id="818">3.62458e-12</wgt>
  <wgt id="819">4.23712e-20</wgt>
  <wgt id="820">7.60038e-13</wgt>
  <wgt id="821">3.19575e-12</wgt>
  <wgt id="822">4.32774e-20</wgt>
  <wgt id="823">3.97351e-12</wgt>
  <wgt id="824">3.33362e-12</wgt>
  <wgt id="825">4.13451e-20</wgt>
  <wgt id="826">4.16373e-12</wgt>
  <wgt id="827">4.10891e-20</wgt>
  <wgt id="828">2.93423e-12</wgt>
  <wgt id="829">2.1984e-12</wgt>
  <wgt id="830">4.12099e-20</wgt>
  <wgt id="831">3.31261e-12</wgt>
  <wgt id="832">5.82925e-12</wgt>
  <wgt id="833">2.76766e-13</wgt>
  <wgt id="834">6.00641e-12</wgt>
  <wgt id="835">4.20048e-20</wgt>
  <wgt id="836">4.37369e-20</wgt>
  <wgt id="837">3.19848e-12</wgt>
  <wgt id="838">4.21551e-20</wgt>
  <wgt id="839">3.95611e-12</wgt>
  <wgt id="840">1.11299e-12</wgt>
  <wgt id="841">3.72886e-12</wgt>
  <wgt id="842">1.15558e-12</wgt>
  <wgt id="843">1.32961e-12</wgt>
  <wgt id="844">3.16074e-12</wgt>
  <wgt id="845">5.65417e-12</wgt>
  <wgt id="846">4.40061e-20</wgt>
  <wgt id="847">2.70707e-12</wgt>
  <wgt id="848">4.28692e-20</wgt>
  <wgt id="849">3.21203e-12</wgt>
  <wgt id="850">5.2584e-12</wgt>
  <wgt id="851">3.26236e-12</wgt>
  <wgt id="852">4.17659e-20</wgt>
  <wgt id="853">3.38051e-12</wgt>
  <wgt id="854">4.64541e-12</wgt>
  <wgt id="855">2.66828e-12</wgt>
  <wgt id="856">4.11704e-20</wgt>
  <wgt id="857">4.34197e-20</wgt>
  <wgt id="858">2.63469e-12</wgt>
  <wgt id="859">1.29757e-12</wgt>
  <wgt id="860">1.70151e-12</wgt>
  <wgt id="861">4.35043e-20</wgt>
  <wgt id="862">2.52099e-12</wgt>
  <wgt id="863">3.35577e-12</wgt>
  <wgt id="864">1.76388e-12</wgt>
  <wgt id="865">5.23864e-12</wgt>
  <wgt id="866">5.41661e-12</wgt>
  <wgt id="867">2.09849e-12</wgt>
  <wgt id="868">3.08869e-12</wgt>
  <wgt id="869">4.15938e-20</wgt>
  <wgt id="870">4.23203e-20</wgt>
  <wgt id="871">5.21402e-13</wgt>
  <wgt id="872">5.4077e-12</wgt>
  <wgt id="873">7.63898e-14</wgt>
  <wgt id="874">3.05475e-12</wgt>
  <wgt id="875">4.17752e-20</wgt>
  <wgt id="876">4.81625e-12</wgt>
  <wgt id="877">3.06782e-12</wgt>
  <wgt id="878">4.28616e-20</wgt>
  <wgt id="879">4.39617e-12</wgt>
  <wgt id="880">4.29825e-12</wgt>
  <wgt id="881">5.26213e-12</wgt>
  <wgt id="882">5.06672e-12</wgt>
  <wgt id="883">4.59184e-12</wgt>
  <wgt id="884">4.14477e-12</wgt>
  <wgt id="885">4.91283e-12</wgt>
  <wgt id="886">3.7877e-12</wgt>
  <wgt id="887">5.17927e-12</wgt>
  <wgt id="888">4.68516e-12</wgt>
  <wgt id="889">4.84634e-12</wgt>
  <wgt id="890">4.14446e-12</wgt>
  <wgt id="891">4.45598e-12</wgt>
  <wgt id="892">5.3651e-12</wgt>
  <wgt id="893">4.92856e-12</wgt>
  <wgt id="894">4.80341e-12</wgt>
  <wgt id="895">3.99523e-12</wgt>
  <wgt id="896">7.49769e-12</wgt>
  <wgt id="897">5.47766e-12</wgt>
  <wgt id="898">3.42491e-12</wgt>
  <wgt id="899">3.41197e-12</wgt>
  <wgt id="900">3.15618e-12</wgt>
  <wgt id="901">2.741e-12</wgt>
  <wgt id="902">3.54146e-12</wgt>
  <wgt id="903">3.34143e-12</wgt>
  <wgt id="904">4.54558e-12</wgt>
  <wgt id="905">3.84923e-12</wgt>
  <wgt id="906">6.87343e-12</wgt>
  <wgt id="907">5.40547e-12</wgt>
  <wgt id="908">4.71068e-12</wgt>
  <wgt id="909">3.24411e-12</wgt>
  <wgt id="910">3.7709e-12</wgt>
  <wgt id="911">3.81074e-12</wgt>
  <wgt id="912">3.8095e-12</wgt>
  <wgt id="913">1.87835e-12</wgt>
  <wgt id="914">5.16627e-12</wgt>
  <wgt id="915">4.03992e-12</wgt>
  <wgt id="916">4.84034e-12</wgt>
  <wgt id="917">3.24518e-12</wgt>
  <wgt id="918">3.57984e-12</wgt>
  <wgt id="919">3.96415e-12</wgt>
  <wgt id="920">2.85587e-12</wgt>
  <wgt id="921">4.40717e-12</wgt>
  <wgt id="922">3.98578e-12</wgt>
  <wgt id="923">4.46266e-12</wgt>
  <wgt id="924">3.38257e-12</wgt>
  <wgt id="925">1.78634e-12</wgt>
  <wgt id="926">5.94674e-12</wgt>
  <wgt id="927">5.07592e-12</wgt>
  <wgt id="928">4.92797e-12</wgt>
  <wgt id="929">4.35414e-12</wgt>
  <wgt id="930">4.61823e-12</wgt>
  <wgt id="931">5.39558e-12</wgt>
  <wgt id="932">2.86187e-12</wgt>
  <wgt id="933">5.47341e-12</wgt>
  <wgt id="934">4.36493e-12</wgt>
  <wgt id="935">5.46311e-12</wgt>
  <wgt id="936">3.78128e-12</wgt>
  <wgt id="937">4.71186e-12</wgt>
  <wgt id="938">3.76572e-12</wgt>
  <wgt id="939">3.63328e-12</wgt>
  <wgt id="940">2.38886e-12</wgt>
  <wgt id="941">3.8722e-12</wgt>
  <wgt id="942">4.39714e-12</wgt>
  <wgt id="943">6.20639e-12</wgt>
  <wgt id="944">5.35302e-12</wgt>
  <wgt id="945">3.33414e-12</wgt>
  <wgt id="946">3.83807e-12</wgt>
  <wgt id="947">3.99821e-12</wgt>
  <wgt id="948">5.56142e-12</wgt>
  <wgt id="949">5.84041e-12</wgt>
  <wgt id="950">3.28307e-12</wgt>
  <wgt id="951">4.09838e-12</wgt>
  <wgt id="952">5.2328e-12</wgt>
  <wgt id="953">5.19519e-12</wgt>
  <wgt id="954">4.71076e-12</wgt>
  <wgt id="955">3.61467e-12</wgt>
  <wgt id="956">3.52119e-12</wgt>
  <wgt id="957">4.53155e-12</wgt>
  <wgt id="958">3.86488e-12</wgt>
  <wgt id="959">3.90202e-12</wgt>
  <wgt id="960">3.45193e-12</wgt>
  <wgt id="961">4.39686e-12</wgt>
  <wgt id="962">4.63843e-12</wgt>
  <wgt id="963">3.60601e-12</wgt>
  <wgt id="964">5.59852e-12</wgt>
  <wgt id="965">5.60993e-12</wgt>
  <wgt id="966">5.8161e-12</wgt>
  <wgt id="967">5.3927e-12</wgt>
  <wgt id="968">4.75013e-12</wgt>
  <wgt id="969">5.03541e-12</wgt>
  <wgt id="970">4.8801e-12</wgt>
  <wgt id="971">3.67137e-12</wgt>
  <wgt id="972">4.576e-12</wgt>
  <wgt id="973">2.66752e-12</wgt>
  <wgt id="974">6.72089e-12</wgt>
  <wgt id="975">3.97909e-12</wgt>
  <wgt id="976">4.89336e-12</wgt>
  <wgt id="977">3.17673e-12</wgt>
  <wgt id="978">4.96294e-12</wgt>
  <wgt id="979">6.52526e-12</wgt>
  <wgt id="980">4.32893e-12</wgt>
  <wgt id="981">4.80875e-12</wgt>
  <wgt id="982">4.47233e-12</wgt>
</rwgt>
</event>
<event>
 5   1  0.3028200E-11  0.2443228E+04  0.7818608E-02  0.7662995E-01
       21   -1    0    0  502  501  0.00000000000E+00  0.00000000000E+00  0.17489544211E+04  0.17489544211E+04  0.00000000000E+00 0. -1.
       21   -1    0    0  501  502 -0.00000000000E+00 -0.00000000000E+00 -0.85327567848E+03  0.85327567848E+03  0.00000000000E+00 0.  1.
       39    2    1    2    0    0  0.00000000000E+00  0.00000000000E+00  0.89567874258E+03  0.26022300995E+04  0.24432275950E+04 0.  0.
       25    1    3    3    0    0 -0.37339690288E+03 -0.91651544571E+03  0.11989197192E+04  0.15596343489E+04  0.12500000000E+03 0.  0.
       25    1    3    3    0    0  0.37339690288E+03  0.91651544571E+03 -0.30324097660E+03  0.10425957506E+04  0.12500000000E+03 0.  0.
<mgrwt>
<rscale>  0 0.24432276E+04</rscale>
<asrwt>0</asrwt>
<pdfrwt beam="1">  1       21 0.26906991E+00 0.24432276E+04</pdfrwt>
<pdfrwt beam="2">  1       21 0.13127318E+00 0.24432276E+04</pdfrwt>
<totfact> 0.73617284E+00</totfact>
</mgrwt>
<rwgt>
  <wgt id="1">3.0282e-12</wgt>
  <wgt id="2">2.62283e-12</wgt>
  <wgt id="3">3.53392e-12</wgt>
  <wgt id="4">3.0282e-12</wgt>
  <wgt id="5">2.62283e-12</wgt>
  <wgt id="6">3.53392e-12</wgt>
  <wgt id="7">3.0282e-12</wgt>
  <wgt id="8">2.62283e-12</wgt>
  <wgt id="9">3.53392e-12</wgt>
  <wgt id="10">3.16819e-12</wgt>
  <wgt id="11">3.16601e-12</wgt>
  <wgt id="12">3.16219e-12</wgt>
  <wgt id="13">3.15882e-12</wgt>
  <wgt id="14">3.17971e-12</wgt>
  <wgt id="15">3.17354e-12</wgt>
  <wgt id="16">3.1627e-12</wgt>
  <wgt id="17">3.17869e-12</wgt>
  <wgt id="18">3.16241e-12</wgt>
  <wgt id="19">3.17725e-12</wgt>
  <wgt id="20">3.162e-12</wgt>
  <wgt id="21">3.14502e-12</wgt>
  <wgt id="22">3.15036e-12</wgt>
  <wgt id="23">3.13011e-12</wgt>
  <wgt id="24">3.14927e-12</wgt>
  <wgt id="25">3.15804e-12</wgt>
  <wgt id="26">3.17921e-12</wgt>
  <wgt id="27">3.16542e-12</wgt>
  <wgt id="28">3.15107e-12</wgt>
  <wgt id="29">3.17026e-12</wgt>
  <wgt id="30">3.15173e-12</wgt>
  <wgt id="31">3.18085e-12</wgt>
  <wgt id="32">3.15625e-12</wgt>
  <wgt id="33">3.17489e-12</wgt>
  <wgt id="34">3.15264e-12</wgt>
  <wgt id="35">3.15916e-12</wgt>
  <wgt id="36">3.18146e-12</wgt>
  <wgt id="37">3.15905e-12</wgt>
  <wgt id="38">3.15708e-12</wgt>
  <wgt id="39">3.21173e-12</wgt>
  <wgt id="40">3.17183e-12</wgt>
  <wgt id="41">3.16632e-12</wgt>
  <wgt id="42">3.17369e-12</wgt>
  <wgt id="43">3.16797e-12</wgt>
  <wgt id="44">3.16914e-12</wgt>
  <wgt id="45">3.17485e-12</wgt>
  <wgt id="46">3.16565e-12</wgt>
  <wgt id="47">3.17359e-12</wgt>
  <wgt id="48">3.17363e-12</wgt>
  <wgt id="49">3.16001e-12</wgt>
  <wgt id="50">3.16495e-12</wgt>
  <wgt id="51">3.16646e-12</wgt>
  <wgt id="52">3.1737e-12</wgt>
  <wgt id="53">3.16349e-12</wgt>
  <wgt id="54">3.17028e-12</wgt>
  <wgt id="55">3.16831e-12</wgt>
  <wgt id="56">3.1741e-12</wgt>
  <wgt id="57">3.16838e-12</wgt>
  <wgt id="58">3.1564e-12</wgt>
  <wgt id="59">3.16303e-12</wgt>
  <wgt id="60">3.16262e-12</wgt>
  <wgt id="61">3.14946e-12</wgt>
  <wgt id="62">3.15886e-12</wgt>
  <wgt id="63">3.16502e-12</wgt>
  <wgt id="64">3.16818e-12</wgt>
  <wgt id="65">3.16848e-12</wgt>
  <wgt id="66">3.16535e-12</wgt>
  <wgt id="67">3.15471e-12</wgt>
  <wgt id="68">3.16698e-12</wgt>
  <wgt id="69">3.16694e-12</wgt>
  <wgt id="70">3.16683e-12</wgt>
  <wgt id="71">3.16489e-12</wgt>
  <wgt id="72">3.15552e-12</wgt>
  <wgt id="73">3.17657e-12</wgt>
  <wgt id="74">3.17202e-12</wgt>
  <wgt id="75">3.16738e-12</wgt>
  <wgt id="76">3.18086e-12</wgt>
  <wgt id="77">3.16528e-12</wgt>
  <wgt id="78">3.16587e-12</wgt>
  <wgt id="79">3.17718e-12</wgt>
  <wgt id="80">3.15042e-12</wgt>
  <wgt id="81">3.16779e-12</wgt>
  <wgt id="82">3.16914e-12</wgt>
  <wgt id="83">3.15375e-12</wgt>
  <wgt id="84">3.16323e-12</wgt>
  <wgt id="85">3.15938e-12</wgt>
  <wgt id="86">3.17838e-12</wgt>
  <wgt id="87">3.14732e-12</wgt>
  <wgt id="88">3.17255e-12</wgt>
  <wgt id="89">3.17082e-12</wgt>
  <wgt id="90">3.17774e-12</wgt>
  <wgt id="91">3.17173e-12</wgt>
  <wgt id="92">3.17514e-12</wgt>
  <wgt id="93">3.17211e-12</wgt>
  <wgt id="94">3.16407e-12</wgt>
  <wgt id="95">3.17736e-12</wgt>
  <wgt id="96">3.17241e-12</wgt>
  <wgt id="97">3.15947e-12</wgt>
  <wgt id="98">3.16925e-12</wgt>
  <wgt id="99">3.16042e-12</wgt>
  <wgt id="100">3.17503e-12</wgt>
  <wgt id="101">3.16916e-12</wgt>
  <wgt id="102">3.16616e-12</wgt>
  <wgt id="103">3.17515e-12</wgt>
  <wgt id="104">3.16503e-12</wgt>
  <wgt id="105">3.17362e-12</wgt>
  <wgt id="106">3.16195e-12</wgt>
  <wgt id="107">3.18148e-12</wgt>
  <wgt id="108">3.1631e-12</wgt>
  <wgt id="109">3.17108e-12</wgt>
  <wgt id="110">3.16733e-12</wgt>
  <wgt id="111">3.18965e-12</wgt>
  <wgt id="112">3.18641e-12</wgt>
  <wgt id="113">4.42844e-12</wgt>
  <wgt id="114">4.38565e-12</wgt>
  <wgt id="115">4.31568e-12</wgt>
  <wgt id="116">6.11598e-12</wgt>
  <wgt id="117">3.54368e-12</wgt>
  <wgt id="118">3.55706e-12</wgt>
  <wgt id="119">3.53604e-12</wgt>
  <wgt id="120">3.54389e-12</wgt>
  <wgt id="121">3.54352e-12</wgt>
  <wgt id="122">3.53776e-12</wgt>
  <wgt id="123">3.55183e-12</wgt>
  <wgt id="124">3.53882e-12</wgt>
  <wgt id="125">3.54675e-12</wgt>
  <wgt id="126">3.55003e-12</wgt>
  <wgt id="127">3.53944e-12</wgt>
  <wgt id="128">3.55462e-12</wgt>
  <wgt id="129">3.53275e-12</wgt>
  <wgt id="130">3.56344e-12</wgt>
  <wgt id="131">3.52337e-12</wgt>
  <wgt id="132">3.44737e-12</wgt>
  <wgt id="133">3.65826e-12</wgt>
  <wgt id="134">3.50437e-12</wgt>
  <wgt id="135">3.57447e-12</wgt>
  <wgt id="136">3.59407e-12</wgt>
  <wgt id="137">3.48294e-12</wgt>
  <wgt id="138">3.69462e-12</wgt>
  <wgt id="139">3.39923e-12</wgt>
  <wgt id="140">3.52298e-12</wgt>
  <wgt id="141">3.55973e-12</wgt>
  <wgt id="142">3.54359e-12</wgt>
  <wgt id="143">3.55149e-12</wgt>
  <wgt id="144">3.41877e-12</wgt>
  <wgt id="145">3.66254e-12</wgt>
  <wgt id="146">3.58362e-12</wgt>
  <wgt id="147">3.51155e-12</wgt>
  <wgt id="148">3.55595e-12</wgt>
  <wgt id="149">3.54283e-12</wgt>
  <wgt id="150">3.57465e-12</wgt>
  <wgt id="151">3.52916e-12</wgt>
  <wgt id="152">3.54523e-12</wgt>
  <wgt id="153">3.54312e-12</wgt>
  <wgt id="154">3.56325e-12</wgt>
  <wgt id="155">3.51744e-12</wgt>
  <wgt id="156">3.63918e-12</wgt>
  <wgt id="157">3.45136e-12</wgt>
  <wgt id="158">4.25651e-12</wgt>
  <wgt id="159">4.27432e-12</wgt>
  <wgt id="160">4.24191e-12</wgt>
  <wgt id="161">4.2451e-12</wgt>
  <wgt id="162">4.26898e-12</wgt>
  <wgt id="163">4.25144e-12</wgt>
  <wgt id="164">4.26372e-12</wgt>
  <wgt id="165">4.25799e-12</wgt>
  <wgt id="166">4.25517e-12</wgt>
  <wgt id="167">4.25344e-12</wgt>
  <wgt id="168">4.26063e-12</wgt>
  <wgt id="169">4.23866e-12</wgt>
  <wgt id="170">4.26745e-12</wgt>
  <wgt id="171">4.25192e-12</wgt>
  <wgt id="172">4.26261e-12</wgt>
  <wgt id="173">4.25278e-12</wgt>
  <wgt id="174">4.25758e-12</wgt>
  <wgt id="175">4.13167e-12</wgt>
  <wgt id="176">4.4196e-12</wgt>
  <wgt id="177">4.27922e-12</wgt>
  <wgt id="178">4.23557e-12</wgt>
  <wgt id="179">4.45592e-12</wgt>
  <wgt id="180">3.94524e-12</wgt>
  <wgt id="181">4.12132e-12</wgt>
  <wgt id="182">4.3461e-12</wgt>
  <wgt id="183">4.17422e-12</wgt>
  <wgt id="184">4.2972e-12</wgt>
  <wgt id="185">4.21588e-12</wgt>
  <wgt id="186">4.30601e-12</wgt>
  <wgt id="187">4.21373e-12</wgt>
  <wgt id="188">4.33276e-12</wgt>
  <wgt id="189">4.22554e-12</wgt>
  <wgt id="190">4.26897e-12</wgt>
  <wgt id="191">4.26979e-12</wgt>
  <wgt id="192">4.24845e-12</wgt>
  <wgt id="193">4.3237e-12</wgt>
  <wgt id="194">4.22296e-12</wgt>
  <wgt id="195">4.12287e-12</wgt>
  <wgt id="196">4.48118e-12</wgt>
  <wgt id="197">4.27914e-12</wgt>
  <wgt id="198">4.25093e-12</wgt>
  <wgt id="199">4.25651e-12</wgt>
  <wgt id="200">4.29574e-12</wgt>
  <wgt id="201">4.28176e-12</wgt>
  <wgt id="202">4.26845e-12</wgt>
  <wgt id="203">4.24845e-12</wgt>
  <wgt id="204">4.23875e-12</wgt>
  <wgt id="205">4.23075e-12</wgt>
  <wgt id="206">4.13161e-12</wgt>
  <wgt id="207">4.15624e-12</wgt>
  <wgt id="208">4.10733e-12</wgt>
  <wgt id="209">4.14528e-12</wgt>
  <wgt id="210">4.12173e-12</wgt>
  <wgt id="211">4.13004e-12</wgt>
  <wgt id="212">4.13292e-12</wgt>
  <wgt id="213">4.13128e-12</wgt>
  <wgt id="214">4.1322e-12</wgt>
  <wgt id="215">4.13497e-12</wgt>
  <wgt id="216">4.12928e-12</wgt>
  <wgt id="217">4.14301e-12</wgt>
  <wgt id="218">4.12288e-12</wgt>
  <wgt id="219">4.12778e-12</wgt>
  <wgt id="220">4.13401e-12</wgt>
  <wgt id="221">4.13112e-12</wgt>
  <wgt id="222">4.13231e-12</wgt>
  <wgt id="223">3.90145e-12</wgt>
  <wgt id="224">4.34221e-12</wgt>
  <wgt id="225">4.07963e-12</wgt>
  <wgt id="226">4.19744e-12</wgt>
  <wgt id="227">4.09126e-12</wgt>
  <wgt id="228">4.14938e-12</wgt>
  <wgt id="229">4.07225e-12</wgt>
  <wgt id="230">4.16115e-12</wgt>
  <wgt id="231">4.26113e-12</wgt>
  <wgt id="232">4.02552e-12</wgt>
  <wgt id="233">4.10792e-12</wgt>
  <wgt id="234">4.17054e-12</wgt>
  <wgt id="235">4.00741e-12</wgt>
  <wgt id="236">4.23785e-12</wgt>
  <wgt id="237">4.05466e-12</wgt>
  <wgt id="238">4.15747e-12</wgt>
  <wgt id="239">4.09966e-12</wgt>
  <wgt id="240">4.18916e-12</wgt>
  <wgt id="241">4.08505e-12</wgt>
  <wgt id="242">4.18756e-12</wgt>
  <wgt id="243">4.19629e-12</wgt>
  <wgt id="244">4.14294e-12</wgt>
  <wgt id="245">4.12943e-12</wgt>
  <wgt id="246">4.15882e-12</wgt>
  <wgt id="247">4.13161e-12</wgt>
  <wgt id="248">4.17155e-12</wgt>
  <wgt id="249">4.15707e-12</wgt>
  <wgt id="250">4.14284e-12</wgt>
  <wgt id="251">4.12241e-12</wgt>
  <wgt id="252">4.1125e-12</wgt>
  <wgt id="253">4.1055e-12</wgt>
  <wgt id="254">4.02333e-12</wgt>
  <wgt id="255">4.02719e-12</wgt>
  <wgt id="256">4.01921e-12</wgt>
  <wgt id="257">4.02636e-12</wgt>
  <wgt id="258">4.02116e-12</wgt>
  <wgt id="259">4.05035e-12</wgt>
  <wgt id="260">3.99725e-12</wgt>
  <wgt id="261">4.03023e-12</wgt>
  <wgt id="262">4.0152e-12</wgt>
  <wgt id="263">4.02094e-12</wgt>
  <wgt id="264">4.02622e-12</wgt>
  <wgt id="265">4.01826e-12</wgt>
  <wgt id="266">4.03356e-12</wgt>
  <wgt id="267">4.0248e-12</wgt>
  <wgt id="268">4.02142e-12</wgt>
  <wgt id="269">4.03684e-12</wgt>
  <wgt id="270">4.01418e-12</wgt>
  <wgt id="271">4.01493e-12</wgt>
  <wgt id="272">4.0327e-12</wgt>
  <wgt id="273">4.01123e-12</wgt>
  <wgt id="274">4.03263e-12</wgt>
  <wgt id="275">4.00305e-12</wgt>
  <wgt id="276">4.04439e-12</wgt>
  <wgt id="277">3.99958e-12</wgt>
  <wgt id="278">4.04512e-12</wgt>
  <wgt id="279">3.9445e-12</wgt>
  <wgt id="280">4.12255e-12</wgt>
  <wgt id="281">4.00453e-12</wgt>
  <wgt id="282">4.02598e-12</wgt>
  <wgt id="283">3.8988e-12</wgt>
  <wgt id="284">4.17773e-12</wgt>
  <wgt id="285">3.8178e-12</wgt>
  <wgt id="286">4.19521e-12</wgt>
  <wgt id="287">4.03689e-12</wgt>
  <wgt id="288">4.00604e-12</wgt>
  <wgt id="289">4.05397e-12</wgt>
  <wgt id="290">3.95379e-12</wgt>
  <wgt id="291">4.00988e-12</wgt>
  <wgt id="292">4.02533e-12</wgt>
  <wgt id="293">3.98997e-12</wgt>
  <wgt id="294">4.05664e-12</wgt>
  <wgt id="295">3.94213e-12</wgt>
  <wgt id="296">4.12276e-12</wgt>
  <wgt id="297">4.0186e-12</wgt>
  <wgt id="298">4.0417e-12</wgt>
  <wgt id="299">4.00977e-12</wgt>
  <wgt id="300">4.05958e-12</wgt>
  <wgt id="301">3.95266e-12</wgt>
  <wgt id="302">4.19167e-12</wgt>
  <wgt id="303">3.98541e-12</wgt>
  <wgt id="304">4.04489e-12</wgt>
  <wgt id="305">4.01518e-12</wgt>
  <wgt id="306">4.01915e-12</wgt>
  <wgt id="307">4.0109e-12</wgt>
  <wgt id="308">4.01852e-12</wgt>
  <wgt id="309">4.01298e-12</wgt>
  <wgt id="310">4.04303e-12</wgt>
  <wgt id="311">3.9894e-12</wgt>
  <wgt id="312">4.02108e-12</wgt>
  <wgt id="313">4.00891e-12</wgt>
  <wgt id="314">4.01273e-12</wgt>
  <wgt id="315">4.01752e-12</wgt>
  <wgt id="316">4.01019e-12</wgt>
  <wgt id="317">4.02598e-12</wgt>
  <wgt id="318">4.01829e-12</wgt>
  <wgt id="319">4.00975e-12</wgt>
  <wgt id="320">4.02947e-12</wgt>
  <wgt id="321">4.0072e-12</wgt>
  <wgt id="322">4.00511e-12</wgt>
  <wgt id="323">4.02683e-12</wgt>
  <wgt id="324">4.00534e-12</wgt>
  <wgt id="325">4.02374e-12</wgt>
  <wgt id="326">3.99878e-12</wgt>
  <wgt id="327">4.03619e-12</wgt>
  <wgt id="328">3.99407e-12</wgt>
  <wgt id="329">4.02692e-12</wgt>
  <wgt id="330">4.1353e-12</wgt>
  <wgt id="331">3.90079e-12</wgt>
  <wgt id="332">3.99946e-12</wgt>
  <wgt id="333">4.01655e-12</wgt>
  <wgt id="334">3.91857e-12</wgt>
  <wgt id="335">4.13568e-12</wgt>
  <wgt id="336">3.86728e-12</wgt>
  <wgt id="337">4.19674e-12</wgt>
  <wgt id="338">4.06266e-12</wgt>
  <wgt id="339">3.97128e-12</wgt>
  <wgt id="340">4.04357e-12</wgt>
  <wgt id="341">3.94357e-12</wgt>
  <wgt id="342">4.00543e-12</wgt>
  <wgt id="343">4.00993e-12</wgt>
  <wgt id="344">3.98526e-12</wgt>
  <wgt id="345">4.04992e-12</wgt>
  <wgt id="346">3.93123e-12</wgt>
  <wgt id="347">4.11175e-12</wgt>
  <wgt id="348">4.01155e-12</wgt>
  <wgt id="349">4.03113e-12</wgt>
  <wgt id="350">3.99818e-12</wgt>
  <wgt id="351">4.05834e-12</wgt>
  <wgt id="352">3.93971e-12</wgt>
  <wgt id="353">4.186e-12</wgt>
  <wgt id="354">3.95877e-12</wgt>
  <wgt id="355">4.04905e-12</wgt>
  <wgt id="356">4.02333e-12</wgt>
  <wgt id="357">4.02597e-12</wgt>
  <wgt id="358">4.01518e-12</wgt>
  <wgt id="359">4.03136e-12</wgt>
  <wgt id="360">4.06924e-12</wgt>
  <wgt id="361">4.03997e-12</wgt>
  <wgt id="362">4.11624e-12</wgt>
  <wgt id="363">4.10582e-12</wgt>
  <wgt id="364">4.08874e-12</wgt>
  <wgt id="365">4.07394e-12</wgt>
  <wgt id="366">4.05795e-12</wgt>
  <wgt id="367">4.02618e-12</wgt>
  <wgt id="368">4.00762e-12</wgt>
  <wgt id="369">3.98765e-12</wgt>
  <wgt id="370">4.03997e-12</wgt>
  <wgt id="371">4.05771e-12</wgt>
  <wgt id="372">4.04791e-12</wgt>
  <wgt id="373">4.0335e-12</wgt>
  <wgt id="374">4.03487e-12</wgt>
  <wgt id="375">4.43613e-12</wgt>
  <wgt id="376">4.43666e-12</wgt>
  <wgt id="377">4.43543e-12</wgt>
  <wgt id="378">4.45254e-12</wgt>
  <wgt id="379">4.4198e-12</wgt>
  <wgt id="380">4.44821e-12</wgt>
  <wgt id="381">4.43131e-12</wgt>
  <wgt id="382">4.4593e-12</wgt>
  <wgt id="383">4.41317e-12</wgt>
  <wgt id="384">4.43905e-12</wgt>
  <wgt id="385">4.43322e-12</wgt>
  <wgt id="386">4.45362e-12</wgt>
  <wgt id="387">4.42859e-12</wgt>
  <wgt id="388">4.43188e-12</wgt>
  <wgt id="389">4.44131e-12</wgt>
  <wgt id="390">4.4479e-12</wgt>
  <wgt id="391">4.42363e-12</wgt>
  <wgt id="392">4.39795e-12</wgt>
  <wgt id="393">4.45787e-12</wgt>
  <wgt id="394">4.44125e-12</wgt>
  <wgt id="395">4.429e-12</wgt>
  <wgt id="396">4.44166e-12</wgt>
  <wgt id="397">4.43218e-12</wgt>
  <wgt id="398">4.41996e-12</wgt>
  <wgt id="399">4.45171e-12</wgt>
  <wgt id="400">4.42846e-12</wgt>
  <wgt id="401">4.45334e-12</wgt>
  <wgt id="402">4.39686e-12</wgt>
  <wgt id="403">4.45651e-12</wgt>
  <wgt id="404">4.55174e-12</wgt>
  <wgt id="405">4.15929e-12</wgt>
  <wgt id="406">4.35332e-12</wgt>
  <wgt id="407">4.61805e-12</wgt>
  <wgt id="408">4.47911e-12</wgt>
  <wgt id="409">4.35534e-12</wgt>
  <wgt id="410">4.30105e-12</wgt>
  <wgt id="411">4.49996e-12</wgt>
  <wgt id="412">4.42699e-12</wgt>
  <wgt id="413">4.44998e-12</wgt>
  <wgt id="414">4.38212e-12</wgt>
  <wgt id="415">4.47808e-12</wgt>
  <wgt id="416">4.57133e-12</wgt>
  <wgt id="417">4.24982e-12</wgt>
  <wgt id="418">4.44337e-12</wgt>
  <wgt id="419">4.3971e-12</wgt>
  <wgt id="420">4.5245e-12</wgt>
  <wgt id="421">4.38081e-12</wgt>
  <wgt id="422">4.41967e-12</wgt>
  <wgt id="423">4.44444e-12</wgt>
  <wgt id="424">4.54791e-12</wgt>
  <wgt id="425">4.36288e-12</wgt>
  <wgt id="426">4.43613e-12</wgt>
  <wgt id="427">4.37548e-12</wgt>
  <wgt id="428">4.59166e-12</wgt>
  <wgt id="429">4.48626e-12</wgt>
  <wgt id="430">4.6233e-12</wgt>
  <wgt id="431">4.59579e-12</wgt>
  <wgt id="432">4.57015e-12</wgt>
  <wgt id="433">4.54515e-12</wgt>
  <wgt id="434">4.51415e-12</wgt>
  <wgt id="435">4.4514e-12</wgt>
  <wgt id="436">4.41947e-12</wgt>
  <wgt id="437">4.38867e-12</wgt>
  <wgt id="438">4.48626e-12</wgt>
  <wgt id="439">4.5007e-12</wgt>
  <wgt id="440">4.49193e-12</wgt>
  <wgt id="441">4.48204e-12</wgt>
  <wgt id="442">4.47866e-12</wgt>
  <wgt id="443">4.22657e-12</wgt>
  <wgt id="444">4.25971e-12</wgt>
  <wgt id="445">4.23177e-12</wgt>
  <wgt id="446">4.19685e-12</wgt>
  <wgt id="447">4.21866e-12</wgt>
  <wgt id="448">4.11403e-12</wgt>
  <wgt id="449">4.30208e-12</wgt>
  <wgt id="450">4.23977e-12</wgt>
  <wgt id="451">4.21695e-12</wgt>
  <wgt id="452">4.32572e-12</wgt>
  <wgt id="453">4.27227e-12</wgt>
  <wgt id="454">4.03359e-12</wgt>
  <wgt id="455">4.24358e-12</wgt>
  <wgt id="456">4.24232e-12</wgt>
  <wgt id="457">4.24375e-12</wgt>
  <wgt id="458">4.28733e-12</wgt>
  <wgt id="459">4.26088e-12</wgt>
  <wgt id="460">4.27439e-12</wgt>
  <wgt id="461">4.13413e-12</wgt>
  <wgt id="462">4.19148e-12</wgt>
  <wgt id="463">4.16894e-12</wgt>
  <wgt id="464">4.20271e-12</wgt>
  <wgt id="465">4.2749e-12</wgt>
  <wgt id="466">4.15613e-12</wgt>
  <wgt id="467">4.18562e-12</wgt>
  <wgt id="468">4.21683e-12</wgt>
  <wgt id="469">4.21465e-12</wgt>
  <wgt id="470">4.17595e-12</wgt>
  <wgt id="471">4.18114e-12</wgt>
  <wgt id="472">4.25052e-12</wgt>
  <wgt id="473">4.08091e-12</wgt>
  <wgt id="474">3.0282e-12</wgt>
  <wgt id="475">3.11145e-12</wgt>
  <wgt id="476">2.984e-12</wgt>
  <wgt id="477">2.99214e-12</wgt>
  <wgt id="478">3.05119e-12</wgt>
  <wgt id="479">2.93568e-12</wgt>
  <wgt id="480">3.16147e-12</wgt>
  <wgt id="481">3.01612e-12</wgt>
  <wgt id="482">2.97544e-12</wgt>
  <wgt id="483">2.96804e-12</wgt>
  <wgt id="484">3.159e-12</wgt>
  <wgt id="485">2.9198e-12</wgt>
  <wgt id="486">3.15949e-12</wgt>
  <wgt id="487">3.03237e-12</wgt>
  <wgt id="488">3.07905e-12</wgt>
  <wgt id="489">2.8417e-12</wgt>
  <wgt id="490">2.91062e-12</wgt>
  <wgt id="491">2.99977e-12</wgt>
  <wgt id="492">2.96246e-12</wgt>
  <wgt id="493">2.8744e-12</wgt>
  <wgt id="494">2.89957e-12</wgt>
  <wgt id="495">3.05736e-12</wgt>
  <wgt id="496">2.918e-12</wgt>
  <wgt id="497">2.87717e-12</wgt>
  <wgt id="498">3.10657e-12</wgt>
  <wgt id="499">2.99819e-12</wgt>
  <wgt id="500">2.96481e-12</wgt>
  <wgt id="501">3.16327e-12</wgt>
  <wgt id="502">3.03034e-12</wgt>
  <wgt id="503">3.01371e-12</wgt>
  <wgt id="504">3.09942e-12</wgt>
  <wgt id="505">3.06426e-12</wgt>
  <wgt id="506">2.96975e-12</wgt>
  <wgt id="507">3.02072e-12</wgt>
  <wgt id="508">3.13243e-12</wgt>
  <wgt id="509">2.87505e-12</wgt>
  <wgt id="510">3.10417e-12</wgt>
  <wgt id="511">2.92748e-12</wgt>
  <wgt id="512">3.14529e-12</wgt>
  <wgt id="513">3.16259e-12</wgt>
  <wgt id="514">3.08482e-12</wgt>
  <wgt id="515">3.03015e-12</wgt>
  <wgt id="516">3.218e-12</wgt>
  <wgt id="517">3.09784e-12</wgt>
  <wgt id="518">3.11178e-12</wgt>
  <wgt id="519">2.922e-12</wgt>
  <wgt id="520">3.08766e-12</wgt>
  <wgt id="521">3.06963e-12</wgt>
  <wgt id="522">3.15996e-12</wgt>
  <wgt id="523">2.99089e-12</wgt>
  <wgt id="524">3.03885e-12</wgt>
  <wgt id="525">3.08712e-12</wgt>
  <wgt id="526">3.10083e-12</wgt>
  <wgt id="527">3.03658e-12</wgt>
  <wgt id="528">3.0483e-12</wgt>
  <wgt id="529">2.95717e-12</wgt>
  <wgt id="530">3.12057e-12</wgt>
  <wgt id="531">2.95956e-12</wgt>
  <wgt id="532">3.2438e-12</wgt>
  <wgt id="533">2.91453e-12</wgt>
  <wgt id="534">2.99635e-12</wgt>
  <wgt id="535">3.037e-12</wgt>
  <wgt id="536">3.04879e-12</wgt>
  <wgt id="537">2.98107e-12</wgt>
  <wgt id="538">3.03878e-12</wgt>
  <wgt id="539">2.96788e-12</wgt>
  <wgt id="540">3.06668e-12</wgt>
  <wgt id="541">2.96448e-12</wgt>
  <wgt id="542">2.99049e-12</wgt>
  <wgt id="543">2.98845e-12</wgt>
  <wgt id="544">3.13216e-12</wgt>
  <wgt id="545">2.943e-12</wgt>
  <wgt id="546">2.90598e-12</wgt>
  <wgt id="547">2.94191e-12</wgt>
  <wgt id="548">2.90646e-12</wgt>
  <wgt id="549">2.97123e-12</wgt>
  <wgt id="550">2.97129e-12</wgt>
  <wgt id="551">3.06174e-12</wgt>
  <wgt id="552">2.89454e-12</wgt>
  <wgt id="553">2.95741e-12</wgt>
  <wgt id="554">3.22972e-12</wgt>
  <wgt id="555">3.10715e-12</wgt>
  <wgt id="556">2.91062e-12</wgt>
  <wgt id="557">3.10412e-12</wgt>
  <wgt id="558">2.96151e-12</wgt>
  <wgt id="559">2.98439e-12</wgt>
  <wgt id="560">3.33553e-12</wgt>
  <wgt id="561">3.02013e-12</wgt>
  <wgt id="562">3.11664e-12</wgt>
  <wgt id="563">3.11862e-12</wgt>
  <wgt id="564">3.11701e-12</wgt>
  <wgt id="565">2.98443e-12</wgt>
  <wgt id="566">3.03973e-12</wgt>
  <wgt id="567">3.00524e-12</wgt>
  <wgt id="568">2.98422e-12</wgt>
  <wgt id="569">3.06518e-12</wgt>
  <wgt id="570">2.90365e-12</wgt>
  <wgt id="571">3.36004e-12</wgt>
  <wgt id="572">2.95582e-12</wgt>
  <wgt id="573">2.92149e-12</wgt>
  <wgt id="574">2.93517e-12</wgt>
  <wgt id="575">3.35324e-12</wgt>
  <wgt id="576">3.46519e-12</wgt>
  <wgt id="577">3.45934e-12</wgt>
  <wgt id="578">3.44772e-12</wgt>
  <wgt id="579">3.45695e-12</wgt>
  <wgt id="580">3.49761e-12</wgt>
  <wgt id="581">3.63886e-12</wgt>
  <wgt id="582">3.44083e-12</wgt>
  <wgt id="583">3.39359e-12</wgt>
  <wgt id="584">3.33775e-12</wgt>
  <wgt id="585">3.24817e-12</wgt>
  <wgt id="586">3.22226e-12</wgt>
  <wgt id="587">3.40894e-12</wgt>
  <wgt id="588">3.44423e-12</wgt>
  <wgt id="589">3.52172e-12</wgt>
  <wgt id="590">3.36165e-12</wgt>
  <wgt id="591">3.46429e-12</wgt>
  <wgt id="592">3.15396e-12</wgt>
  <wgt id="593">3.30489e-12</wgt>
  <wgt id="594">3.3774e-12</wgt>
  <wgt id="595">3.40809e-12</wgt>
  <wgt id="596">3.60115e-12</wgt>
  <wgt id="597">3.32457e-12</wgt>
  <wgt id="598">3.25462e-12</wgt>
  <wgt id="599">3.51909e-12</wgt>
  <wgt id="600">3.40401e-12</wgt>
  <wgt id="601">3.24057e-12</wgt>
  <wgt id="602">3.25735e-12</wgt>
  <wgt id="603">3.22645e-12</wgt>
  <wgt id="604">3.41447e-12</wgt>
  <wgt id="605">3.45214e-12</wgt>
  <wgt id="606">3.35587e-12</wgt>
  <wgt id="607">3.38878e-12</wgt>
  <wgt id="608">3.43871e-12</wgt>
  <wgt id="609">3.23726e-12</wgt>
  <wgt id="610">3.2299e-12</wgt>
  <wgt id="611">3.30588e-12</wgt>
  <wgt id="612">3.55468e-12</wgt>
  <wgt id="613">3.2752e-12</wgt>
  <wgt id="614">3.36098e-12</wgt>
  <wgt id="615">3.33103e-12</wgt>
  <wgt id="616">3.40756e-12</wgt>
  <wgt id="617">3.47889e-12</wgt>
  <wgt id="618">3.58684e-12</wgt>
  <wgt id="619">3.29431e-12</wgt>
  <wgt id="620">3.48843e-12</wgt>
  <wgt id="621">3.35178e-12</wgt>
  <wgt id="622">3.40894e-12</wgt>
  <wgt id="623">3.41967e-12</wgt>
  <wgt id="624">3.36741e-12</wgt>
  <wgt id="625">3.25996e-12</wgt>
  <wgt id="626">3.16413e-12</wgt>
  <wgt id="627">3.14384e-12</wgt>
  <wgt id="628">3.44774e-12</wgt>
  <wgt id="629">3.31697e-12</wgt>
  <wgt id="630">3.25635e-12</wgt>
  <wgt id="631">3.39687e-12</wgt>
  <wgt id="632">3.14465e-12</wgt>
  <wgt id="633">3.33031e-12</wgt>
  <wgt id="634">3.27758e-12</wgt>
  <wgt id="635">3.1649e-12</wgt>
  <wgt id="636">3.39125e-12</wgt>
  <wgt id="637">3.35488e-12</wgt>
  <wgt id="638">3.21817e-12</wgt>
  <wgt id="639">3.26908e-12</wgt>
  <wgt id="640">3.32487e-12</wgt>
  <wgt id="641">3.44335e-12</wgt>
  <wgt id="642">3.25419e-12</wgt>
  <wgt id="643">3.30664e-12</wgt>
  <wgt id="644">3.0801e-12</wgt>
  <wgt id="645">3.3689e-12</wgt>
  <wgt id="646">3.26593e-12</wgt>
  <wgt id="647">3.33713e-12</wgt>
  <wgt id="648">3.43041e-12</wgt>
  <wgt id="649">3.38357e-12</wgt>
  <wgt id="650">3.23744e-12</wgt>
  <wgt id="651">3.47975e-12</wgt>
  <wgt id="652">3.27569e-12</wgt>
  <wgt id="653">3.24366e-12</wgt>
  <wgt id="654">3.3269e-12</wgt>
  <wgt id="655">3.27758e-12</wgt>
  <wgt id="656">3.36306e-12</wgt>
  <wgt id="657">3.58144e-12</wgt>
  <wgt id="658">3.3796e-12</wgt>
  <wgt id="659">3.21636e-12</wgt>
  <wgt id="660">3.35099e-12</wgt>
  <wgt id="661">3.28767e-12</wgt>
  <wgt id="662">3.31923e-12</wgt>
  <wgt id="663">3.3805e-12</wgt>
  <wgt id="664">3.33781e-12</wgt>
  <wgt id="665">3.3394e-12</wgt>
  <wgt id="666">3.30034e-12</wgt>
  <wgt id="667">3.49337e-12</wgt>
  <wgt id="668">3.34143e-12</wgt>
  <wgt id="669">3.40258e-12</wgt>
  <wgt id="670">3.47191e-12</wgt>
  <wgt id="671">3.35273e-12</wgt>
  <wgt id="672">3.21823e-12</wgt>
  <wgt id="673">3.4483e-12</wgt>
  <wgt id="674">3.27167e-12</wgt>
  <wgt id="675">3.28565e-12</wgt>
  <wgt id="676">4.30777e-12</wgt>
  <wgt id="677">4.35462e-12</wgt>
  <wgt id="678">4.60231e-12</wgt>
  <wgt id="679">4.14166e-12</wgt>
  <wgt id="680">4.28178e-12</wgt>
  <wgt id="681">4.30955e-12</wgt>
  <wgt id="682">4.47916e-12</wgt>
  <wgt id="683">4.14734e-12</wgt>
  <wgt id="684">4.51262e-12</wgt>
  <wgt id="685">4.1782e-12</wgt>
  <wgt id="686">4.20739e-12</wgt>
  <wgt id="687">4.50736e-12</wgt>
  <wgt id="688">4.21545e-12</wgt>
  <wgt id="689">4.59057e-12</wgt>
  <wgt id="690">4.47085e-12</wgt>
  <wgt id="691">4.48803e-12</wgt>
  <wgt id="692">4.23403e-12</wgt>
  <wgt id="693">5.33995e-12</wgt>
  <wgt id="694">4.64465e-12</wgt>
  <wgt id="695">4.12664e-12</wgt>
  <wgt id="696">4.10995e-12</wgt>
  <wgt id="697">4.05254e-12</wgt>
  <wgt id="698">3.76515e-12</wgt>
  <wgt id="699">3.77275e-12</wgt>
  <wgt id="700">3.7556e-12</wgt>
  <wgt id="701">4.31605e-12</wgt>
  <wgt id="702">4.20011e-12</wgt>
  <wgt id="703">5.11691e-12</wgt>
  <wgt id="704">4.80305e-12</wgt>
  <wgt id="705">4.67757e-12</wgt>
  <wgt id="706">4.03368e-12</wgt>
  <wgt id="707">4.0919e-12</wgt>
  <wgt id="708">4.21006e-12</wgt>
  <wgt id="709">4.20954e-12</wgt>
  <wgt id="710">3.83162e-12</wgt>
  <wgt id="711">4.35573e-12</wgt>
  <wgt id="712">4.14038e-12</wgt>
  <wgt id="713">4.65563e-12</wgt>
  <wgt id="714">4.07645e-12</wgt>
  <wgt id="715">4.19998e-12</wgt>
  <wgt id="716">4.15494e-12</wgt>
  <wgt id="717">3.94366e-12</wgt>
  <wgt id="718">4.36151e-12</wgt>
  <wgt id="719">3.89632e-12</wgt>
  <wgt id="720">4.1872e-12</wgt>
  <wgt id="721">3.79196e-12</wgt>
  <wgt id="722">3.63077e-12</wgt>
  <wgt id="723">4.70361e-12</wgt>
  <wgt id="724">4.58761e-12</wgt>
  <wgt id="725">4.52558e-12</wgt>
  <wgt id="726">4.31994e-12</wgt>
  <wgt id="727">4.25465e-12</wgt>
  <wgt id="728">4.17804e-12</wgt>
  <wgt id="729">4.07437e-12</wgt>
  <wgt id="730">4.7201e-12</wgt>
  <wgt id="731">4.23749e-12</wgt>
  <wgt id="732">4.8676e-12</wgt>
  <wgt id="733">4.16462e-12</wgt>
  <wgt id="734">4.43172e-12</wgt>
  <wgt id="735">4.32339e-12</wgt>
  <wgt id="736">4.12054e-12</wgt>
  <wgt id="737">4.2772e-12</wgt>
  <wgt id="738">4.0885e-12</wgt>
  <wgt id="739">4.54172e-12</wgt>
  <wgt id="740">4.91552e-12</wgt>
  <wgt id="741">4.06512e-12</wgt>
  <wgt id="742">4.24112e-12</wgt>
  <wgt id="743">4.00514e-12</wgt>
  <wgt id="744">4.22358e-12</wgt>
  <wgt id="745">4.59342e-12</wgt>
  <wgt id="746">4.70303e-12</wgt>
  <wgt id="747">3.73898e-12</wgt>
  <wgt id="748">4.21865e-12</wgt>
  <wgt id="749">4.49997e-12</wgt>
  <wgt id="750">4.54097e-12</wgt>
  <wgt id="751">4.38603e-12</wgt>
  <wgt id="752">3.9102e-12</wgt>
  <wgt id="753">3.98168e-12</wgt>
  <wgt id="754">4.50246e-12</wgt>
  <wgt id="755">4.27721e-12</wgt>
  <wgt id="756">4.26729e-12</wgt>
  <wgt id="757">3.86085e-12</wgt>
  <wgt id="758">4.27187e-12</wgt>
  <wgt id="759">4.60785e-12</wgt>
  <wgt id="760">4.26121e-12</wgt>
  <wgt id="761">4.62864e-12</wgt>
  <wgt id="762">4.65967e-12</wgt>
  <wgt id="763">4.31222e-12</wgt>
  <wgt id="764">4.53166e-12</wgt>
  <wgt id="765">4.35364e-12</wgt>
  <wgt id="766">4.32611e-12</wgt>
  <wgt id="767">4.40765e-12</wgt>
  <wgt id="768">3.99543e-12</wgt>
  <wgt id="769">4.57324e-12</wgt>
  <wgt id="770">4.15399e-12</wgt>
  <wgt id="771">5.19681e-12</wgt>
  <wgt id="772">4.12822e-12</wgt>
  <wgt id="773">4.2791e-12</wgt>
  <wgt id="774">3.60034e-12</wgt>
  <wgt id="775">4.5269e-12</wgt>
  <wgt id="776">4.78468e-12</wgt>
  <wgt id="777">3.96638e-12</wgt>
  <wgt id="778">3.01977e-12</wgt>
  <wgt id="779">2.21586e-12</wgt>
  <wgt id="780">1.5943e-12</wgt>
  <wgt id="781">3.406e-12</wgt>
  <wgt id="782">3.42606e-12</wgt>
  <wgt id="783">2.17169e-12</wgt>
  <wgt id="784">2.42236e-12</wgt>
  <wgt id="785">4.09572e-12</wgt>
  <wgt id="786">2.08825e-12</wgt>
  <wgt id="787">3.64898e-12</wgt>
  <wgt id="788">1.35983e-12</wgt>
  <wgt id="789">2.3242e-12</wgt>
  <wgt id="790">2.04944e-12</wgt>
  <wgt id="791">3.11758e-12</wgt>
  <wgt id="792">4.02311e-12</wgt>
  <wgt id="793">2.94875e-12</wgt>
  <wgt id="794">1.97498e-12</wgt>
  <wgt id="795">3.83817e-12</wgt>
  <wgt id="796">4.1033e-12</wgt>
  <wgt id="797">3.76454e-12</wgt>
  <wgt id="798">2.56629e-12</wgt>
  <wgt id="799">3.59626e-12</wgt>
  <wgt id="800">2.41333e-12</wgt>
  <wgt id="801">2.78724e-12</wgt>
  <wgt id="802">1.9427e-12</wgt>
  <wgt id="803">4.51487e-12</wgt>
  <wgt id="804">3.81101e-12</wgt>
  <wgt id="805">3.81208e-12</wgt>
  <wgt id="806">3.2978e-12</wgt>
  <wgt id="807">2.88215e-12</wgt>
  <wgt id="808">2.89248e-12</wgt>
  <wgt id="809">2.754e-12</wgt>
  <wgt id="810">3.38256e-12</wgt>
  <wgt id="811">3.25391e-12</wgt>
  <wgt id="812">2.04383e-12</wgt>
  <wgt id="813">2.16988e-12</wgt>
  <wgt id="814">2.36134e-12</wgt>
  <wgt id="815">2.17852e-12</wgt>
  <wgt id="816">2.06968e-12</wgt>
  <wgt id="817">3.09801e-12</wgt>
  <wgt id="818">3.41953e-12</wgt>
  <wgt id="819">2.2051e-12</wgt>
  <wgt id="820">2.94796e-12</wgt>
  <wgt id="821">3.58715e-12</wgt>
  <wgt id="822">2.39867e-12</wgt>
  <wgt id="823">3.68055e-12</wgt>
  <wgt id="824">4.42284e-12</wgt>
  <wgt id="825">1.8905e-12</wgt>
  <wgt id="826">3.45587e-12</wgt>
  <wgt id="827">1.57273e-12</wgt>
  <wgt id="828">3.87903e-12</wgt>
  <wgt id="829">3.14113e-12</wgt>
  <wgt id="830">1.78073e-12</wgt>
  <wgt id="831">3.3959e-12</wgt>
  <wgt id="832">5.21911e-12</wgt>
  <wgt id="833">2.60876e-12</wgt>
  <wgt id="834">4.98557e-12</wgt>
  <wgt id="835">2.30798e-12</wgt>
  <wgt id="836">2.76041e-12</wgt>
  <wgt id="837">3.51806e-12</wgt>
  <wgt id="838">2.67819e-12</wgt>
  <wgt id="839">3.36707e-12</wgt>
  <wgt id="840">2.68005e-12</wgt>
  <wgt id="841">4.02505e-12</wgt>
  <wgt id="842">2.80623e-12</wgt>
  <wgt id="843">3.1302e-12</wgt>
  <wgt id="844">3.25089e-12</wgt>
  <wgt id="845">4.79481e-12</wgt>
  <wgt id="846">3.08052e-12</wgt>
  <wgt id="847">3.13474e-12</wgt>
  <wgt id="848">2.25877e-12</wgt>
  <wgt id="849">3.17619e-12</wgt>
  <wgt id="850">4.30386e-12</wgt>
  <wgt id="851">3.43824e-12</wgt>
  <wgt id="852">2.12618e-12</wgt>
  <wgt id="853">3.52271e-12</wgt>
  <wgt id="854">3.94242e-12</wgt>
  <wgt id="855">3.65557e-12</wgt>
  <wgt id="856">1.80033e-12</wgt>
  <wgt id="857">2.85124e-12</wgt>
  <wgt id="858">2.85163e-12</wgt>
  <wgt id="859">2.84672e-12</wgt>
  <wgt id="860">3.5797e-12</wgt>
  <wgt id="861">2.56995e-12</wgt>
  <wgt id="862">3.07963e-12</wgt>
  <wgt id="863">3.35192e-12</wgt>
  <wgt id="864">3.18596e-12</wgt>
  <wgt id="865">4.66617e-12</wgt>
  <wgt id="866">5.13711e-12</wgt>
  <wgt id="867">3.10384e-12</wgt>
  <wgt id="868">3.05812e-12</wgt>
  <wgt id="869">2.05468e-12</wgt>
  <wgt id="870">2.24993e-12</wgt>
  <wgt id="871">2.18729e-12</wgt>
  <wgt id="872">3.96921e-12</wgt>
  <wgt id="873">2.45047e-12</wgt>
  <wgt id="874">3.27578e-12</wgt>
  <wgt id="875">2.4964e-12</wgt>
  <wgt id="876">3.89685e-12</wgt>
  <wgt id="877">3.49688e-12</wgt>
  <wgt id="878">2.43427e-12</wgt>
  <wgt id="879">4.30777e-12</wgt>
  <wgt id="880">4.35462e-12</wgt>
  <wgt id="881">4.60231e-12</wgt>
  <wgt id="882">4.14166e-12</wgt>
  <wgt id="883">4.28178e-12</wgt>
  <wgt id="884">4.30955e-12</wgt>
  <wgt id="885">4.47916e-12</wgt>
  <wgt id="886">4.14734e-12</wgt>
  <wgt id="887">4.51262e-12</wgt>
  <wgt id="888">4.1782e-12</wgt>
  <wgt id="889">4.20739e-12</wgt>
  <wgt id="890">4.50736e-12</wgt>
  <wgt id="891">4.21545e-12</wgt>
  <wgt id="892">4.59057e-12</wgt>
  <wgt id="893">4.47085e-12</wgt>
  <wgt id="894">4.48803e-12</wgt>
  <wgt id="895">4.23403e-12</wgt>
  <wgt id="896">5.33995e-12</wgt>
  <wgt id="897">4.64465e-12</wgt>
  <wgt id="898">4.12664e-12</wgt>
  <wgt id="899">4.10995e-12</wgt>
  <wgt id="900">4.05254e-12</wgt>
  <wgt id="901">3.76515e-12</wgt>
  <wgt id="902">3.77275e-12</wgt>
  <wgt id="903">3.7556e-12</wgt>
  <wgt id="904">4.31605e-12</wgt>
  <wgt id="905">4.20011e-12</wgt>
  <wgt id="906">5.11691e-12</wgt>
  <wgt id="907">4.80305e-12</wgt>
  <wgt id="908">4.67757e-12</wgt>
  <wgt id="909">4.03368e-12</wgt>
  <wgt id="910">4.0919e-12</wgt>
  <wgt id="911">4.21006e-12</wgt>
  <wgt id="912">4.20954e-12</wgt>
  <wgt id="913">3.83162e-12</wgt>
  <wgt id="914">4.35573e-12</wgt>
  <wgt id="915">4.14038e-12</wgt>
  <wgt id="916">4.65563e-12</wgt>
  <wgt id="917">4.07645e-12</wgt>
  <wgt id="918">4.19998e-12</wgt>
  <wgt id="919">4.15494e-12</wgt>
  <wgt id="920">3.94366e-12</wgt>
  <wgt id="921">4.36151e-12</wgt>
  <wgt id="922">3.89632e-12</wgt>
  <wgt id="923">4.1872e-12</wgt>
  <wgt id="924">3.79196e-12</wgt>
  <wgt id="925">3.63077e-12</wgt>
  <wgt id="926">4.70361e-12</wgt>
  <wgt id="927">4.58761e-12</wgt>
  <wgt id="928">4.52558e-12</wgt>
  <wgt id="929">4.31994e-12</wgt>
  <wgt id="930">4.25465e-12</wgt>
  <wgt id="931">4.17804e-12</wgt>
  <wgt id="932">4.07437e-12</wgt>
  <wgt id="933">4.7201e-12</wgt>
  <wgt id="934">4.23749e-12</wgt>
  <wgt id="935">4.8676e-12</wgt>
  <wgt id="936">4.16462e-12</wgt>
  <wgt id="937">4.43172e-12</wgt>
  <wgt id="938">4.32339e-12</wgt>
  <wgt id="939">4.12054e-12</wgt>
  <wgt id="940">4.2772e-12</wgt>
  <wgt id="941">4.0885e-12</wgt>
  <wgt id="942">4.54172e-12</wgt>
  <wgt id="943">4.91552e-12</wgt>
  <wgt id="944">4.06512e-12</wgt>
  <wgt id="945">4.24112e-12</wgt>
  <wgt id="946">4.00514e-12</wgt>
  <wgt id="947">4.22358e-12</wgt>
  <wgt id="948">4.59342e-12</wgt>
  <wgt id="949">4.70303e-12</wgt>
  <wgt id="950">3.73898e-12</wgt>
  <wgt id="951">4.21865e-12</wgt>
  <wgt id="952">4.49997e-12</wgt>
  <wgt id="953">4.54097e-12</wgt>
  <wgt id="954">4.38603e-12</wgt>
  <wgt id="955">3.9102e-12</wgt>
  <wgt id="956">3.98168e-12</wgt>
  <wgt id="957">4.50246e-12</wgt>
  <wgt id="958">4.27721e-12</wgt>
  <wgt id="959">4.26729e-12</wgt>
  <wgt id="960">3.86085e-12</wgt>
  <wgt id="961">4.27187e-12</wgt>
  <wgt id="962">4.60785e-12</wgt>
  <wgt id="963">4.26121e-12</wgt>
  <wgt id="964">4.62864e-12</wgt>
  <wgt id="965">4.65967e-12</wgt>
  <wgt id="966">4.31222e-12</wgt>
  <wgt id="967">4.53166e-12</wgt>
  <wgt id="968">4.35364e-12</wgt>
  <wgt id="969">4.32611e-12</wgt>
  <wgt id="970">4.40765e-12</wgt>
  <wgt id="971">3.99543e-12</wgt>
  <wgt id="972">4.57324e-12</wgt>
  <wgt id="973">4.15399e-12</wgt>
  <wgt id="974">5.19681e-12</wgt>
  <wgt id="975">4.12822e-12</wgt>
  <wgt id="976">4.2791e-12</wgt>
  <wgt id="977">3.60034e-12</wgt>
  <wgt id="978">4.5269e-12</wgt>
  <wgt id="979">4.78468e-12</wgt>
  <wgt id="980">4.29052e-12</wgt>
  <wgt id="981">4.36037e-12</wgt>
  <wgt id="982">4.17452e-12</wgt>
</rwgt>
</event>
<event>
 5   1  0.3028200E-11  0.2591530E+04  0.7818608E-02  0.7615604E-01
       21   -1    0    0  502  501  0.00000000000E+00  0.00000000000E+00  0.18247351881E+04  0.18247351881E+04  0.00000000000E+00 0.  1.
       21   -1    0    0  501  502 -0.00000000000E+00 -0.00000000000E+00 -0.92013715816E+03  0.92013715816E+03  0.00000000000E+00 0. -1.
       39    2    1    2    0    0  0.00000000000E+00  0.00000000000E+00  0.90459802990E+03  0.27448723462E+04  0.25915297801E+04 0.  0.
       25    1    3    3    0    0  0.40923330050E+03 -0.10243049188E+04  0.11602095758E+04  0.16057346358E+04  0.12500000000E+03 0.  0.
       25    1    3    3    0    0 -0.40923330050E+03  0.10243049188E+04 -0.25561154591E+03  0.11391377104E+04  0.12500000000E+03 0.  0.
<mgrwt>
<rscale>  0 0.25915298E+04</rscale>
<asrwt>0</asrwt>
<pdfrwt beam="1">  1       21 0.28072849E+00 0.25915298E+04</pdfrwt>
<pdfrwt beam="2">  1       21 0.14155956E+00 0.25915298E+04</pdfrwt>
<totfact> 0.48308043E+00</totfact>
</mgrwt>
<rwgt>
  <wgt id="1">3.0282e-12</wgt>
  <wgt id="2">2.61373e-12</wgt>
  <wgt id="3">3.54729e-12</wgt>
  <wgt id="4">3.0282e-12</wgt>
  <wgt id="5">2.61373e-12</wgt>
  <wgt id="6">3.54729e-12</wgt>
  <wgt id="7">3.0282e-12</wgt>
  <wgt id="8">2.61373e-12</wgt>
  <wgt id="9">3.54729e-12</wgt>
  <wgt id="10">3.18579e-12</wgt>
  <wgt id="11">3.18343e-12</wgt>
  <wgt id="12">3.179e-12</wgt>
  <wgt id="13">3.17654e-12</wgt>
  <wgt id="14">3.19732e-12</wgt>
  <wgt id="15">3.1911e-12</wgt>
  <wgt id="16">3.17969e-12</wgt>
  <wgt id="17">3.19679e-12</wgt>
  <wgt id="18">3.17969e-12</wgt>
  <wgt id="19">3.1961e-12</wgt>
  <wgt id="20">3.17998e-12</wgt>
  <wgt id="21">3.1621e-12</wgt>
  <wgt id="22">3.16724e-12</wgt>
  <wgt id="23">3.14515e-12</wgt>
  <wgt id="24">3.16616e-12</wgt>
  <wgt id="25">3.17515e-12</wgt>
  <wgt id="26">3.19748e-12</wgt>
  <wgt id="27">3.18259e-12</wgt>
  <wgt id="28">3.16811e-12</wgt>
  <wgt id="29">3.18784e-12</wgt>
  <wgt id="30">3.16877e-12</wgt>
  <wgt id="31">3.19855e-12</wgt>
  <wgt id="32">3.17309e-12</wgt>
  <wgt id="33">3.19289e-12</wgt>
  <wgt id="34">3.16926e-12</wgt>
  <wgt id="35">3.17604e-12</wgt>
  <wgt id="36">3.20077e-12</wgt>
  <wgt id="37">3.1762e-12</wgt>
  <wgt id="38">3.17342e-12</wgt>
  <wgt id="39">3.23155e-12</wgt>
  <wgt id="40">3.18971e-12</wgt>
  <wgt id="41">3.1838e-12</wgt>
  <wgt id="42">3.19142e-12</wgt>
  <wgt id="43">3.18575e-12</wgt>
  <wgt id="44">3.18845e-12</wgt>
  <wgt id="45">3.19305e-12</wgt>
  <wgt id="46">3.18242e-12</wgt>
  <wgt id="47">3.19404e-12</wgt>
  <wgt id="48">3.19389e-12</wgt>
  <wgt id="49">3.17667e-12</wgt>
  <wgt id="50">3.18021e-12</wgt>
  <wgt id="51">3.18255e-12</wgt>
  <wgt id="52">3.19232e-12</wgt>
  <wgt id="53">3.18483e-12</wgt>
  <wgt id="54">3.18945e-12</wgt>
  <wgt id="55">3.18604e-12</wgt>
  <wgt id="56">3.18765e-12</wgt>
  <wgt id="57">3.1825e-12</wgt>
  <wgt id="58">3.17425e-12</wgt>
  <wgt id="59">3.18166e-12</wgt>
  <wgt id="60">3.17557e-12</wgt>
  <wgt id="61">3.16637e-12</wgt>
  <wgt id="62">3.17726e-12</wgt>
  <wgt id="63">3.18339e-12</wgt>
  <wgt id="64">3.18532e-12</wgt>
  <wgt id="65">3.18332e-12</wgt>
  <wgt id="66">3.18352e-12</wgt>
  <wgt id="67">3.17395e-12</wgt>
  <wgt id="68">3.18439e-12</wgt>
  <wgt id="69">3.18332e-12</wgt>
  <wgt id="70">3.18257e-12</wgt>
  <wgt id="71">3.18189e-12</wgt>
  <wgt id="72">3.17107e-12</wgt>
  <wgt id="73">3.19637e-12</wgt>
  <wgt id="74">3.19157e-12</wgt>
  <wgt id="75">3.18632e-12</wgt>
  <wgt id="76">3.20155e-12</wgt>
  <wgt id="77">3.18205e-12</wgt>
  <wgt id="78">3.18294e-12</wgt>
  <wgt id="79">3.195e-12</wgt>
  <wgt id="80">3.16471e-12</wgt>
  <wgt id="81">3.18559e-12</wgt>
  <wgt id="82">3.18723e-12</wgt>
  <wgt id="83">3.1694e-12</wgt>
  <wgt id="84">3.17939e-12</wgt>
  <wgt id="85">3.17626e-12</wgt>
  <wgt id="86">3.19615e-12</wgt>
  <wgt id="87">3.16254e-12</wgt>
  <wgt id="88">3.19116e-12</wgt>
  <wgt id="89">3.18882e-12</wgt>
  <wgt id="90">3.19607e-12</wgt>
  <wgt id="91">3.18927e-12</wgt>
  <wgt id="92">3.19318e-12</wgt>
  <wgt id="93">3.19008e-12</wgt>
  <wgt id="94">3.18067e-12</wgt>
  <wgt id="95">3.1961e-12</wgt>
  <wgt id="96">3.19104e-12</wgt>
  <wgt id="97">3.17611e-12</wgt>
  <wgt id="98">3.18661e-12</wgt>
  <wgt id="99">3.17806e-12</wgt>
  <wgt id="100">3.19388e-12</wgt>
  <wgt id="101">3.18598e-12</wgt>
  <wgt id="102">3.18318e-12</wgt>
  <wgt id="103">3.19425e-12</wgt>
  <wgt id="104">3.18135e-12</wgt>
  <wgt id="105">3.19133e-12</wgt>
  <wgt id="106">3.1789e-12</wgt>
  <wgt id="107">3.20104e-12</wgt>
  <wgt id="108">3.18003e-12</wgt>
  <wgt id="109">3.18974e-12</wgt>
  <wgt id="110">3.18436e-12</wgt>
  <wgt id="111">3.20461e-12</wgt>
  <wgt id="112">3.20855e-12</wgt>
  <wgt id="113">4.53869e-12</wgt>
  <wgt id="114">4.4388e-12</wgt>
  <wgt id="115">4.36745e-12</wgt>
  <wgt id="116">6.31403e-12</wgt>
  <wgt id="117">3.59297e-12</wgt>
  <wgt id="118">3.6075e-12</wgt>
  <wgt id="119">3.58474e-12</wgt>
  <wgt id="120">3.5931e-12</wgt>
  <wgt id="121">3.59287e-12</wgt>
  <wgt id="122">3.58716e-12</wgt>
  <wgt id="123">3.60099e-12</wgt>
  <wgt id="124">3.5882e-12</wgt>
  <wgt id="125">3.59604e-12</wgt>
  <wgt id="126">3.59984e-12</wgt>
  <wgt id="127">3.58848e-12</wgt>
  <wgt id="128">3.60404e-12</wgt>
  <wgt id="129">3.58195e-12</wgt>
  <wgt id="130">3.61315e-12</wgt>
  <wgt id="131">3.57234e-12</wgt>
  <wgt id="132">3.49262e-12</wgt>
  <wgt id="133">3.71283e-12</wgt>
  <wgt id="134">3.55187e-12</wgt>
  <wgt id="135">3.62528e-12</wgt>
  <wgt id="136">3.64674e-12</wgt>
  <wgt id="137">3.52828e-12</wgt>
  <wgt id="138">3.75354e-12</wgt>
  <wgt id="139">3.44e-12</wgt>
  <wgt id="140">3.57299e-12</wgt>
  <wgt id="141">3.60844e-12</wgt>
  <wgt id="142">3.59277e-12</wgt>
  <wgt id="143">3.60186e-12</wgt>
  <wgt id="144">3.45367e-12</wgt>
  <wgt id="145">3.72686e-12</wgt>
  <wgt id="146">3.63789e-12</wgt>
  <wgt id="147">3.55676e-12</wgt>
  <wgt id="148">3.60607e-12</wgt>
  <wgt id="149">3.59207e-12</wgt>
  <wgt id="150">3.62501e-12</wgt>
  <wgt id="151">3.57803e-12</wgt>
  <wgt id="152">3.59468e-12</wgt>
  <wgt id="153">3.59236e-12</wgt>
  <wgt id="154">3.60952e-12</wgt>
  <wgt id="155">3.56946e-12</wgt>
  <wgt id="156">3.70215e-12</wgt>
  <wgt id="157">3.49054e-12</wgt>
  <wgt id="158">4.31234e-12</wgt>
  <wgt id="159">4.33054e-12</wgt>
  <wgt id="160">4.29759e-12</wgt>
  <wgt id="161">4.30019e-12</wgt>
  <wgt id="162">4.3258e-12</wgt>
  <wgt id="163">4.30699e-12</wgt>
  <wgt id="164">4.32028e-12</wgt>
  <wgt id="165">4.31391e-12</wgt>
  <wgt id="166">4.3111e-12</wgt>
  <wgt id="167">4.30932e-12</wgt>
  <wgt id="168">4.31654e-12</wgt>
  <wgt id="169">4.29463e-12</wgt>
  <wgt id="170">4.32334e-12</wgt>
  <wgt id="171">4.30765e-12</wgt>
  <wgt id="172">4.31893e-12</wgt>
  <wgt id="173">4.3075e-12</wgt>
  <wgt id="174">4.31391e-12</wgt>
  <wgt id="175">4.18174e-12</wgt>
  <wgt id="176">4.48375e-12</wgt>
  <wgt id="177">4.33633e-12</wgt>
  <wgt id="178">4.29041e-12</wgt>
  <wgt id="179">4.5259e-12</wgt>
  <wgt id="180">3.98097e-12</wgt>
  <wgt id="181">4.16885e-12</wgt>
  <wgt id="182">4.40776e-12</wgt>
  <wgt id="183">4.22515e-12</wgt>
  <wgt id="184">4.35568e-12</wgt>
  <wgt id="185">4.26903e-12</wgt>
  <wgt id="186">4.36594e-12</wgt>
  <wgt id="187">4.26735e-12</wgt>
  <wgt id="188">4.39273e-12</wgt>
  <wgt id="189">4.27929e-12</wgt>
  <wgt id="190">4.32573e-12</wgt>
  <wgt id="191">4.32668e-12</wgt>
  <wgt id="192">4.30387e-12</wgt>
  <wgt id="193">4.38457e-12</wgt>
  <wgt id="194">4.2764e-12</wgt>
  <wgt id="195">4.16058e-12</wgt>
  <wgt id="196">4.56232e-12</wgt>
  <wgt id="197">4.3363e-12</wgt>
  <wgt id="198">4.30652e-12</wgt>
  <wgt id="199">4.31234e-12</wgt>
  <wgt id="200">4.35368e-12</wgt>
  <wgt id="201">4.33919e-12</wgt>
  <wgt id="202">4.32521e-12</wgt>
  <wgt id="203">4.30449e-12</wgt>
  <wgt id="204">4.2944e-12</wgt>
  <wgt id="205">4.2861e-12</wgt>
  <wgt id="206">4.17643e-12</wgt>
  <wgt id="207">4.20156e-12</wgt>
  <wgt id="208">4.15161e-12</wgt>
  <wgt id="209">4.19143e-12</wgt>
  <wgt id="210">4.16558e-12</wgt>
  <wgt id="211">4.17461e-12</wgt>
  <wgt id="212">4.17794e-12</wgt>
  <wgt id="213">4.17613e-12</wgt>
  <wgt id="214">4.17706e-12</wgt>
  <wgt id="215">4.18015e-12</wgt>
  <wgt id="216">4.17385e-12</wgt>
  <wgt id="217">4.18827e-12</wgt>
  <wgt id="218">4.16736e-12</wgt>
  <wgt id="219">4.17336e-12</wgt>
  <wgt id="220">4.1784e-12</wgt>
  <wgt id="221">4.17626e-12</wgt>
  <wgt id="222">4.17641e-12</wgt>
  <wgt id="223">3.93531e-12</wgt>
  <wgt id="224">4.39752e-12</wgt>
  <wgt id="225">4.1216e-12</wgt>
  <wgt id="226">4.24599e-12</wgt>
  <wgt id="227">4.13437e-12</wgt>
  <wgt id="228">4.19497e-12</wgt>
  <wgt id="229">4.11452e-12</wgt>
  <wgt id="230">4.20731e-12</wgt>
  <wgt id="231">4.31342e-12</wgt>
  <wgt id="232">4.06455e-12</wgt>
  <wgt id="233">4.15128e-12</wgt>
  <wgt id="234">4.21842e-12</wgt>
  <wgt id="235">4.03358e-12</wgt>
  <wgt id="236">4.29606e-12</wgt>
  <wgt id="237">4.08985e-12</wgt>
  <wgt id="238">4.20541e-12</wgt>
  <wgt id="239">4.14087e-12</wgt>
  <wgt id="240">4.24035e-12</wgt>
  <wgt id="241">4.12682e-12</wgt>
  <wgt id="242">4.23622e-12</wgt>
  <wgt id="243">4.25111e-12</wgt>
  <wgt id="244">4.18325e-12</wgt>
  <wgt id="245">4.17464e-12</wgt>
  <wgt id="246">4.2027e-12</wgt>
  <wgt id="247">4.17643e-12</wgt>
  <wgt id="248">4.21858e-12</wgt>
  <wgt id="249">4.20342e-12</wgt>
  <wgt id="250">4.18845e-12</wgt>
  <wgt id="251">4.16708e-12</wgt>
  <wgt id="252">4.15667e-12</wgt>
  <wgt id="253">4.14942e-12</wgt>
  <wgt id="254">4.06323e-12</wgt>
  <wgt id="255">4.06715e-12</wgt>
  <wgt id="256">4.05905e-12</wgt>
  <wgt id="257">4.06625e-12</wgt>
  <wgt id="258">4.06113e-12</wgt>
  <wgt id="259">4.09071e-12</wgt>
  <wgt id="260">4.03677e-12</wgt>
  <wgt id="261">4.07131e-12</wgt>
  <wgt id="262">4.05366e-12</wgt>
  <wgt id="263">4.06046e-12</wgt>
  <wgt id="264">4.06654e-12</wgt>
  <wgt id="265">4.05773e-12</wgt>
  <wgt id="266">4.07437e-12</wgt>
  <wgt id="267">4.06478e-12</wgt>
  <wgt id="268">4.06116e-12</wgt>
  <wgt id="269">4.07774e-12</wgt>
  <wgt id="270">4.05341e-12</wgt>
  <wgt id="271">4.05434e-12</wgt>
  <wgt id="272">4.07312e-12</wgt>
  <wgt id="273">4.05067e-12</wgt>
  <wgt id="274">4.07288e-12</wgt>
  <wgt id="275">4.04112e-12</wgt>
  <wgt id="276">4.08613e-12</wgt>
  <wgt id="277">4.0386e-12</wgt>
  <wgt id="278">4.08575e-12</wgt>
  <wgt id="279">3.98055e-12</wgt>
  <wgt id="280">4.16736e-12</wgt>
  <wgt id="281">4.0431e-12</wgt>
  <wgt id="282">4.06676e-12</wgt>
  <wgt id="283">3.93125e-12</wgt>
  <wgt id="284">4.22738e-12</wgt>
  <wgt id="285">3.84644e-12</wgt>
  <wgt id="286">4.24545e-12</wgt>
  <wgt id="287">4.07749e-12</wgt>
  <wgt id="288">4.04512e-12</wgt>
  <wgt id="289">4.09572e-12</wgt>
  <wgt id="290">3.99024e-12</wgt>
  <wgt id="291">4.04846e-12</wgt>
  <wgt id="292">4.06518e-12</wgt>
  <wgt id="293">4.02789e-12</wgt>
  <wgt id="294">4.09848e-12</wgt>
  <wgt id="295">3.97778e-12</wgt>
  <wgt id="296">4.168e-12</wgt>
  <wgt id="297">4.05624e-12</wgt>
  <wgt id="298">4.08392e-12</wgt>
  <wgt id="299">4.04884e-12</wgt>
  <wgt id="300">4.10175e-12</wgt>
  <wgt id="301">3.98201e-12</wgt>
  <wgt id="302">4.25147e-12</wgt>
  <wgt id="303">4.02046e-12</wgt>
  <wgt id="304">4.08743e-12</wgt>
  <wgt id="305">4.04691e-12</wgt>
  <wgt id="306">4.05095e-12</wgt>
  <wgt id="307">4.04261e-12</wgt>
  <wgt id="308">4.05015e-12</wgt>
  <wgt id="309">4.04473e-12</wgt>
  <wgt id="310">4.07511e-12</wgt>
  <wgt id="311">4.02077e-12</wgt>
  <wgt id="312">4.05405e-12</wgt>
  <wgt id="313">4.03925e-12</wgt>
  <wgt id="314">4.04409e-12</wgt>
  <wgt id="315">4.04961e-12</wgt>
  <wgt id="316">4.04148e-12</wgt>
  <wgt id="317">4.05871e-12</wgt>
  <wgt id="318">4.05025e-12</wgt>
  <wgt id="319">4.04103e-12</wgt>
  <wgt id="320">4.06234e-12</wgt>
  <wgt id="321">4.03832e-12</wgt>
  <wgt id="322">4.03653e-12</wgt>
  <wgt id="323">4.05899e-12</wgt>
  <wgt id="324">4.03671e-12</wgt>
  <wgt id="325">4.05578e-12</wgt>
  <wgt id="326">4.02901e-12</wgt>
  <wgt id="327">4.06981e-12</wgt>
  <wgt id="328">4.02537e-12</wgt>
  <wgt id="329">4.05879e-12</wgt>
  <wgt id="330">4.17178e-12</wgt>
  <wgt id="331">3.92821e-12</wgt>
  <wgt id="332">4.03004e-12</wgt>
  <wgt id="333">4.04887e-12</wgt>
  <wgt id="334">3.94496e-12</wgt>
  <wgt id="335">4.17437e-12</wgt>
  <wgt id="336">3.89144e-12</wgt>
  <wgt id="337">4.23865e-12</wgt>
  <wgt id="338">4.09677e-12</wgt>
  <wgt id="339">4.00088e-12</wgt>
  <wgt id="340">4.07678e-12</wgt>
  <wgt id="341">3.97216e-12</wgt>
  <wgt id="342">4.03603e-12</wgt>
  <wgt id="343">4.04098e-12</wgt>
  <wgt id="344">4.01539e-12</wgt>
  <wgt id="345">4.08349e-12</wgt>
  <wgt id="346">3.95875e-12</wgt>
  <wgt id="347">4.14835e-12</wgt>
  <wgt id="348">4.04071e-12</wgt>
  <wgt id="349">4.06529e-12</wgt>
  <wgt id="350">4.02898e-12</wgt>
  <wgt id="351">4.09246e-12</wgt>
  <wgt id="352">3.96069e-12</wgt>
  <wgt id="353">4.23643e-12</wgt>
  <wgt id="354">3.98363e-12</wgt>
  <wgt id="355">4.08455e-12</wgt>
  <wgt id="356">4.06323e-12</wgt>
  <wgt id="357">4.05559e-12</wgt>
  <wgt id="358">4.04691e-12</wgt>
  <wgt id="359">4.06897e-12</wgt>
  <wgt id="360">4.11772e-12</wgt>
  <wgt id="361">4.08183e-12</wgt>
  <wgt id="362">4.16312e-12</wgt>
  <wgt id="363">4.15198e-12</wgt>
  <wgt id="364">4.13332e-12</wgt>
  <wgt id="365">4.11746e-12</wgt>
  <wgt id="366">4.10072e-12</wgt>
  <wgt id="367">4.06786e-12</wgt>
  <wgt id="368">4.04837e-12</wgt>
  <wgt id="369">4.02743e-12</wgt>
  <wgt id="370">4.08183e-12</wgt>
  <wgt id="371">4.09982e-12</wgt>
  <wgt id="372">4.0899e-12</wgt>
  <wgt id="373">4.07525e-12</wgt>
  <wgt id="374">4.0777e-12</wgt>
  <wgt id="375">4.53265e-12</wgt>
  <wgt id="376">4.53324e-12</wgt>
  <wgt id="377">4.53187e-12</wgt>
  <wgt id="378">4.54964e-12</wgt>
  <wgt id="379">4.51565e-12</wgt>
  <wgt id="380">4.54487e-12</wgt>
  <wgt id="381">4.52766e-12</wgt>
  <wgt id="382">4.55731e-12</wgt>
  <wgt id="383">4.50813e-12</wgt>
  <wgt id="384">4.53571e-12</wgt>
  <wgt id="385">4.52966e-12</wgt>
  <wgt id="386">4.55129e-12</wgt>
  <wgt id="387">4.52454e-12</wgt>
  <wgt id="388">4.52813e-12</wgt>
  <wgt id="389">4.53812e-12</wgt>
  <wgt id="390">4.54494e-12</wgt>
  <wgt id="391">4.51951e-12</wgt>
  <wgt id="392">4.49054e-12</wgt>
  <wgt id="393">4.55652e-12</wgt>
  <wgt id="394">4.53765e-12</wgt>
  <wgt id="395">4.52554e-12</wgt>
  <wgt id="396">4.53962e-12</wgt>
  <wgt id="397">4.52757e-12</wgt>
  <wgt id="398">4.5153e-12</wgt>
  <wgt id="399">4.5492e-12</wgt>
  <wgt id="400">4.52415e-12</wgt>
  <wgt id="401">4.55159e-12</wgt>
  <wgt id="402">4.49e-12</wgt>
  <wgt id="403">4.55586e-12</wgt>
  <wgt id="404">4.65841e-12</wgt>
  <wgt id="405">4.23259e-12</wgt>
  <wgt id="406">4.44278e-12</wgt>
  <wgt id="407">4.73068e-12</wgt>
  <wgt id="408">4.57943e-12</wgt>
  <wgt id="409">4.44532e-12</wgt>
  <wgt id="410">4.38663e-12</wgt>
  <wgt id="411">4.60213e-12</wgt>
  <wgt id="412">4.52265e-12</wgt>
  <wgt id="413">4.54805e-12</wgt>
  <wgt id="414">4.47428e-12</wgt>
  <wgt id="415">4.57799e-12</wgt>
  <wgt id="416">4.68168e-12</wgt>
  <wgt id="417">4.32783e-12</wgt>
  <wgt id="418">4.54062e-12</wgt>
  <wgt id="419">4.48997e-12</wgt>
  <wgt id="420">4.63646e-12</wgt>
  <wgt id="421">4.46611e-12</wgt>
  <wgt id="422">4.51071e-12</wgt>
  <wgt id="423">4.54337e-12</wgt>
  <wgt id="424">4.66007e-12</wgt>
  <wgt id="425">4.44825e-12</wgt>
  <wgt id="426">4.53265e-12</wgt>
  <wgt id="427">4.46149e-12</wgt>
  <wgt id="428">4.71126e-12</wgt>
  <wgt id="429">4.58947e-12</wgt>
  <wgt id="430">4.73737e-12</wgt>
  <wgt id="431">4.70738e-12</wgt>
  <wgt id="432">4.67989e-12</wgt>
  <wgt id="433">4.65293e-12</wgt>
  <wgt id="434">4.61923e-12</wgt>
  <wgt id="435">4.5521e-12</wgt>
  <wgt id="436">4.51807e-12</wgt>
  <wgt id="437">4.48509e-12</wgt>
  <wgt id="438">4.58947e-12</wgt>
  <wgt id="439">4.60417e-12</wgt>
  <wgt id="440">4.59516e-12</wgt>
  <wgt id="441">4.58519e-12</wgt>
  <wgt id="442">4.58202e-12</wgt>
  <wgt id="443">4.27031e-12</wgt>
  <wgt id="444">4.30751e-12</wgt>
  <wgt id="445">4.27801e-12</wgt>
  <wgt id="446">4.23956e-12</wgt>
  <wgt id="447">4.2618e-12</wgt>
  <wgt id="448">4.15226e-12</wgt>
  <wgt id="449">4.35192e-12</wgt>
  <wgt id="450">4.28839e-12</wgt>
  <wgt id="451">4.25961e-12</wgt>
  <wgt id="452">4.37599e-12</wgt>
  <wgt id="453">4.32214e-12</wgt>
  <wgt id="454">4.06524e-12</wgt>
  <wgt id="455">4.28975e-12</wgt>
  <wgt id="456">4.29993e-12</wgt>
  <wgt id="457">4.28937e-12</wgt>
  <wgt id="458">4.33512e-12</wgt>
  <wgt id="459">4.30649e-12</wgt>
  <wgt id="460">4.32349e-12</wgt>
  <wgt id="461">4.16935e-12</wgt>
  <wgt id="462">4.23119e-12</wgt>
  <wgt id="463">4.208e-12</wgt>
  <wgt id="464">4.24395e-12</wgt>
  <wgt id="465">4.32282e-12</wgt>
  <wgt id="466">4.19041e-12</wgt>
  <wgt id="467">4.22654e-12</wgt>
  <wgt id="468">4.26042e-12</wgt>
  <wgt id="469">4.25615e-12</wgt>
  <wgt id="470">4.21497e-12</wgt>
  <wgt id="471">4.21983e-12</wgt>
  <wgt id="472">4.29751e-12</wgt>
  <wgt id="473">4.10952e-12</wgt>
  <wgt id="474">3.0282e-12</wgt>
  <wgt id="475">3.10539e-12</wgt>
  <wgt id="476">2.98471e-12</wgt>
  <wgt id="477">3.00754e-12</wgt>
  <wgt id="478">3.05e-12</wgt>
  <wgt id="479">2.91582e-12</wgt>
  <wgt id="480">3.17028e-12</wgt>
  <wgt id="481">3.02121e-12</wgt>
  <wgt id="482">2.9785e-12</wgt>
  <wgt id="483">2.97596e-12</wgt>
  <wgt id="484">3.17619e-12</wgt>
  <wgt id="485">2.89442e-12</wgt>
  <wgt id="486">3.16554e-12</wgt>
  <wgt id="487">3.02996e-12</wgt>
  <wgt id="488">3.07425e-12</wgt>
  <wgt id="489">2.82606e-12</wgt>
  <wgt id="490">2.91528e-12</wgt>
  <wgt id="491">2.9909e-12</wgt>
  <wgt id="492">2.95777e-12</wgt>
  <wgt id="493">2.85582e-12</wgt>
  <wgt id="494">2.88128e-12</wgt>
  <wgt id="495">3.06973e-12</wgt>
  <wgt id="496">2.90891e-12</wgt>
  <wgt id="497">2.8612e-12</wgt>
  <wgt id="498">3.10676e-12</wgt>
  <wgt id="499">3.0025e-12</wgt>
  <wgt id="500">2.96896e-12</wgt>
  <wgt id="501">3.17189e-12</wgt>
  <wgt id="502">3.04564e-12</wgt>
  <wgt id="503">3.0038e-12</wgt>
  <wgt id="504">3.10914e-12</wgt>
  <wgt id="505">3.10207e-12</wgt>
  <wgt id="506">2.95115e-12</wgt>
  <wgt id="507">3.01287e-12</wgt>
  <wgt id="508">3.13466e-12</wgt>
  <wgt id="509">2.89833e-12</wgt>
  <wgt id="510">3.10692e-12</wgt>
  <wgt id="511">2.92281e-12</wgt>
  <wgt id="512">3.16294e-12</wgt>
  <wgt id="513">3.1835e-12</wgt>
  <wgt id="514">3.09873e-12</wgt>
  <wgt id="515">3.03788e-12</wgt>
  <wgt id="516">3.23734e-12</wgt>
  <wgt id="517">3.09577e-12</wgt>
  <wgt id="518">3.11099e-12</wgt>
  <wgt id="519">2.90819e-12</wgt>
  <wgt id="520">3.08691e-12</wgt>
  <wgt id="521">3.05027e-12</wgt>
  <wgt id="522">3.15876e-12</wgt>
  <wgt id="523">2.98418e-12</wgt>
  <wgt id="524">3.05597e-12</wgt>
  <wgt id="525">3.07499e-12</wgt>
  <wgt id="526">3.11964e-12</wgt>
  <wgt id="527">3.02688e-12</wgt>
  <wgt id="528">3.04969e-12</wgt>
  <wgt id="529">2.93532e-12</wgt>
  <wgt id="530">3.1316e-12</wgt>
  <wgt id="531">2.95116e-12</wgt>
  <wgt id="532">3.25824e-12</wgt>
  <wgt id="533">2.92285e-12</wgt>
  <wgt id="534">2.986e-12</wgt>
  <wgt id="535">3.04705e-12</wgt>
  <wgt id="536">3.06816e-12</wgt>
  <wgt id="537">2.96064e-12</wgt>
  <wgt id="538">3.02562e-12</wgt>
  <wgt id="539">2.96486e-12</wgt>
  <wgt id="540">3.08884e-12</wgt>
  <wgt id="541">2.97731e-12</wgt>
  <wgt id="542">2.98687e-12</wgt>
  <wgt id="543">2.97266e-12</wgt>
  <wgt id="544">3.11952e-12</wgt>
  <wgt id="545">2.93022e-12</wgt>
  <wgt id="546">2.88956e-12</wgt>
  <wgt id="547">2.9313e-12</wgt>
  <wgt id="548">2.90674e-12</wgt>
  <wgt id="549">2.96489e-12</wgt>
  <wgt id="550">2.97222e-12</wgt>
  <wgt id="551">3.05341e-12</wgt>
  <wgt id="552">2.87885e-12</wgt>
  <wgt id="553">2.93674e-12</wgt>
  <wgt id="554">3.22451e-12</wgt>
  <wgt id="555">3.10234e-12</wgt>
  <wgt id="556">2.91528e-12</wgt>
  <wgt id="557">3.10133e-12</wgt>
  <wgt id="558">2.96184e-12</wgt>
  <wgt id="559">3.00918e-12</wgt>
  <wgt id="560">3.34356e-12</wgt>
  <wgt id="561">3.03404e-12</wgt>
  <wgt id="562">3.11741e-12</wgt>
  <wgt id="563">3.15686e-12</wgt>
  <wgt id="564">3.12227e-12</wgt>
  <wgt id="565">2.99615e-12</wgt>
  <wgt id="566">3.02479e-12</wgt>
  <wgt id="567">3.00555e-12</wgt>
  <wgt id="568">2.96554e-12</wgt>
  <wgt id="569">3.06424e-12</wgt>
  <wgt id="570">2.91058e-12</wgt>
  <wgt id="571">3.36764e-12</wgt>
  <wgt id="572">2.94149e-12</wgt>
  <wgt id="573">2.9183e-12</wgt>
  <wgt id="574">2.93237e-12</wgt>
  <wgt id="575">3.36542e-12</wgt>
  <wgt id="576">3.51234e-12</wgt>
  <wgt id="577">3.4737e-12</wgt>
  <wgt id="578">3.45544e-12</wgt>
  <wgt id="579">3.47855e-12</wgt>
  <wgt id="580">3.5247e-12</wgt>
  <wgt id="581">3.66652e-12</wgt>
  <wgt id="582">3.47615e-12</wgt>
  <wgt id="583">3.41421e-12</wgt>
  <wgt id="584">3.34869e-12</wgt>
  <wgt id="585">3.24166e-12</wgt>
  <wgt id="586">3.22205e-12</wgt>
  <wgt id="587">3.42448e-12</wgt>
  <wgt id="588">3.4969e-12</wgt>
  <wgt id="589">3.56685e-12</wgt>
  <wgt id="590">3.37604e-12</wgt>
  <wgt id="591">3.47017e-12</wgt>
  <wgt id="592">3.15846e-12</wgt>
  <wgt id="593">3.30812e-12</wgt>
  <wgt id="594">3.35872e-12</wgt>
  <wgt id="595">3.43944e-12</wgt>
  <wgt id="596">3.69025e-12</wgt>
  <wgt id="597">3.35058e-12</wgt>
  <wgt id="598">3.28835e-12</wgt>
  <wgt id="599">3.55652e-12</wgt>
  <wgt id="600">3.43965e-12</wgt>
  <wgt id="601">3.24491e-12</wgt>
  <wgt id="602">3.27221e-12</wgt>
  <wgt id="603">3.21642e-12</wgt>
  <wgt id="604">3.43208e-12</wgt>
  <wgt id="605">3.45289e-12</wgt>
  <wgt id="606">3.37115e-12</wgt>
  <wgt id="607">3.41805e-12</wgt>
  <wgt id="608">3.46624e-12</wgt>
  <wgt id="609">3.25845e-12</wgt>
  <wgt id="610">3.23547e-12</wgt>
  <wgt id="611">3.29635e-12</wgt>
  <wgt id="612">3.5475e-12</wgt>
  <wgt id="613">3.26351e-12</wgt>
  <wgt id="614">3.37279e-12</wgt>
  <wgt id="615">3.35005e-12</wgt>
  <wgt id="616">3.37833e-12</wgt>
  <wgt id="617">3.51694e-12</wgt>
  <wgt id="618">3.60864e-12</wgt>
  <wgt id="619">3.29369e-12</wgt>
  <wgt id="620">3.51504e-12</wgt>
  <wgt id="621">3.36292e-12</wgt>
  <wgt id="622">3.42448e-12</wgt>
  <wgt id="623">3.42496e-12</wgt>
  <wgt id="624">3.38558e-12</wgt>
  <wgt id="625">3.25829e-12</wgt>
  <wgt id="626">3.14304e-12</wgt>
  <wgt id="627">3.12623e-12</wgt>
  <wgt id="628">3.4831e-12</wgt>
  <wgt id="629">3.33138e-12</wgt>
  <wgt id="630">3.26718e-12</wgt>
  <wgt id="631">3.42136e-12</wgt>
  <wgt id="632">3.13195e-12</wgt>
  <wgt id="633">3.33958e-12</wgt>
  <wgt id="634">3.27333e-12</wgt>
  <wgt id="635">3.15186e-12</wgt>
  <wgt id="636">3.39914e-12</wgt>
  <wgt id="637">3.35651e-12</wgt>
  <wgt id="638">3.21413e-12</wgt>
  <wgt id="639">3.26271e-12</wgt>
  <wgt id="640">3.32198e-12</wgt>
  <wgt id="641">3.46823e-12</wgt>
  <wgt id="642">3.25476e-12</wgt>
  <wgt id="643">3.30582e-12</wgt>
  <wgt id="644">3.0748e-12</wgt>
  <wgt id="645">3.38156e-12</wgt>
  <wgt id="646">3.24614e-12</wgt>
  <wgt id="647">3.36008e-12</wgt>
  <wgt id="648">3.45445e-12</wgt>
  <wgt id="649">3.39784e-12</wgt>
  <wgt id="650">3.2384e-12</wgt>
  <wgt id="651">3.50282e-12</wgt>
  <wgt id="652">3.26908e-12</wgt>
  <wgt id="653">3.2488e-12</wgt>
  <wgt id="654">3.35794e-12</wgt>
  <wgt id="655">3.27573e-12</wgt>
  <wgt id="656">3.38773e-12</wgt>
  <wgt id="657">3.6113e-12</wgt>
  <wgt id="658">3.39309e-12</wgt>
  <wgt id="659">3.22619e-12</wgt>
  <wgt id="660">3.3445e-12</wgt>
  <wgt id="661">3.28809e-12</wgt>
  <wgt id="662">3.32705e-12</wgt>
  <wgt id="663">3.39861e-12</wgt>
  <wgt id="664">3.35565e-12</wgt>
  <wgt id="665">3.34327e-12</wgt>
  <wgt id="666">3.30044e-12</wgt>
  <wgt id="667">3.51194e-12</wgt>
  <wgt id="668">3.34866e-12</wgt>
  <wgt id="669">3.40271e-12</wgt>
  <wgt id="670">3.49889e-12</wgt>
  <wgt id="671">3.37413e-12</wgt>
  <wgt id="672">3.23217e-12</wgt>
  <wgt id="673">3.48465e-12</wgt>
  <wgt id="674">3.28124e-12</wgt>
  <wgt id="675">3.28615e-12</wgt>
  <wgt id="676">4.36225e-12</wgt>
  <wgt id="677">4.40441e-12</wgt>
  <wgt id="678">4.6918e-12</wgt>
  <wgt id="679">4.21117e-12</wgt>
  <wgt id="680">4.35618e-12</wgt>
  <wgt id="681">4.33926e-12</wgt>
  <wgt id="682">4.5617e-12</wgt>
  <wgt id="683">4.16114e-12</wgt>
  <wgt id="684">4.58765e-12</wgt>
  <wgt id="685">4.23341e-12</wgt>
  <wgt id="686">4.27766e-12</wgt>
  <wgt id="687">4.58227e-12</wgt>
  <wgt id="688">4.26117e-12</wgt>
  <wgt id="689">4.68436e-12</wgt>
  <wgt id="690">4.52393e-12</wgt>
  <wgt id="691">4.54347e-12</wgt>
  <wgt id="692">4.26848e-12</wgt>
  <wgt id="693">5.53271e-12</wgt>
  <wgt id="694">4.73171e-12</wgt>
  <wgt id="695">4.15564e-12</wgt>
  <wgt id="696">4.13038e-12</wgt>
  <wgt id="697">4.07018e-12</wgt>
  <wgt id="698">3.74331e-12</wgt>
  <wgt id="699">3.774e-12</wgt>
  <wgt id="700">3.77283e-12</wgt>
  <wgt id="701">4.37529e-12</wgt>
  <wgt id="702">4.23162e-12</wgt>
  <wgt id="703">5.27176e-12</wgt>
  <wgt id="704">4.90084e-12</wgt>
  <wgt id="705">4.76905e-12</wgt>
  <wgt id="706">4.05323e-12</wgt>
  <wgt id="707">4.12461e-12</wgt>
  <wgt id="708">4.25101e-12</wgt>
  <wgt id="709">4.25745e-12</wgt>
  <wgt id="710">3.80968e-12</wgt>
  <wgt id="711">4.45094e-12</wgt>
  <wgt id="712">4.17197e-12</wgt>
  <wgt id="713">4.73727e-12</wgt>
  <wgt id="714">4.08129e-12</wgt>
  <wgt id="715">4.23241e-12</wgt>
  <wgt id="716">4.20177e-12</wgt>
  <wgt id="717">3.94281e-12</wgt>
  <wgt id="718">4.42749e-12</wgt>
  <wgt id="719">3.93017e-12</wgt>
  <wgt id="720">4.25747e-12</wgt>
  <wgt id="721">3.78276e-12</wgt>
  <wgt id="722">3.59572e-12</wgt>
  <wgt id="723">4.8152e-12</wgt>
  <wgt id="724">4.67849e-12</wgt>
  <wgt id="725">4.58999e-12</wgt>
  <wgt id="726">4.37345e-12</wgt>
  <wgt id="727">4.31808e-12</wgt>
  <wgt id="728">4.22487e-12</wgt>
  <wgt id="729">4.06214e-12</wgt>
  <wgt id="730">4.84524e-12</wgt>
  <wgt id="731">4.2929e-12</wgt>
  <wgt id="732">4.98448e-12</wgt>
  <wgt id="733">4.19507e-12</wgt>
  <wgt id="734">4.50305e-12</wgt>
  <wgt id="735">4.35951e-12</wgt>
  <wgt id="736">4.14072e-12</wgt>
  <wgt id="737">4.29172e-12</wgt>
  <wgt id="738">4.11286e-12</wgt>
  <wgt id="739">4.64262e-12</wgt>
  <wgt id="740">5.03974e-12</wgt>
  <wgt id="741">4.18546e-12</wgt>
  <wgt id="742">4.27493e-12</wgt>
  <wgt id="743">4.01342e-12</wgt>
  <wgt id="744">4.2792e-12</wgt>
  <wgt id="745">4.70252e-12</wgt>
  <wgt id="746">4.82588e-12</wgt>
  <wgt id="747">3.72913e-12</wgt>
  <wgt id="748">4.25592e-12</wgt>
  <wgt id="749">4.56356e-12</wgt>
  <wgt id="750">4.61094e-12</wgt>
  <wgt id="751">4.44044e-12</wgt>
  <wgt id="752">3.9322e-12</wgt>
  <wgt id="753">4.00145e-12</wgt>
  <wgt id="754">4.58829e-12</wgt>
  <wgt id="755">4.31929e-12</wgt>
  <wgt id="756">4.31349e-12</wgt>
  <wgt id="757">3.86333e-12</wgt>
  <wgt id="758">4.31623e-12</wgt>
  <wgt id="759">4.68455e-12</wgt>
  <wgt id="760">4.28972e-12</wgt>
  <wgt id="761">4.72472e-12</wgt>
  <wgt id="762">4.76624e-12</wgt>
  <wgt id="763">4.37655e-12</wgt>
  <wgt id="764">4.61833e-12</wgt>
  <wgt id="765">4.41718e-12</wgt>
  <wgt id="766">4.39218e-12</wgt>
  <wgt id="767">4.47443e-12</wgt>
  <wgt id="768">4.01825e-12</wgt>
  <wgt id="769">4.63936e-12</wgt>
  <wgt id="770">4.15812e-12</wgt>
  <wgt id="771">5.33632e-12</wgt>
  <wgt id="772">4.1881e-12</wgt>
  <wgt id="773">4.33691e-12</wgt>
  <wgt id="774">3.58e-12</wgt>
  <wgt id="775">4.60389e-12</wgt>
  <wgt id="776">4.91745e-12</wgt>
  <wgt id="777">3.96637e-12</wgt>
  <wgt id="778">2.99144e-12</wgt>
  <wgt id="779">2.10427e-12</wgt>
  <wgt id="780">1.4392e-12</wgt>
  <wgt id="781">3.37164e-12</wgt>
  <wgt id="782">3.46875e-12</wgt>
  <wgt id="783">2.03004e-12</wgt>
  <wgt id="784">2.32218e-12</wgt>
  <wgt id="785">4.19647e-12</wgt>
  <wgt id="786">1.96227e-12</wgt>
  <wgt id="787">3.70585e-12</wgt>
  <wgt id="788">1.16343e-12</wgt>
  <wgt id="789">2.20433e-12</wgt>
  <wgt id="790">1.93199e-12</wgt>
  <wgt id="791">3.1503e-12</wgt>
  <wgt id="792">3.99147e-12</wgt>
  <wgt id="793">2.89652e-12</wgt>
  <wgt id="794">1.83896e-12</wgt>
  <wgt id="795">3.93241e-12</wgt>
  <wgt id="796">4.1489e-12</wgt>
  <wgt id="797">3.80458e-12</wgt>
  <wgt id="798">2.48282e-12</wgt>
  <wgt id="799">3.64609e-12</wgt>
  <wgt id="800">2.3317e-12</wgt>
  <wgt id="801">2.76995e-12</wgt>
  <wgt id="802">1.79621e-12</wgt>
  <wgt id="803">4.57539e-12</wgt>
  <wgt id="804">3.90082e-12</wgt>
  <wgt id="805">3.89563e-12</wgt>
  <wgt id="806">3.26989e-12</wgt>
  <wgt id="807">2.85602e-12</wgt>
  <wgt id="808">2.86536e-12</wgt>
  <wgt id="809">2.70054e-12</wgt>
  <wgt id="810">3.3926e-12</wgt>
  <wgt id="811">3.22916e-12</wgt>
  <wgt id="812">1.92815e-12</wgt>
  <wgt id="813">2.07332e-12</wgt>
  <wgt id="814">2.29215e-12</wgt>
  <wgt id="815">2.04693e-12</wgt>
  <wgt id="816">1.97698e-12</wgt>
  <wgt id="817">3.06719e-12</wgt>
  <wgt id="818">3.52356e-12</wgt>
  <wgt id="819">2.08373e-12</wgt>
  <wgt id="820">2.90051e-12</wgt>
  <wgt id="821">3.6262e-12</wgt>
  <wgt id="822">2.34584e-12</wgt>
  <wgt id="823">3.73649e-12</wgt>
  <wgt id="824">4.51954e-12</wgt>
  <wgt id="825">1.74411e-12</wgt>
  <wgt id="826">3.5249e-12</wgt>
  <wgt id="827">1.45075e-12</wgt>
  <wgt id="828">3.86397e-12</wgt>
  <wgt id="829">3.12889e-12</wgt>
  <wgt id="830">1.63809e-12</wgt>
  <wgt id="831">3.42675e-12</wgt>
  <wgt id="832">5.32087e-12</wgt>
  <wgt id="833">2.52274e-12</wgt>
  <wgt id="834">5.08551e-12</wgt>
  <wgt id="835">2.21128e-12</wgt>
  <wgt id="836">2.67797e-12</wgt>
  <wgt id="837">3.54498e-12</wgt>
  <wgt id="838">2.60464e-12</wgt>
  <wgt id="839">3.39599e-12</wgt>
  <wgt id="840">2.61074e-12</wgt>
  <wgt id="841">4.1171e-12</wgt>
  <wgt id="842">2.79249e-12</wgt>
  <wgt id="843">3.14023e-12</wgt>
  <wgt id="844">3.26881e-12</wgt>
  <wgt id="845">4.92682e-12</wgt>
  <wgt id="846">3.01619e-12</wgt>
  <wgt id="847">3.13776e-12</wgt>
  <wgt id="848">2.12093e-12</wgt>
  <wgt id="849">3.1835e-12</wgt>
  <wgt id="850">4.43208e-12</wgt>
  <wgt id="851">3.46067e-12</wgt>
  <wgt id="852">1.97329e-12</wgt>
  <wgt id="853">3.56871e-12</wgt>
  <wgt id="854">4.01898e-12</wgt>
  <wgt id="855">3.71568e-12</wgt>
  <wgt id="856">1.65263e-12</wgt>
  <wgt id="857">2.7761e-12</wgt>
  <wgt id="858">2.83327e-12</wgt>
  <wgt id="859">2.81661e-12</wgt>
  <wgt id="860">3.65722e-12</wgt>
  <wgt id="861">2.50273e-12</wgt>
  <wgt id="862">3.07099e-12</wgt>
  <wgt id="863">3.38293e-12</wgt>
  <wgt id="864">3.1633e-12</wgt>
  <wgt id="865">4.8068e-12</wgt>
  <wgt id="866">5.28448e-12</wgt>
  <wgt id="867">3.0964e-12</wgt>
  <wgt id="868">3.0773e-12</wgt>
  <wgt id="869">1.92978e-12</wgt>
  <wgt id="870">2.15343e-12</wgt>
  <wgt id="871">2.10104e-12</wgt>
  <wgt id="872">4.08595e-12</wgt>
  <wgt id="873">2.37653e-12</wgt>
  <wgt id="874">3.28725e-12</wgt>
  <wgt id="875">2.42217e-12</wgt>
  <wgt id="876">3.99784e-12</wgt>
  <wgt id="877">3.51133e-12</wgt>
  <wgt id="878">2.37376e-12</wgt>
  <wgt id="879">4.36225e-12</wgt>
  <wgt id="880">4.40441e-12</wgt>
  <wgt id="881">4.6918e-12</wgt>
  <wgt id="882">4.21117e-12</wgt>
  <wgt id="883">4.35618e-12</wgt>
  <wgt id="884">4.33926e-12</wgt>
  <wgt id="885">4.5617e-12</wgt>
  <wgt id="886">4.16114e-12</wgt>
  <wgt id="887">4.58765e-12</wgt>
  <wgt id="888">4.23341e-12</wgt>
  <wgt id="889">4.27766e-12</wgt>
  <wgt id="890">4.58227e-12</wgt>
  <wgt id="891">4.26117e-12</wgt>
  <wgt id="892">4.68436e-12</wgt>
  <wgt id="893">4.52393e-12</wgt>
  <wgt id="894">4.54347e-12</wgt>
  <wgt id="895">4.26848e-12</wgt>
  <wgt id="896">5.53271e-12</wgt>
  <wgt id="897">4.73171e-12</wgt>
  <wgt id="898">4.15564e-12</wgt>
  <wgt id="899">4.13038e-12</wgt>
  <wgt id="900">4.07018e-12</wgt>
  <wgt id="901">3.74331e-12</wgt>
  <wgt id="902">3.774e-12</wgt>
  <wgt id="903">3.77283e-12</wgt>
  <wgt id="904">4.37529e-12</wgt>
  <wgt id="905">4.23162e-12</wgt>
  <wgt id="906">5.27176e-12</wgt>
  <wgt id="907">4.90084e-12</wgt>
  <wgt id="908">4.76905e-12</wgt>
  <wgt id="909">4.05323e-12</wgt>
  <wgt id="910">4.12461e-12</wgt>
  <wgt id="911">4.25101e-12</wgt>
  <wgt id="912">4.25745e-12</wgt>
  <wgt id="913">3.80968e-12</wgt>
  <wgt id="914">4.45094e-12</wgt>
  <wgt id="915">4.17197e-12</wgt>
  <wgt id="916">4.73727e-12</wgt>
  <wgt id="917">4.08129e-12</wgt>
  <wgt id="918">4.23241e-12</wgt>
  <wgt id="919">4.20177e-12</wgt>
  <wgt id="920">3.94281e-12</wgt>
  <wgt id="921">4.42749e-12</wgt>
  <wgt id="922">3.93017e-12</wgt>
  <wgt id="923">4.25747e-12</wgt>
  <wgt id="924">3.78276e-12</wgt>
  <wgt id="925">3.59572e-12</wgt>
  <wgt id="926">4.8152e-12</wgt>
  <wgt id="927">4.67849e-12</wgt>
  <wgt id="928">4.58999e-12</wgt>
  <wgt id="929">4.37345e-12</wgt>
  <wgt id="930">4.31808e-12</wgt>
  <wgt id="931">4.22487e-12</wgt>
  <wgt id="932">4.06214e-12</wgt>
  <wgt id="933">4.84524e-12</wgt>
  <wgt id="934">4.2929e-12</wgt>
  <wgt id="935">4.98448e-12</wgt>
  <wgt id="936">4.19507e-12</wgt>
  <wgt id="937">4.50305e-12</wgt>
  <wgt id="938">4.35951e-12</wgt>
  <wgt id="939">4.14072e-12</wgt>
  <wgt id="940">4.29172e-12</wgt>
  <wgt id="941">4.11286e-12</wgt>
  <wgt id="942">4.64262e-12</wgt>
  <wgt id="943">5.03974e-12</wgt>
  <wgt id="944">4.18546e-12</wgt>
  <wgt id="945">4.27493e-12</wgt>
  <wgt id="946">4.01342e-12</wgt>
  <wgt id="947">4.2792e-12</wgt>
  <wgt id="948">4.70252e-12</wgt>
  <wgt id="949">4.82588e-12</wgt>
  <wgt id="950">3.72913e-12</wgt>
  <wgt id="951">4.25592e-12</wgt>
  <wgt id="952">4.56356e-12</wgt>
  <wgt id="953">4.61094e-12</wgt>
  <wgt id="954">4.44044e-12</wgt>
  <wgt id="955">3.9322e-12</wgt>
  <wgt id="956">4.00145e-12</wgt>
  <wgt id="957">4.58829e-12</wgt>
  <wgt id="958">4.31929e-12</wgt>
  <wgt id="959">4.31349e-12</wgt>
  <wgt id="960">3.86333e-12</wgt>
  <wgt id="961">4.31623e-12</wgt>
  <wgt id="962">4.68455e-12</wgt>
  <wgt id="963">4.28972e-12</wgt>
  <wgt id="964">4.72472e-12</wgt>
  <wgt id="965">4.76624e-12</wgt>
  <wgt id="966">4.37655e-12</wgt>
  <wgt id="967">4.61833e-12</wgt>
  <wgt id="968">4.41718e-12</wgt>
  <wgt id="969">4.39218e-12</wgt>
  <wgt id="970">4.47443e-12</wgt>
  <wgt id="971">4.01825e-12</wgt>
  <wgt id="972">4.63936e-12</wgt>
  <wgt id="973">4.15812e-12</wgt>
  <wgt id="974">5.33632e-12</wgt>
  <wgt id="975">4.1881e-12</wgt>
  <wgt id="976">4.33691e-12</wgt>
  <wgt id="977">3.58e-12</wgt>
  <wgt id="978">4.60389e-12</wgt>
  <wgt id="979">4.91745e-12</wgt>
  <wgt id="980">4.34048e-12</wgt>
  <wgt id="981">4.43052e-12</wgt>
  <wgt id="982">4.22726e-12</wgt>
</rwgt>
</event>
<event>
 5   1  0.3028200E-11  0.2413355E+04  0.7818608E-02  0.7672966E-01
       21   -1    0    0  502  501  0.00000000000E+00  0.00000000000E+00  0.12690689559E+04  0.12690689559E+04  0.00000000000E+00 0.  1.
       21   -1    0    0  501  502 -0.00000000000E+00 -0.00000000000E+00 -0.11473532752E+04  0.11473532752E+04  0.00000000000E+00 0. -1.
       39    2    1    2    0    0  0.00000000000E+00  0.00000000000E+00  0.12171568071E+03  0.24164222311E+04  0.24133548624E+04 0.  0.
       25    1    3    3    0    0 -0.29246819043E+02 -0.11855107826E+04  0.24590136458E+03  0.12175317956E+04  0.12500000000E+03 0.  0.
       25    1    3    3    0    0  0.29246819043E+02  0.11855107826E+04 -0.12418568386E+03  0.11988904355E+04  0.12500000000E+03 0.  0.
<mgrwt>
<rscale>  0 0.24133549E+04</rscale>
<asrwt>0</asrwt>
<pdfrwt beam="1">  1       21 0.19524138E+00 0.24133549E+04</pdfrwt>
<pdfrwt beam="2">  1       21 0.17651589E+00 0.24133549E+04</pdfrwt>
<totfact> 0.10003792E+01</totfact>
</mgrwt>
<rwgt>
  <wgt id="1">3.0282e-12</wgt>
  <wgt id="2">2.6313e-12</wgt>
  <wgt id="3">3.52207e-12</wgt>
  <wgt id="4">3.0282e-12</wgt>
  <wgt id="5">2.6313e-12</wgt>
  <wgt id="6">3.52207e-12</wgt>
  <wgt id="7">3.0282e-12</wgt>
  <wgt id="8">2.6313e-12</wgt>
  <wgt id="9">3.52207e-12</wgt>
  <wgt id="10">3.14038e-12</wgt>
  <wgt id="11">3.13689e-12</wgt>
  <wgt id="12">3.13406e-12</wgt>
  <wgt id="13">3.12925e-12</wgt>
  <wgt id="14">3.15213e-12</wgt>
  <wgt id="15">3.1451e-12</wgt>
  <wgt id="16">3.13397e-12</wgt>
  <wgt id="17">3.14489e-12</wgt>
  <wgt id="18">3.1341e-12</wgt>
  <wgt id="19">3.1478e-12</wgt>
  <wgt id="20">3.13027e-12</wgt>
  <wgt id="21">3.12255e-12</wgt>
  <wgt id="22">3.13043e-12</wgt>
  <wgt id="23">3.11313e-12</wgt>
  <wgt id="24">3.12697e-12</wgt>
  <wgt id="25">3.1334e-12</wgt>
  <wgt id="26">3.15439e-12</wgt>
  <wgt id="27">3.14086e-12</wgt>
  <wgt id="28">3.12639e-12</wgt>
  <wgt id="29">3.14331e-12</wgt>
  <wgt id="30">3.1347e-12</wgt>
  <wgt id="31">3.1478e-12</wgt>
  <wgt id="32">3.13735e-12</wgt>
  <wgt id="33">3.14884e-12</wgt>
  <wgt id="34">3.1314e-12</wgt>
  <wgt id="35">3.14061e-12</wgt>
  <wgt id="36">3.15097e-12</wgt>
  <wgt id="37">3.13243e-12</wgt>
  <wgt id="38">3.13064e-12</wgt>
  <wgt id="39">3.17059e-12</wgt>
  <wgt id="40">3.14742e-12</wgt>
  <wgt id="41">3.14004e-12</wgt>
  <wgt id="42">3.14689e-12</wgt>
  <wgt id="43">3.14079e-12</wgt>
  <wgt id="44">3.1301e-12</wgt>
  <wgt id="45">3.14828e-12</wgt>
  <wgt id="46">3.14724e-12</wgt>
  <wgt id="47">3.1263e-12</wgt>
  <wgt id="48">3.13966e-12</wgt>
  <wgt id="49">3.14759e-12</wgt>
  <wgt id="50">3.16094e-12</wgt>
  <wgt id="51">3.15714e-12</wgt>
  <wgt id="52">3.13706e-12</wgt>
  <wgt id="53">3.11343e-12</wgt>
  <wgt id="54">3.13206e-12</wgt>
  <wgt id="55">3.14021e-12</wgt>
  <wgt id="56">3.15184e-12</wgt>
  <wgt id="57">3.15164e-12</wgt>
  <wgt id="58">3.11667e-12</wgt>
  <wgt id="59">3.12803e-12</wgt>
  <wgt id="60">3.14146e-12</wgt>
  <wgt id="61">3.1331e-12</wgt>
  <wgt id="62">3.13957e-12</wgt>
  <wgt id="63">3.14407e-12</wgt>
  <wgt id="64">3.14428e-12</wgt>
  <wgt id="65">3.14398e-12</wgt>
  <wgt id="66">3.13573e-12</wgt>
  <wgt id="67">3.13498e-12</wgt>
  <wgt id="68">3.13662e-12</wgt>
  <wgt id="69">3.14009e-12</wgt>
  <wgt id="70">3.13752e-12</wgt>
  <wgt id="71">3.14035e-12</wgt>
  <wgt id="72">3.13724e-12</wgt>
  <wgt id="73">3.14209e-12</wgt>
  <wgt id="74">3.14288e-12</wgt>
  <wgt id="75">3.13789e-12</wgt>
  <wgt id="76">3.14943e-12</wgt>
  <wgt id="77">3.14e-12</wgt>
  <wgt id="78">3.14137e-12</wgt>
  <wgt id="79">3.14614e-12</wgt>
  <wgt id="80">3.12674e-12</wgt>
  <wgt id="81">3.13601e-12</wgt>
  <wgt id="82">3.14035e-12</wgt>
  <wgt id="83">3.12759e-12</wgt>
  <wgt id="84">3.13307e-12</wgt>
  <wgt id="85">3.13439e-12</wgt>
  <wgt id="86">3.14793e-12</wgt>
  <wgt id="87">3.12383e-12</wgt>
  <wgt id="88">3.1445e-12</wgt>
  <wgt id="89">3.14354e-12</wgt>
  <wgt id="90">3.1445e-12</wgt>
  <wgt id="91">3.14255e-12</wgt>
  <wgt id="92">3.14642e-12</wgt>
  <wgt id="93">3.13954e-12</wgt>
  <wgt id="94">3.13726e-12</wgt>
  <wgt id="95">3.14202e-12</wgt>
  <wgt id="96">3.1427e-12</wgt>
  <wgt id="97">3.13631e-12</wgt>
  <wgt id="98">3.14178e-12</wgt>
  <wgt id="99">3.1397e-12</wgt>
  <wgt id="100">3.14318e-12</wgt>
  <wgt id="101">3.1387e-12</wgt>
  <wgt id="102">3.13665e-12</wgt>
  <wgt id="103">3.14511e-12</wgt>
  <wgt id="104">3.13766e-12</wgt>
  <wgt id="105">3.14319e-12</wgt>
  <wgt id="106">3.13634e-12</wgt>
  <wgt id="107">3.14863e-12</wgt>
  <wgt id="108">3.13747e-12</wgt>
  <wgt id="109">3.14132e-12</wgt>
  <wgt id="110">3.1399e-12</wgt>
  <wgt id="111">3.1703e-12</wgt>
  <wgt id="112">3.13825e-12</wgt>
  <wgt id="113">4.254e-12</wgt>
  <wgt id="114">4.39097e-12</wgt>
  <wgt id="115">4.33124e-12</wgt>
  <wgt id="116">6.14874e-12</wgt>
  <wgt id="117">3.51822e-12</wgt>
  <wgt id="118">3.53103e-12</wgt>
  <wgt id="119">3.51113e-12</wgt>
  <wgt id="120">3.51857e-12</wgt>
  <wgt id="121">3.51805e-12</wgt>
  <wgt id="122">3.51227e-12</wgt>
  <wgt id="123">3.52667e-12</wgt>
  <wgt id="124">3.5133e-12</wgt>
  <wgt id="125">3.52158e-12</wgt>
  <wgt id="126">3.52501e-12</wgt>
  <wgt id="127">3.51376e-12</wgt>
  <wgt id="128">3.52934e-12</wgt>
  <wgt id="129">3.5073e-12</wgt>
  <wgt id="130">3.53896e-12</wgt>
  <wgt id="131">3.497e-12</wgt>
  <wgt id="132">3.4257e-12</wgt>
  <wgt id="133">3.62794e-12</wgt>
  <wgt id="134">3.47977e-12</wgt>
  <wgt id="135">3.54836e-12</wgt>
  <wgt id="136">3.56418e-12</wgt>
  <wgt id="137">3.46276e-12</wgt>
  <wgt id="138">3.65714e-12</wgt>
  <wgt id="139">3.38428e-12</wgt>
  <wgt id="140">3.49499e-12</wgt>
  <wgt id="141">3.53641e-12</wgt>
  <wgt id="142">3.51875e-12</wgt>
  <wgt id="143">3.52339e-12</wgt>
  <wgt id="144">3.41562e-12</wgt>
  <wgt id="145">3.61391e-12</wgt>
  <wgt id="146">3.5511e-12</wgt>
  <wgt id="147">3.4922e-12</wgt>
  <wgt id="148">3.52939e-12</wgt>
  <wgt id="149">3.51752e-12</wgt>
  <wgt id="150">3.5492e-12</wgt>
  <wgt id="151">3.50375e-12</wgt>
  <wgt id="152">3.52001e-12</wgt>
  <wgt id="153">3.51769e-12</wgt>
  <wgt id="154">3.54613e-12</wgt>
  <wgt id="155">3.485e-12</wgt>
  <wgt id="156">3.59136e-12</wgt>
  <wgt id="157">3.44224e-12</wgt>
  <wgt id="158">4.23206e-12</wgt>
  <wgt id="159">4.2497e-12</wgt>
  <wgt id="160">4.21772e-12</wgt>
  <wgt id="161">4.22095e-12</wgt>
  <wgt id="162">4.24432e-12</wgt>
  <wgt id="163">4.22738e-12</wgt>
  <wgt id="164">4.23907e-12</wgt>
  <wgt id="165">4.23359e-12</wgt>
  <wgt id="166">4.2309e-12</wgt>
  <wgt id="167">4.22897e-12</wgt>
  <wgt id="168">4.23629e-12</wgt>
  <wgt id="169">4.21415e-12</wgt>
  <wgt id="170">4.24345e-12</wgt>
  <wgt id="171">4.22716e-12</wgt>
  <wgt id="172">4.2389e-12</wgt>
  <wgt id="173">4.23168e-12</wgt>
  <wgt id="174">4.23205e-12</wgt>
  <wgt id="175">4.11112e-12</wgt>
  <wgt id="176">4.38985e-12</wgt>
  <wgt id="177">4.25541e-12</wgt>
  <wgt id="178">4.2105e-12</wgt>
  <wgt id="179">4.4128e-12</wgt>
  <wgt id="180">3.9472e-12</wgt>
  <wgt id="181">4.10651e-12</wgt>
  <wgt id="182">4.31491e-12</wgt>
  <wgt id="183">4.15538e-12</wgt>
  <wgt id="184">4.27017e-12</wgt>
  <wgt id="185">4.19762e-12</wgt>
  <wgt id="186">4.27426e-12</wgt>
  <wgt id="187">4.19379e-12</wgt>
  <wgt id="188">4.3015e-12</wgt>
  <wgt id="189">4.20436e-12</wgt>
  <wgt id="190">4.2435e-12</wgt>
  <wgt id="191">4.24389e-12</wgt>
  <wgt id="192">4.22508e-12</wgt>
  <wgt id="193">4.29382e-12</wgt>
  <wgt id="194">4.20164e-12</wgt>
  <wgt id="195">4.12153e-12</wgt>
  <wgt id="196">4.42597e-12</wgt>
  <wgt id="197">4.25363e-12</wgt>
  <wgt id="198">4.22701e-12</wgt>
  <wgt id="199">4.23206e-12</wgt>
  <wgt id="200">4.26882e-12</wgt>
  <wgt id="201">4.25538e-12</wgt>
  <wgt id="202">4.24236e-12</wgt>
  <wgt id="203">4.22274e-12</wgt>
  <wgt id="204">4.21346e-12</wgt>
  <wgt id="205">4.20591e-12</wgt>
  <wgt id="206">4.09639e-12</wgt>
  <wgt id="207">4.12045e-12</wgt>
  <wgt id="208">4.07258e-12</wgt>
  <wgt id="209">4.10965e-12</wgt>
  <wgt id="210">4.08658e-12</wgt>
  <wgt id="211">4.09484e-12</wgt>
  <wgt id="212">4.09774e-12</wgt>
  <wgt id="213">4.096e-12</wgt>
  <wgt id="214">4.09695e-12</wgt>
  <wgt id="215">4.09945e-12</wgt>
  <wgt id="216">4.09406e-12</wgt>
  <wgt id="217">4.10847e-12</wgt>
  <wgt id="218">4.087e-12</wgt>
  <wgt id="219">4.09269e-12</wgt>
  <wgt id="220">4.09859e-12</wgt>
  <wgt id="221">4.09444e-12</wgt>
  <wgt id="222">4.10062e-12</wgt>
  <wgt id="223">3.87735e-12</wgt>
  <wgt id="224">4.29601e-12</wgt>
  <wgt id="225">4.0463e-12</wgt>
  <wgt id="226">4.15927e-12</wgt>
  <wgt id="227">4.05717e-12</wgt>
  <wgt id="228">4.11358e-12</wgt>
  <wgt id="229">4.03875e-12</wgt>
  <wgt id="230">4.12505e-12</wgt>
  <wgt id="231">4.21454e-12</wgt>
  <wgt id="232">3.9993e-12</wgt>
  <wgt id="233">4.07464e-12</wgt>
  <wgt id="234">4.13043e-12</wgt>
  <wgt id="235">4.00986e-12</wgt>
  <wgt id="236">4.17614e-12</wgt>
  <wgt id="237">4.03824e-12</wgt>
  <wgt id="238">4.1163e-12</wgt>
  <wgt id="239">4.07118e-12</wgt>
  <wgt id="240">4.1418e-12</wgt>
  <wgt id="241">4.05433e-12</wgt>
  <wgt id="242">4.14733e-12</wgt>
  <wgt id="243">4.15052e-12</wgt>
  <wgt id="244">4.11643e-12</wgt>
  <wgt id="245">4.09374e-12</wgt>
  <wgt id="246">4.12611e-12</wgt>
  <wgt id="247">4.09639e-12</wgt>
  <wgt id="248">4.13177e-12</wgt>
  <wgt id="249">4.11816e-12</wgt>
  <wgt id="250">4.10576e-12</wgt>
  <wgt id="251">4.08664e-12</wgt>
  <wgt id="252">4.0779e-12</wgt>
  <wgt id="253">4.07141e-12</wgt>
  <wgt id="254">4.01583e-12</wgt>
  <wgt id="255">4.01959e-12</wgt>
  <wgt id="256">4.01147e-12</wgt>
  <wgt id="257">4.01865e-12</wgt>
  <wgt id="258">4.01355e-12</wgt>
  <wgt id="259">4.04267e-12</wgt>
  <wgt id="260">3.9898e-12</wgt>
  <wgt id="261">4.02195e-12</wgt>
  <wgt id="262">4.00836e-12</wgt>
  <wgt id="263">4.01391e-12</wgt>
  <wgt id="264">4.01794e-12</wgt>
  <wgt id="265">4.01088e-12</wgt>
  <wgt id="266">4.02533e-12</wgt>
  <wgt id="267">4.01716e-12</wgt>
  <wgt id="268">4.01391e-12</wgt>
  <wgt id="269">4.02913e-12</wgt>
  <wgt id="270">4.00672e-12</wgt>
  <wgt id="271">4.00907e-12</wgt>
  <wgt id="272">4.02333e-12</wgt>
  <wgt id="273">4.00296e-12</wgt>
  <wgt id="274">4.02547e-12</wgt>
  <wgt id="275">3.99901e-12</wgt>
  <wgt id="276">4.03305e-12</wgt>
  <wgt id="277">3.99264e-12</wgt>
  <wgt id="278">4.03697e-12</wgt>
  <wgt id="279">3.93715e-12</wgt>
  <wgt id="280">4.11419e-12</wgt>
  <wgt id="281">3.99764e-12</wgt>
  <wgt id="282">4.01656e-12</wgt>
  <wgt id="283">3.90005e-12</wgt>
  <wgt id="284">4.15824e-12</wgt>
  <wgt id="285">3.82395e-12</wgt>
  <wgt id="286">4.17437e-12</wgt>
  <wgt id="287">4.02827e-12</wgt>
  <wgt id="288">3.99961e-12</wgt>
  <wgt id="289">4.04382e-12</wgt>
  <wgt id="290">3.95016e-12</wgt>
  <wgt id="291">4.00484e-12</wgt>
  <wgt id="292">4.01827e-12</wgt>
  <wgt id="293">3.98471e-12</wgt>
  <wgt id="294">4.04648e-12</wgt>
  <wgt id="295">3.93966e-12</wgt>
  <wgt id="296">4.10854e-12</wgt>
  <wgt id="297">4.01534e-12</wgt>
  <wgt id="298">4.03122e-12</wgt>
  <wgt id="299">4.00257e-12</wgt>
  <wgt id="300">4.05013e-12</wgt>
  <wgt id="301">3.95808e-12</wgt>
  <wgt id="302">4.15962e-12</wgt>
  <wgt id="303">3.9846e-12</wgt>
  <wgt id="304">4.03365e-12</wgt>
  <wgt id="305">4.02848e-12</wgt>
  <wgt id="306">4.03284e-12</wgt>
  <wgt id="307">4.02414e-12</wgt>
  <wgt id="308">4.03188e-12</wgt>
  <wgt id="309">4.02642e-12</wgt>
  <wgt id="310">4.05652e-12</wgt>
  <wgt id="311">4.00284e-12</wgt>
  <wgt id="312">4.03388e-12</wgt>
  <wgt id="313">4.02326e-12</wgt>
  <wgt id="314">4.02696e-12</wgt>
  <wgt id="315">4.03042e-12</wgt>
  <wgt id="316">4.02392e-12</wgt>
  <wgt id="317">4.03879e-12</wgt>
  <wgt id="318">4.03173e-12</wgt>
  <wgt id="319">4.02355e-12</wgt>
  <wgt id="320">4.04258e-12</wgt>
  <wgt id="321">4.0209e-12</wgt>
  <wgt id="322">4.01985e-12</wgt>
  <wgt id="323">4.03904e-12</wgt>
  <wgt id="324">4.01807e-12</wgt>
  <wgt id="325">4.03799e-12</wgt>
  <wgt id="326">4.01526e-12</wgt>
  <wgt id="327">4.04573e-12</wgt>
  <wgt id="328">4.00796e-12</wgt>
  <wgt id="329">4.04039e-12</wgt>
  <wgt id="330">4.14922e-12</wgt>
  <wgt id="331">3.91365e-12</wgt>
  <wgt id="332">4.0135e-12</wgt>
  <wgt id="333">4.02887e-12</wgt>
  <wgt id="334">3.93758e-12</wgt>
  <wgt id="335">4.14173e-12</wgt>
  <wgt id="336">3.88911e-12</wgt>
  <wgt id="337">4.19809e-12</wgt>
  <wgt id="338">4.07323e-12</wgt>
  <wgt id="339">3.9874e-12</wgt>
  <wgt id="340">4.05541e-12</wgt>
  <wgt id="341">3.95992e-12</wgt>
  <wgt id="342">4.02088e-12</wgt>
  <wgt id="343">4.02492e-12</wgt>
  <wgt id="344">4.00055e-12</wgt>
  <wgt id="345">4.0613e-12</wgt>
  <wgt id="346">3.94959e-12</wgt>
  <wgt id="347">4.11985e-12</wgt>
  <wgt id="348">4.02969e-12</wgt>
  <wgt id="349">4.04147e-12</wgt>
  <wgt id="350">4.01221e-12</wgt>
  <wgt id="351">4.07028e-12</wgt>
  <wgt id="352">3.96461e-12</wgt>
  <wgt id="353">4.1795e-12</wgt>
  <wgt id="354">3.98076e-12</wgt>
  <wgt id="355">4.05779e-12</wgt>
  <wgt id="356">4.01583e-12</wgt>
  <wgt id="357">4.04538e-12</wgt>
  <wgt id="358">4.02848e-12</wgt>
  <wgt id="359">4.03003e-12</wgt>
  <wgt id="360">4.04254e-12</wgt>
  <wgt id="361">4.02852e-12</wgt>
  <wgt id="362">4.09896e-12</wgt>
  <wgt id="363">4.08881e-12</wgt>
  <wgt id="364">4.07488e-12</wgt>
  <wgt id="365">4.06096e-12</wgt>
  <wgt id="366">4.04558e-12</wgt>
  <wgt id="367">4.01354e-12</wgt>
  <wgt id="368">3.99618e-12</wgt>
  <wgt id="369">3.97735e-12</wgt>
  <wgt id="370">4.02852e-12</wgt>
  <wgt id="371">4.04671e-12</wgt>
  <wgt id="372">4.03666e-12</wgt>
  <wgt id="373">4.02188e-12</wgt>
  <wgt id="374">4.02036e-12</wgt>
  <wgt id="375">4.29644e-12</wgt>
  <wgt id="376">4.29703e-12</wgt>
  <wgt id="377">4.29566e-12</wgt>
  <wgt id="378">4.31186e-12</wgt>
  <wgt id="379">4.28084e-12</wgt>
  <wgt id="380">4.30776e-12</wgt>
  <wgt id="381">4.29174e-12</wgt>
  <wgt id="382">4.31921e-12</wgt>
  <wgt id="383">4.27372e-12</wgt>
  <wgt id="384">4.29916e-12</wgt>
  <wgt id="385">4.29372e-12</wgt>
  <wgt id="386">4.31414e-12</wgt>
  <wgt id="387">4.28857e-12</wgt>
  <wgt id="388">4.29213e-12</wgt>
  <wgt id="389">4.30133e-12</wgt>
  <wgt id="390">4.30842e-12</wgt>
  <wgt id="391">4.28368e-12</wgt>
  <wgt id="392">4.26263e-12</wgt>
  <wgt id="393">4.31544e-12</wgt>
  <wgt id="394">4.30251e-12</wgt>
  <wgt id="395">4.28781e-12</wgt>
  <wgt id="396">4.29939e-12</wgt>
  <wgt id="397">4.29427e-12</wgt>
  <wgt id="398">4.2766e-12</wgt>
  <wgt id="399">4.31554e-12</wgt>
  <wgt id="400">4.28877e-12</wgt>
  <wgt id="401">4.31337e-12</wgt>
  <wgt id="402">4.26087e-12</wgt>
  <wgt id="403">4.31191e-12</wgt>
  <wgt id="404">4.39613e-12</wgt>
  <wgt id="405">4.05612e-12</wgt>
  <wgt id="406">4.22502e-12</wgt>
  <wgt id="407">4.4512e-12</wgt>
  <wgt id="408">4.33305e-12</wgt>
  <wgt id="409">4.22615e-12</wgt>
  <wgt id="410">4.17922e-12</wgt>
  <wgt id="411">4.35054e-12</wgt>
  <wgt id="412">4.28881e-12</wgt>
  <wgt id="413">4.3076e-12</wgt>
  <wgt id="414">4.24947e-12</wgt>
  <wgt id="415">4.33265e-12</wgt>
  <wgt id="416">4.41087e-12</wgt>
  <wgt id="417">4.13823e-12</wgt>
  <wgt id="418">4.30211e-12</wgt>
  <wgt id="419">4.26588e-12</wgt>
  <wgt id="420">4.36227e-12</wgt>
  <wgt id="421">4.25854e-12</wgt>
  <wgt id="422">4.28909e-12</wgt>
  <wgt id="423">4.30058e-12</wgt>
  <wgt id="424">4.38488e-12</wgt>
  <wgt id="425">4.24073e-12</wgt>
  <wgt id="426">4.29644e-12</wgt>
  <wgt id="427">4.25862e-12</wgt>
  <wgt id="428">4.40888e-12</wgt>
  <wgt id="429">4.3355e-12</wgt>
  <wgt id="430">4.45716e-12</wgt>
  <wgt id="431">4.43289e-12</wgt>
  <wgt id="432">4.40988e-12</wgt>
  <wgt id="433">4.3875e-12</wgt>
  <wgt id="434">4.36046e-12</wgt>
  <wgt id="435">4.30413e-12</wgt>
  <wgt id="436">4.27522e-12</wgt>
  <wgt id="437">4.24778e-12</wgt>
  <wgt id="438">4.3355e-12</wgt>
  <wgt id="439">4.34986e-12</wgt>
  <wgt id="440">4.34139e-12</wgt>
  <wgt id="441">4.33117e-12</wgt>
  <wgt id="442">4.32724e-12</wgt>
  <wgt id="443">4.20127e-12</wgt>
  <wgt id="444">4.22443e-12</wgt>
  <wgt id="445">4.18095e-12</wgt>
  <wgt id="446">4.17452e-12</wgt>
  <wgt id="447">4.18482e-12</wgt>
  <wgt id="448">4.08871e-12</wgt>
  <wgt id="449">4.26613e-12</wgt>
  <wgt id="450">4.18287e-12</wgt>
  <wgt id="451">4.1945e-12</wgt>
  <wgt id="452">4.29734e-12</wgt>
  <wgt id="453">4.24265e-12</wgt>
  <wgt id="454">4.03567e-12</wgt>
  <wgt id="455">4.20508e-12</wgt>
  <wgt id="456">4.15666e-12</wgt>
  <wgt id="457">4.21937e-12</wgt>
  <wgt id="458">4.24823e-12</wgt>
  <wgt id="459">4.22874e-12</wgt>
  <wgt id="460">4.22205e-12</wgt>
  <wgt id="461">4.1236e-12</wgt>
  <wgt id="462">4.16539e-12</wgt>
  <wgt id="463">4.15631e-12</wgt>
  <wgt id="464">4.17623e-12</wgt>
  <wgt id="465">4.24626e-12</wgt>
  <wgt id="466">4.15399e-12</wgt>
  <wgt id="467">4.1594e-12</wgt>
  <wgt id="468">4.18935e-12</wgt>
  <wgt id="469">4.18852e-12</wgt>
  <wgt id="470">4.16505e-12</wgt>
  <wgt id="471">4.16388e-12</wgt>
  <wgt id="472">4.22109e-12</wgt>
  <wgt id="473">4.06155e-12</wgt>
  <wgt id="474">3.0282e-12</wgt>
  <wgt id="475">3.22546e-12</wgt>
  <wgt id="476">2.95497e-12</wgt>
  <wgt id="477">2.91807e-12</wgt>
  <wgt id="478">3.04135e-12</wgt>
  <wgt id="479">2.96793e-12</wgt>
  <wgt id="480">3.13925e-12</wgt>
  <wgt id="481">2.96125e-12</wgt>
  <wgt id="482">2.91111e-12</wgt>
  <wgt id="483">2.94627e-12</wgt>
  <wgt id="484">3.24522e-12</wgt>
  <wgt id="485">3.03391e-12</wgt>
  <wgt id="486">3.10727e-12</wgt>
  <wgt id="487">3.09614e-12</wgt>
  <wgt id="488">3.07107e-12</wgt>
  <wgt id="489">2.93689e-12</wgt>
  <wgt id="490">2.93665e-12</wgt>
  <wgt id="491">2.99182e-12</wgt>
  <wgt id="492">2.9315e-12</wgt>
  <wgt id="493">2.91568e-12</wgt>
  <wgt id="494">2.93805e-12</wgt>
  <wgt id="495">3.10222e-12</wgt>
  <wgt id="496">2.92785e-12</wgt>
  <wgt id="497">2.90887e-12</wgt>
  <wgt id="498">3.0691e-12</wgt>
  <wgt id="499">2.94904e-12</wgt>
  <wgt id="500">2.98341e-12</wgt>
  <wgt id="501">3.17024e-12</wgt>
  <wgt id="502">2.94668e-12</wgt>
  <wgt id="503">3.02568e-12</wgt>
  <wgt id="504">3.05178e-12</wgt>
  <wgt id="505">3.01138e-12</wgt>
  <wgt id="506">3.1168e-12</wgt>
  <wgt id="507">2.99724e-12</wgt>
  <wgt id="508">3.06494e-12</wgt>
  <wgt id="509">2.97172e-12</wgt>
  <wgt id="510">3.11188e-12</wgt>
  <wgt id="511">2.97178e-12</wgt>
  <wgt id="512">3.07045e-12</wgt>
  <wgt id="513">3.16956e-12</wgt>
  <wgt id="514">3.00037e-12</wgt>
  <wgt id="515">2.98368e-12</wgt>
  <wgt id="516">3.10671e-12</wgt>
  <wgt id="517">3.0892e-12</wgt>
  <wgt id="518">3.09525e-12</wgt>
  <wgt id="519">2.93897e-12</wgt>
  <wgt id="520">3.05614e-12</wgt>
  <wgt id="521">3.13509e-12</wgt>
  <wgt id="522">3.14341e-12</wgt>
  <wgt id="523">3.11145e-12</wgt>
  <wgt id="524">3.08036e-12</wgt>
  <wgt id="525">3.12788e-12</wgt>
  <wgt id="526">3.03732e-12</wgt>
  <wgt id="527">3.07491e-12</wgt>
  <wgt id="528">3.04541e-12</wgt>
  <wgt id="529">2.97112e-12</wgt>
  <wgt id="530">3.05446e-12</wgt>
  <wgt id="531">3.00007e-12</wgt>
  <wgt id="532">3.1973e-12</wgt>
  <wgt id="533">2.84235e-12</wgt>
  <wgt id="534">3.04628e-12</wgt>
  <wgt id="535">3.09935e-12</wgt>
  <wgt id="536">3.01364e-12</wgt>
  <wgt id="537">3.04165e-12</wgt>
  <wgt id="538">3.06218e-12</wgt>
  <wgt id="539">2.97299e-12</wgt>
  <wgt id="540">2.96129e-12</wgt>
  <wgt id="541">2.94528e-12</wgt>
  <wgt id="542">2.9757e-12</wgt>
  <wgt id="543">3.02519e-12</wgt>
  <wgt id="544">3.17982e-12</wgt>
  <wgt id="545">2.99243e-12</wgt>
  <wgt id="546">2.99523e-12</wgt>
  <wgt id="547">2.93295e-12</wgt>
  <wgt id="548">2.90395e-12</wgt>
  <wgt id="549">2.97345e-12</wgt>
  <wgt id="550">3.01487e-12</wgt>
  <wgt id="551">3.05471e-12</wgt>
  <wgt id="552">3.00939e-12</wgt>
  <wgt id="553">3.02265e-12</wgt>
  <wgt id="554">3.2521e-12</wgt>
  <wgt id="555">3.10248e-12</wgt>
  <wgt id="556">2.93665e-12</wgt>
  <wgt id="557">3.07544e-12</wgt>
  <wgt id="558">2.92662e-12</wgt>
  <wgt id="559">2.99081e-12</wgt>
  <wgt id="560">3.27822e-12</wgt>
  <wgt id="561">2.9663e-12</wgt>
  <wgt id="562">3.07389e-12</wgt>
  <wgt id="563">2.92733e-12</wgt>
  <wgt id="564">3.0214e-12</wgt>
  <wgt id="565">2.90623e-12</wgt>
  <wgt id="566">3.08072e-12</wgt>
  <wgt id="567">2.98365e-12</wgt>
  <wgt id="568">3.01569e-12</wgt>
  <wgt id="569">3.09244e-12</wgt>
  <wgt id="570">2.93484e-12</wgt>
  <wgt id="571">3.35726e-12</wgt>
  <wgt id="572">2.95499e-12</wgt>
  <wgt id="573">2.8901e-12</wgt>
  <wgt id="574">2.91785e-12</wgt>
  <wgt id="575">3.33604e-12</wgt>
  <wgt id="576">3.30016e-12</wgt>
  <wgt id="577">3.42414e-12</wgt>
  <wgt id="578">3.42535e-12</wgt>
  <wgt id="579">3.39138e-12</wgt>
  <wgt id="580">3.39582e-12</wgt>
  <wgt id="581">3.548e-12</wgt>
  <wgt id="582">3.29233e-12</wgt>
  <wgt id="583">3.37393e-12</wgt>
  <wgt id="584">3.34318e-12</wgt>
  <wgt id="585">3.37178e-12</wgt>
  <wgt id="586">3.26621e-12</wgt>
  <wgt id="587">3.38461e-12</wgt>
  <wgt id="588">3.31386e-12</wgt>
  <wgt id="589">3.39686e-12</wgt>
  <wgt id="590">3.39965e-12</wgt>
  <wgt id="591">3.46216e-12</wgt>
  <wgt id="592">3.27506e-12</wgt>
  <wgt id="593">3.32428e-12</wgt>
  <wgt id="594">3.43762e-12</wgt>
  <wgt id="595">3.31957e-12</wgt>
  <wgt id="596">3.35392e-12</wgt>
  <wgt id="597">3.23069e-12</wgt>
  <wgt id="598">3.24713e-12</wgt>
  <wgt id="599">3.52436e-12</wgt>
  <wgt id="600">3.29777e-12</wgt>
  <wgt id="601">3.24412e-12</wgt>
  <wgt id="602">3.26884e-12</wgt>
  <wgt id="603">3.27549e-12</wgt>
  <wgt id="604">3.38532e-12</wgt>
  <wgt id="605">3.47324e-12</wgt>
  <wgt id="606">3.25458e-12</wgt>
  <wgt id="607">3.28873e-12</wgt>
  <wgt id="608">3.359e-12</wgt>
  <wgt id="609">3.15078e-12</wgt>
  <wgt id="610">3.21e-12</wgt>
  <wgt id="611">3.37261e-12</wgt>
  <wgt id="612">3.5582e-12</wgt>
  <wgt id="613">3.33288e-12</wgt>
  <wgt id="614">3.38536e-12</wgt>
  <wgt id="615">3.2642e-12</wgt>
  <wgt id="616">3.53065e-12</wgt>
  <wgt id="617">3.4621e-12</wgt>
  <wgt id="618">3.38025e-12</wgt>
  <wgt id="619">3.29609e-12</wgt>
  <wgt id="620">3.4868e-12</wgt>
  <wgt id="621">3.38936e-12</wgt>
  <wgt id="622">3.38461e-12</wgt>
  <wgt id="623">3.43539e-12</wgt>
  <wgt id="624">3.32435e-12</wgt>
  <wgt id="625">3.30162e-12</wgt>
  <wgt id="626">3.25984e-12</wgt>
  <wgt id="627">3.20723e-12</wgt>
  <wgt id="628">3.54046e-12</wgt>
  <wgt id="629">3.2542e-12</wgt>
  <wgt id="630">3.20482e-12</wgt>
  <wgt id="631">3.3528e-12</wgt>
  <wgt id="632">3.22515e-12</wgt>
  <wgt id="633">3.29764e-12</wgt>
  <wgt id="634">3.33228e-12</wgt>
  <wgt id="635">3.27412e-12</wgt>
  <wgt id="636">3.35292e-12</wgt>
  <wgt id="637">3.31999e-12</wgt>
  <wgt id="638">3.20482e-12</wgt>
  <wgt id="639">3.29204e-12</wgt>
  <wgt id="640">3.3384e-12</wgt>
  <wgt id="641">3.35214e-12</wgt>
  <wgt id="642">3.17738e-12</wgt>
  <wgt id="643">3.31676e-12</wgt>
  <wgt id="644">3.21825e-12</wgt>
  <wgt id="645">3.37005e-12</wgt>
  <wgt id="646">3.39193e-12</wgt>
  <wgt id="647">3.29357e-12</wgt>
  <wgt id="648">3.35087e-12</wgt>
  <wgt id="649">3.3897e-12</wgt>
  <wgt id="650">3.27783e-12</wgt>
  <wgt id="651">3.34006e-12</wgt>
  <wgt id="652">3.31516e-12</wgt>
  <wgt id="653">3.24258e-12</wgt>
  <wgt id="654">3.32102e-12</wgt>
  <wgt id="655">3.28503e-12</wgt>
  <wgt id="656">3.36224e-12</wgt>
  <wgt id="657">3.45175e-12</wgt>
  <wgt id="658">3.34585e-12</wgt>
  <wgt id="659">3.20462e-12</wgt>
  <wgt id="660">3.40629e-12</wgt>
  <wgt id="661">3.27968e-12</wgt>
  <wgt id="662">3.34169e-12</wgt>
  <wgt id="663">3.33464e-12</wgt>
  <wgt id="664">3.28516e-12</wgt>
  <wgt id="665">3.32475e-12</wgt>
  <wgt id="666">3.30905e-12</wgt>
  <wgt id="667">3.43699e-12</wgt>
  <wgt id="668">3.33229e-12</wgt>
  <wgt id="669">3.41817e-12</wgt>
  <wgt id="670">3.39993e-12</wgt>
  <wgt id="671">3.30564e-12</wgt>
  <wgt id="672">3.19676e-12</wgt>
  <wgt id="673">3.33911e-12</wgt>
  <wgt id="674">3.27473e-12</wgt>
  <wgt id="675">3.29256e-12</wgt>
  <wgt id="676">4.20887e-12</wgt>
  <wgt id="677">4.25441e-12</wgt>
  <wgt id="678">4.40459e-12</wgt>
  <wgt id="679">3.92866e-12</wgt>
  <wgt id="680">4.10272e-12</wgt>
  <wgt id="681">4.30944e-12</wgt>
  <wgt id="682">4.33535e-12</wgt>
  <wgt id="683">4.15718e-12</wgt>
  <wgt id="684">4.4027e-12</wgt>
  <wgt id="685">3.97428e-12</wgt>
  <wgt id="686">4.13838e-12</wgt>
  <wgt id="687">4.42398e-12</wgt>
  <wgt id="688">4.21043e-12</wgt>
  <wgt id="689">4.57193e-12</wgt>
  <wgt id="690">4.43033e-12</wgt>
  <wgt id="691">4.48716e-12</wgt>
  <wgt id="692">4.16139e-12</wgt>
  <wgt id="693">4.92789e-12</wgt>
  <wgt id="694">4.45427e-12</wgt>
  <wgt id="695">4.08108e-12</wgt>
  <wgt id="696">3.97247e-12</wgt>
  <wgt id="697">4.11649e-12</wgt>
  <wgt id="698">3.87501e-12</wgt>
  <wgt id="699">3.84428e-12</wgt>
  <wgt id="700">3.66802e-12</wgt>
  <wgt id="701">4.22644e-12</wgt>
  <wgt id="702">4.05915e-12</wgt>
  <wgt id="703">4.8254e-12</wgt>
  <wgt id="704">4.58778e-12</wgt>
  <wgt id="705">4.3768e-12</wgt>
  <wgt id="706">3.91293e-12</wgt>
  <wgt id="707">4.04257e-12</wgt>
  <wgt id="708">4.15665e-12</wgt>
  <wgt id="709">4.13678e-12</wgt>
  <wgt id="710">3.76902e-12</wgt>
  <wgt id="711">4.18151e-12</wgt>
  <wgt id="712">4.14488e-12</wgt>
  <wgt id="713">4.56801e-12</wgt>
  <wgt id="714">4.15475e-12</wgt>
  <wgt id="715">4.17217e-12</wgt>
  <wgt id="716">4.0422e-12</wgt>
  <wgt id="717">4.02702e-12</wgt>
  <wgt id="718">4.19031e-12</wgt>
  <wgt id="719">3.81923e-12</wgt>
  <wgt id="720">3.94577e-12</wgt>
  <wgt id="721">3.88863e-12</wgt>
  <wgt id="722">3.74246e-12</wgt>
  <wgt id="723">4.48504e-12</wgt>
  <wgt id="724">4.4049e-12</wgt>
  <wgt id="725">4.44642e-12</wgt>
  <wgt id="726">4.25366e-12</wgt>
  <wgt id="727">4.10585e-12</wgt>
  <wgt id="728">4.12144e-12</wgt>
  <wgt id="729">3.79049e-12</wgt>
  <wgt id="730">4.55119e-12</wgt>
  <wgt id="731">4.15943e-12</wgt>
  <wgt id="732">4.61791e-12</wgt>
  <wgt id="733">4.22074e-12</wgt>
  <wgt id="734">4.31201e-12</wgt>
  <wgt id="735">4.18219e-12</wgt>
  <wgt id="736">4.13548e-12</wgt>
  <wgt id="737">4.2857e-12</wgt>
  <wgt id="738">3.98808e-12</wgt>
  <wgt id="739">4.25626e-12</wgt>
  <wgt id="740">4.67253e-12</wgt>
  <wgt id="741">3.73372e-12</wgt>
  <wgt id="742">4.13756e-12</wgt>
  <wgt id="743">4.02203e-12</wgt>
  <wgt id="744">4.12307e-12</wgt>
  <wgt id="745">4.40202e-12</wgt>
  <wgt id="746">4.47289e-12</wgt>
  <wgt id="747">3.82078e-12</wgt>
  <wgt id="748">4.16027e-12</wgt>
  <wgt id="749">4.43746e-12</wgt>
  <wgt id="750">4.25245e-12</wgt>
  <wgt id="751">4.35177e-12</wgt>
  <wgt id="752">3.85433e-12</wgt>
  <wgt id="753">4.01523e-12</wgt>
  <wgt id="754">4.42475e-12</wgt>
  <wgt id="755">4.22772e-12</wgt>
  <wgt id="756">4.24601e-12</wgt>
  <wgt id="757">3.8745e-12</wgt>
  <wgt id="758">4.25349e-12</wgt>
  <wgt id="759">4.26747e-12</wgt>
  <wgt id="760">4.26707e-12</wgt>
  <wgt id="761">4.42942e-12</wgt>
  <wgt id="762">4.46006e-12</wgt>
  <wgt id="763">4.19017e-12</wgt>
  <wgt id="764">4.37737e-12</wgt>
  <wgt id="765">4.30645e-12</wgt>
  <wgt id="766">4.20109e-12</wgt>
  <wgt id="767">4.32353e-12</wgt>
  <wgt id="768">3.97213e-12</wgt>
  <wgt id="769">4.4683e-12</wgt>
  <wgt id="770">4.07326e-12</wgt>
  <wgt id="771">4.98401e-12</wgt>
  <wgt id="772">3.96588e-12</wgt>
  <wgt id="773">4.17657e-12</wgt>
  <wgt id="774">3.7551e-12</wgt>
  <wgt id="775">4.45569e-12</wgt>
  <wgt id="776">4.59893e-12</wgt>
  <wgt id="777">4.00302e-12</wgt>
  <wgt id="778">3.09815e-12</wgt>
  <wgt id="779">2.5824e-12</wgt>
  <wgt id="780">2.09574e-12</wgt>
  <wgt id="781">3.1247e-12</wgt>
  <wgt id="782">3.2771e-12</wgt>
  <wgt id="783">2.61256e-12</wgt>
  <wgt id="784">2.70764e-12</wgt>
  <wgt id="785">3.76182e-12</wgt>
  <wgt id="786">2.3878e-12</wgt>
  <wgt id="787">3.53683e-12</wgt>
  <wgt id="788">1.94825e-12</wgt>
  <wgt id="789">2.45546e-12</wgt>
  <wgt id="790">2.35588e-12</wgt>
  <wgt id="791">2.88125e-12</wgt>
  <wgt id="792">4.02143e-12</wgt>
  <wgt id="793">3.02023e-12</wgt>
  <wgt id="794">2.36135e-12</wgt>
  <wgt id="795">3.64709e-12</wgt>
  <wgt id="796">4.09495e-12</wgt>
  <wgt id="797">3.59636e-12</wgt>
  <wgt id="798">2.85845e-12</wgt>
  <wgt id="799">3.54026e-12</wgt>
  <wgt id="800">2.48563e-12</wgt>
  <wgt id="801">2.88775e-12</wgt>
  <wgt id="802">2.37881e-12</wgt>
  <wgt id="803">3.97559e-12</wgt>
  <wgt id="804">3.61662e-12</wgt>
  <wgt id="805">3.69041e-12</wgt>
  <wgt id="806">3.4817e-12</wgt>
  <wgt id="807">2.94233e-12</wgt>
  <wgt id="808">3.01696e-12</wgt>
  <wgt id="809">2.84814e-12</wgt>
  <wgt id="810">3.53874e-12</wgt>
  <wgt id="811">3.39819e-12</wgt>
  <wgt id="812">2.33813e-12</wgt>
  <wgt id="813">2.39342e-12</wgt>
  <wgt id="814">2.67289e-12</wgt>
  <wgt id="815">2.58854e-12</wgt>
  <wgt id="816">2.24978e-12</wgt>
  <wgt id="817">3.26075e-12</wgt>
  <wgt id="818">3.05976e-12</wgt>
  <wgt id="819">2.57681e-12</wgt>
  <wgt id="820">3.107e-12</wgt>
  <wgt id="821">3.58968e-12</wgt>
  <wgt id="822">2.55615e-12</wgt>
  <wgt id="823">3.61023e-12</wgt>
  <wgt id="824">4.17666e-12</wgt>
  <wgt id="825">2.27967e-12</wgt>
  <wgt id="826">3.28098e-12</wgt>
  <wgt id="827">1.86526e-12</wgt>
  <wgt id="828">3.98486e-12</wgt>
  <wgt id="829">3.23844e-12</wgt>
  <wgt id="830">2.15991e-12</wgt>
  <wgt id="831">3.34615e-12</wgt>
  <wgt id="832">5.13273e-12</wgt>
  <wgt id="833">2.88469e-12</wgt>
  <wgt id="834">4.77404e-12</wgt>
  <wgt id="835">2.50278e-12</wgt>
  <wgt id="836">3.09017e-12</wgt>
  <wgt id="837">3.54333e-12</wgt>
  <wgt id="838">2.96735e-12</wgt>
  <wgt id="839">3.32216e-12</wgt>
  <wgt id="840">2.89088e-12</wgt>
  <wgt id="841">3.84281e-12</wgt>
  <wgt id="842">2.78661e-12</wgt>
  <wgt id="843">3.04476e-12</wgt>
  <wgt id="844">3.24608e-12</wgt>
  <wgt id="845">4.35801e-12</wgt>
  <wgt id="846">2.84444e-12</wgt>
  <wgt id="847">3.14732e-12</wgt>
  <wgt id="848">2.67277e-12</wgt>
  <wgt id="849">3.18157e-12</wgt>
  <wgt id="850">4.07095e-12</wgt>
  <wgt id="851">3.40504e-12</wgt>
  <wgt id="852">2.66474e-12</wgt>
  <wgt id="853">3.40595e-12</wgt>
  <wgt id="854">3.78902e-12</wgt>
  <wgt id="855">3.62912e-12</wgt>
  <wgt id="856">2.22108e-12</wgt>
  <wgt id="857">3.10917e-12</wgt>
  <wgt id="858">3.09705e-12</wgt>
  <wgt id="859">2.86796e-12</wgt>
  <wgt id="860">3.34148e-12</wgt>
  <wgt id="861">2.70584e-12</wgt>
  <wgt id="862">3.16917e-12</wgt>
  <wgt id="863">3.29015e-12</wgt>
  <wgt id="864">3.31928e-12</wgt>
  <wgt id="865">4.49614e-12</wgt>
  <wgt id="866">4.91368e-12</wgt>
  <wgt id="867">3.18015e-12</wgt>
  <wgt id="868">3.08488e-12</wgt>
  <wgt id="869">2.39727e-12</wgt>
  <wgt id="870">2.51686e-12</wgt>
  <wgt id="871">2.44057e-12</wgt>
  <wgt id="872">3.72151e-12</wgt>
  <wgt id="873">2.52142e-12</wgt>
  <wgt id="874">3.27324e-12</wgt>
  <wgt id="875">2.69045e-12</wgt>
  <wgt id="876">3.73855e-12</wgt>
  <wgt id="877">3.58962e-12</wgt>
  <wgt id="878">2.64766e-12</wgt>
  <wgt id="879">4.20887e-12</wgt>
  <wgt id="880">4.25441e-12</wgt>
  <wgt id="881">4.40459e-12</wgt>
  <wgt id="882">3.92866e-12</wgt>
  <wgt id="883">4.10272e-12</wgt>
  <wgt id="884">4.30944e-12</wgt>
  <wgt id="885">4.33535e-12</wgt>
  <wgt id="886">4.15718e-12</wgt>
  <wgt id="887">4.4027e-12</wgt>
  <wgt id="888">3.97428e-12</wgt>
  <wgt id="889">4.13838e-12</wgt>
  <wgt id="890">4.42398e-12</wgt>
  <wgt id="891">4.21043e-12</wgt>
  <wgt id="892">4.57193e-12</wgt>
  <wgt id="893">4.43033e-12</wgt>
  <wgt id="894">4.48716e-12</wgt>
  <wgt id="895">4.16139e-12</wgt>
  <wgt id="896">4.92789e-12</wgt>
  <wgt id="897">4.45427e-12</wgt>
  <wgt id="898">4.08108e-12</wgt>
  <wgt id="899">3.97247e-12</wgt>
  <wgt id="900">4.11649e-12</wgt>
  <wgt id="901">3.87501e-12</wgt>
  <wgt id="902">3.84428e-12</wgt>
  <wgt id="903">3.66802e-12</wgt>
  <wgt id="904">4.22644e-12</wgt>
  <wgt id="905">4.05915e-12</wgt>
  <wgt id="906">4.8254e-12</wgt>
  <wgt id="907">4.58778e-12</wgt>
  <wgt id="908">4.3768e-12</wgt>
  <wgt id="909">3.91293e-12</wgt>
  <wgt id="910">4.04257e-12</wgt>
  <wgt id="911">4.15665e-12</wgt>
  <wgt id="912">4.13678e-12</wgt>
  <wgt id="913">3.76902e-12</wgt>
  <wgt id="914">4.18151e-12</wgt>
  <wgt id="915">4.14488e-12</wgt>
  <wgt id="916">4.56801e-12</wgt>
  <wgt id="917">4.15475e-12</wgt>
  <wgt id="918">4.17217e-12</wgt>
  <wgt id="919">4.0422e-12</wgt>
  <wgt id="920">4.02702e-12</wgt>
  <wgt id="921">4.19031e-12</wgt>
  <wgt id="922">3.81923e-12</wgt>
  <wgt id="923">3.94577e-12</wgt>
  <wgt id="924">3.88863e-12</wgt>
  <wgt id="925">3.74246e-12</wgt>
  <wgt id="926">4.48504e-12</wgt>
  <wgt id="927">4.4049e-12</wgt>
  <wgt id="928">4.44642e-12</wgt>
  <wgt id="929">4.25366e-12</wgt>
  <wgt id="930">4.10585e-12</wgt>
  <wgt id="931">4.12144e-12</wgt>
  <wgt id="932">3.79049e-12</wgt>
  <wgt id="933">4.55119e-12</wgt>
  <wgt id="934">4.15943e-12</wgt>
  <wgt id="935">4.61791e-12</wgt>
  <wgt id="936">4.22074e-12</wgt>
  <wgt id="937">4.31201e-12</wgt>
  <wgt id="938">4.18219e-12</wgt>
  <wgt id="939">4.13548e-12</wgt>
  <wgt id="940">4.2857e-12</wgt>
  <wgt id="941">3.98808e-12</wgt>
  <wgt id="942">4.25626e-12</wgt>
  <wgt id="943">4.67253e-12</wgt>
  <wgt id="944">3.73372e-12</wgt>
  <wgt id="945">4.13756e-12</wgt>
  <wgt id="946">4.02203e-12</wgt>
  <wgt id="947">4.12307e-12</wgt>
  <wgt id="948">4.40202e-12</wgt>
  <wgt id="949">4.47289e-12</wgt>
  <wgt id="950">3.82078e-12</wgt>
  <wgt id="951">4.16027e-12</wgt>
  <wgt id="952">4.43746e-12</wgt>
  <wgt id="953">4.25245e-12</wgt>
  <wgt id="954">4.35177e-12</wgt>
  <wgt id="955">3.85433e-12</wgt>
  <wgt id="956">4.01523e-12</wgt>
  <wgt id="957">4.42475e-12</wgt>
  <wgt id="958">4.22772e-12</wgt>
  <wgt id="959">4.24601e-12</wgt>
  <wgt id="960">3.8745e-12</wgt>
  <wgt id="961">4.25349e-12</wgt>
  <wgt id="962">4.26747e-12</wgt>
  <wgt id="963">4.26707e-12</wgt>
  <wgt id="964">4.42942e-12</wgt>
  <wgt id="965">4.46006e-12</wgt>
  <wgt id="966">4.19017e-12</wgt>
  <wgt id="967">4.37737e-12</wgt>
  <wgt id="968">4.30645e-12</wgt>
  <wgt id="969">4.20109e-12</wgt>
  <wgt id="970">4.32353e-12</wgt>
  <wgt id="971">3.97213e-12</wgt>
  <wgt id="972">4.4683e-12</wgt>
  <wgt id="973">4.07326e-12</wgt>
  <wgt id="974">4.98401e-12</wgt>
  <wgt id="975">3.96588e-12</wgt>
  <wgt id="976">4.17657e-12</wgt>
  <wgt id="977">3.7551e-12</wgt>
  <wgt id="978">4.45569e-12</wgt>
  <wgt id="979">4.59893e-12</wgt>
  <wgt id="980">4.20786e-12</wgt>
  <wgt id="981">4.23411e-12</wgt>
  <wgt id="982">4.08839e-12</wgt>
</rwgt>
</event>
<event>
 5   1  0.3028200E-11  0.2458729E+04  0.7818608E-02  0.7657880E-01
       21   -1    0    0  502  501  0.00000000000E+00  0.00000000000E+00  0.11026565540E+04  0.11026565540E+04  0.00000000000E+00 0.  1.
       21   -1    0    0  501  502 -0.00000000000E+00 -0.00000000000E+00 -0.13706323259E+04  0.13706323259E+04  0.00000000000E+00 0. -1.
       39    2    1    2    0    0  0.00000000000E+00  0.00000000000E+00 -0.26797577198E+03  0.24732888799E+04  0.24587287099E+04 0.  0.
       25    1    3    3    0    0 -0.59868871696E+03 -0.10553772644E+04  0.20093489139E+02  0.12199500393E+04  0.12500000000E+03 0.  0.
       25    1    3    3    0    0  0.59868871696E+03  0.10553772644E+04 -0.28806926112E+03  0.12533388406E+04  0.12500000000E+03 0.  0.
<mgrwt>
<rscale>  0 0.24587287E+04</rscale>
<asrwt>0</asrwt>
<pdfrwt beam="1">  1       21 0.16963947E+00 0.24587287E+04</pdfrwt>
<pdfrwt beam="2">  1       21 0.21086651E+00 0.24587287E+04</pdfrwt>
<totfact> 0.86218752E+00</totfact>
</mgrwt>
<rwgt>
  <wgt id="1">3.0282e-12</wgt>
  <wgt id="2">2.6283e-12</wgt>
  <wgt id="3">3.52644e-12</wgt>
  <wgt id="4">3.0282e-12</wgt>
  <wgt id="5">2.6283e-12</wgt>
  <wgt id="6">3.52644e-12</wgt>
  <wgt id="7">3.0282e-12</wgt>
  <wgt id="8">2.6283e-12</wgt>
  <wgt id="9">3.52644e-12</wgt>
  <wgt id="10">3.14825e-12</wgt>
  <wgt id="11">3.14494e-12</wgt>
  <wgt id="12">3.14196e-12</wgt>
  <wgt id="13">3.13721e-12</wgt>
  <wgt id="14">3.1601e-12</wgt>
  <wgt id="15">3.15313e-12</wgt>
  <wgt id="16">3.14221e-12</wgt>
  <wgt id="17">3.15338e-12</wgt>
  <wgt id="18">3.14155e-12</wgt>
  <wgt id="19">3.15589e-12</wgt>
  <wgt id="20">3.1384e-12</wgt>
  <wgt id="21">3.1293e-12</wgt>
  <wgt id="22">3.13709e-12</wgt>
  <wgt id="23">3.11973e-12</wgt>
  <wgt id="24">3.13426e-12</wgt>
  <wgt id="25">3.14113e-12</wgt>
  <wgt id="26">3.16194e-12</wgt>
  <wgt id="27">3.14853e-12</wgt>
  <wgt id="28">3.13414e-12</wgt>
  <wgt id="29">3.15098e-12</wgt>
  <wgt id="30">3.14173e-12</wgt>
  <wgt id="31">3.15633e-12</wgt>
  <wgt id="32">3.14509e-12</wgt>
  <wgt id="33">3.15692e-12</wgt>
  <wgt id="34">3.13845e-12</wgt>
  <wgt id="35">3.14826e-12</wgt>
  <wgt id="36">3.1598e-12</wgt>
  <wgt id="37">3.14016e-12</wgt>
  <wgt id="38">3.13801e-12</wgt>
  <wgt id="39">3.17968e-12</wgt>
  <wgt id="40">3.15454e-12</wgt>
  <wgt id="41">3.14775e-12</wgt>
  <wgt id="42">3.15362e-12</wgt>
  <wgt id="43">3.14786e-12</wgt>
  <wgt id="44">3.13958e-12</wgt>
  <wgt id="45">3.15671e-12</wgt>
  <wgt id="46">3.15484e-12</wgt>
  <wgt id="47">3.13609e-12</wgt>
  <wgt id="48">3.14761e-12</wgt>
  <wgt id="49">3.15216e-12</wgt>
  <wgt id="50">3.16614e-12</wgt>
  <wgt id="51">3.16368e-12</wgt>
  <wgt id="52">3.148e-12</wgt>
  <wgt id="53">3.12157e-12</wgt>
  <wgt id="54">3.14036e-12</wgt>
  <wgt id="55">3.14823e-12</wgt>
  <wgt id="56">3.16033e-12</wgt>
  <wgt id="57">3.15884e-12</wgt>
  <wgt id="58">3.12551e-12</wgt>
  <wgt id="59">3.13611e-12</wgt>
  <wgt id="60">3.14948e-12</wgt>
  <wgt id="61">3.13811e-12</wgt>
  <wgt id="62">3.1458e-12</wgt>
  <wgt id="63">3.1505e-12</wgt>
  <wgt id="64">3.15174e-12</wgt>
  <wgt id="65">3.15223e-12</wgt>
  <wgt id="66">3.14346e-12</wgt>
  <wgt id="67">3.14059e-12</wgt>
  <wgt id="68">3.14473e-12</wgt>
  <wgt id="69">3.14831e-12</wgt>
  <wgt id="70">3.14588e-12</wgt>
  <wgt id="71">3.14835e-12</wgt>
  <wgt id="72">3.14422e-12</wgt>
  <wgt id="73">3.15021e-12</wgt>
  <wgt id="74">3.15079e-12</wgt>
  <wgt id="75">3.14487e-12</wgt>
  <wgt id="76">3.15747e-12</wgt>
  <wgt id="77">3.14769e-12</wgt>
  <wgt id="78">3.14887e-12</wgt>
  <wgt id="79">3.15475e-12</wgt>
  <wgt id="80">3.13433e-12</wgt>
  <wgt id="81">3.14428e-12</wgt>
  <wgt id="82">3.14826e-12</wgt>
  <wgt id="83">3.13495e-12</wgt>
  <wgt id="84">3.14133e-12</wgt>
  <wgt id="85">3.14151e-12</wgt>
  <wgt id="86">3.15691e-12</wgt>
  <wgt id="87">3.1306e-12</wgt>
  <wgt id="88">3.15244e-12</wgt>
  <wgt id="89">3.15148e-12</wgt>
  <wgt id="90">3.15336e-12</wgt>
  <wgt id="91">3.15078e-12</wgt>
  <wgt id="92">3.15464e-12</wgt>
  <wgt id="93">3.14799e-12</wgt>
  <wgt id="94">3.14492e-12</wgt>
  <wgt id="95">3.15085e-12</wgt>
  <wgt id="96">3.15077e-12</wgt>
  <wgt id="97">3.14347e-12</wgt>
  <wgt id="98">3.14968e-12</wgt>
  <wgt id="99">3.14641e-12</wgt>
  <wgt id="100">3.15136e-12</wgt>
  <wgt id="101">3.14703e-12</wgt>
  <wgt id="102">3.1446e-12</wgt>
  <wgt id="103">3.15314e-12</wgt>
  <wgt id="104">3.14582e-12</wgt>
  <wgt id="105">3.15167e-12</wgt>
  <wgt id="106">3.14374e-12</wgt>
  <wgt id="107">3.1572e-12</wgt>
  <wgt id="108">3.145e-12</wgt>
  <wgt id="109">3.14898e-12</wgt>
  <wgt id="110">3.14804e-12</wgt>
  <wgt id="111">3.17591e-12</wgt>
  <wgt id="112">3.14951e-12</wgt>
  <wgt id="113">4.30012e-12</wgt>
  <wgt id="114">4.41474e-12</wgt>
  <wgt id="115">4.35345e-12</wgt>
  <wgt id="116">6.21838e-12</wgt>
  <wgt id="117">3.53816e-12</wgt>
  <wgt id="118">3.55134e-12</wgt>
  <wgt id="119">3.53072e-12</wgt>
  <wgt id="120">3.53844e-12</wgt>
  <wgt id="121">3.53802e-12</wgt>
  <wgt id="122">3.5321e-12</wgt>
  <wgt id="123">3.5465e-12</wgt>
  <wgt id="124">3.53318e-12</wgt>
  <wgt id="125">3.5414e-12</wgt>
  <wgt id="126">3.54504e-12</wgt>
  <wgt id="127">3.53359e-12</wgt>
  <wgt id="128">3.54928e-12</wgt>
  <wgt id="129">3.52717e-12</wgt>
  <wgt id="130">3.559e-12</wgt>
  <wgt id="131">3.51685e-12</wgt>
  <wgt id="132">3.44399e-12</wgt>
  <wgt id="133">3.64992e-12</wgt>
  <wgt id="134">3.49894e-12</wgt>
  <wgt id="135">3.5689e-12</wgt>
  <wgt id="136">3.5854e-12</wgt>
  <wgt id="137">3.48104e-12</wgt>
  <wgt id="138">3.68077e-12</wgt>
  <wgt id="139">3.40081e-12</wgt>
  <wgt id="140">3.51523e-12</wgt>
  <wgt id="141">3.55602e-12</wgt>
  <wgt id="142">3.53859e-12</wgt>
  <wgt id="143">3.54372e-12</wgt>
  <wgt id="144">3.42966e-12</wgt>
  <wgt id="145">3.63975e-12</wgt>
  <wgt id="146">3.57293e-12</wgt>
  <wgt id="147">3.51045e-12</wgt>
  <wgt id="148">3.5496e-12</wgt>
  <wgt id="149">3.53737e-12</wgt>
  <wgt id="150">3.56948e-12</wgt>
  <wgt id="151">3.52354e-12</wgt>
  <wgt id="152">3.53999e-12</wgt>
  <wgt id="153">3.5375e-12</wgt>
  <wgt id="154">3.56462e-12</wgt>
  <wgt id="155">3.5061e-12</wgt>
  <wgt id="156">3.61674e-12</wgt>
  <wgt id="157">3.45805e-12</wgt>
  <wgt id="158">4.2551e-12</wgt>
  <wgt id="159">4.27299e-12</wgt>
  <wgt id="160">4.24081e-12</wgt>
  <wgt id="161">4.24388e-12</wgt>
  <wgt id="162">4.2678e-12</wgt>
  <wgt id="163">4.25027e-12</wgt>
  <wgt id="164">4.26244e-12</wgt>
  <wgt id="165">4.25674e-12</wgt>
  <wgt id="166">4.25393e-12</wgt>
  <wgt id="167">4.25205e-12</wgt>
  <wgt id="168">4.25951e-12</wgt>
  <wgt id="169">4.23715e-12</wgt>
  <wgt id="170">4.26651e-12</wgt>
  <wgt id="171">4.25023e-12</wgt>
  <wgt id="172">4.26211e-12</wgt>
  <wgt id="173">4.25425e-12</wgt>
  <wgt id="174">4.25539e-12</wgt>
  <wgt id="175">4.13211e-12</wgt>
  <wgt id="176">4.41598e-12</wgt>
  <wgt id="177">4.27899e-12</wgt>
  <wgt id="178">4.23329e-12</wgt>
  <wgt id="179">4.44153e-12</wgt>
  <wgt id="180">3.96214e-12</wgt>
  <wgt id="181">4.12634e-12</wgt>
  <wgt id="182">4.34025e-12</wgt>
  <wgt id="183">4.1766e-12</wgt>
  <wgt id="184">4.29422e-12</wgt>
  <wgt id="185">4.21955e-12</wgt>
  <wgt id="186">4.29905e-12</wgt>
  <wgt id="187">4.21586e-12</wgt>
  <wgt id="188">4.32622e-12</wgt>
  <wgt id="189">4.2265e-12</wgt>
  <wgt id="190">4.26691e-12</wgt>
  <wgt id="191">4.26734e-12</wgt>
  <wgt id="192">4.24795e-12</wgt>
  <wgt id="193">4.31875e-12</wgt>
  <wgt id="194">4.22383e-12</wgt>
  <wgt id="195">4.13747e-12</wgt>
  <wgt id="196">4.45869e-12</wgt>
  <wgt id="197">4.27721e-12</wgt>
  <wgt id="198">4.24999e-12</wgt>
  <wgt id="199">4.2551e-12</wgt>
  <wgt id="200">4.29267e-12</wgt>
  <wgt id="201">4.27914e-12</wgt>
  <wgt id="202">4.26582e-12</wgt>
  <wgt id="203">4.24595e-12</wgt>
  <wgt id="204">4.23649e-12</wgt>
  <wgt id="205">4.22887e-12</wgt>
  <wgt id="206">4.11577e-12</wgt>
  <wgt id="207">4.14004e-12</wgt>
  <wgt id="208">4.09184e-12</wgt>
  <wgt id="209">4.1296e-12</wgt>
  <wgt id="210">4.10578e-12</wgt>
  <wgt id="211">4.11419e-12</wgt>
  <wgt id="212">4.11716e-12</wgt>
  <wgt id="213">4.11548e-12</wgt>
  <wgt id="214">4.11635e-12</wgt>
  <wgt id="215">4.11905e-12</wgt>
  <wgt id="216">4.11344e-12</wgt>
  <wgt id="217">4.12796e-12</wgt>
  <wgt id="218">4.10635e-12</wgt>
  <wgt id="219">4.11237e-12</wgt>
  <wgt id="220">4.11797e-12</wgt>
  <wgt id="221">4.11415e-12</wgt>
  <wgt id="222">4.1197e-12</wgt>
  <wgt id="223">3.89263e-12</wgt>
  <wgt id="224">4.31941e-12</wgt>
  <wgt id="225">4.06462e-12</wgt>
  <wgt id="226">4.18023e-12</wgt>
  <wgt id="227">4.07599e-12</wgt>
  <wgt id="228">4.13328e-12</wgt>
  <wgt id="229">4.05732e-12</wgt>
  <wgt id="230">4.14497e-12</wgt>
  <wgt id="231">4.23692e-12</wgt>
  <wgt id="232">4.01645e-12</wgt>
  <wgt id="233">4.09358e-12</wgt>
  <wgt id="234">4.15123e-12</wgt>
  <wgt id="235">4.02127e-12</wgt>
  <wgt id="236">4.20116e-12</wgt>
  <wgt id="237">4.0536e-12</wgt>
  <wgt id="238">4.13704e-12</wgt>
  <wgt id="239">4.08917e-12</wgt>
  <wgt id="240">4.16393e-12</wgt>
  <wgt id="241">4.0725e-12</wgt>
  <wgt id="242">4.16828e-12</wgt>
  <wgt id="243">4.17375e-12</wgt>
  <wgt id="244">4.13371e-12</wgt>
  <wgt id="245">4.11337e-12</wgt>
  <wgt id="246">4.14497e-12</wgt>
  <wgt id="247">4.11577e-12</wgt>
  <wgt id="248">4.15222e-12</wgt>
  <wgt id="249">4.13828e-12</wgt>
  <wgt id="250">4.12549e-12</wgt>
  <wgt id="251">4.1061e-12</wgt>
  <wgt id="252">4.09707e-12</wgt>
  <wgt id="253">4.09057e-12</wgt>
  <wgt id="254">4.03229e-12</wgt>
  <wgt id="255">4.03605e-12</wgt>
  <wgt id="256">4.02797e-12</wgt>
  <wgt id="257">4.03512e-12</wgt>
  <wgt id="258">4.0301e-12</wgt>
  <wgt id="259">4.05925e-12</wgt>
  <wgt id="260">4.00615e-12</wgt>
  <wgt id="261">4.0388e-12</wgt>
  <wgt id="262">4.02429e-12</wgt>
  <wgt id="263">4.03016e-12</wgt>
  <wgt id="264">4.03456e-12</wgt>
  <wgt id="265">4.02721e-12</wgt>
  <wgt id="266">4.04222e-12</wgt>
  <wgt id="267">4.03358e-12</wgt>
  <wgt id="268">4.03029e-12</wgt>
  <wgt id="269">4.04595e-12</wgt>
  <wgt id="270">4.02294e-12</wgt>
  <wgt id="271">4.02532e-12</wgt>
  <wgt id="272">4.04007e-12</wgt>
  <wgt id="273">4.01932e-12</wgt>
  <wgt id="274">4.04201e-12</wgt>
  <wgt id="275">4.01475e-12</wgt>
  <wgt id="276">4.05029e-12</wgt>
  <wgt id="277">4.00871e-12</wgt>
  <wgt id="278">4.05382e-12</wgt>
  <wgt id="279">3.95242e-12</wgt>
  <wgt id="280">4.13229e-12</wgt>
  <wgt id="281">4.01373e-12</wgt>
  <wgt id="282">4.03336e-12</wgt>
  <wgt id="283">3.91356e-12</wgt>
  <wgt id="284">4.17848e-12</wgt>
  <wgt id="285">3.83595e-12</wgt>
  <wgt id="286">4.19488e-12</wgt>
  <wgt id="287">4.04512e-12</wgt>
  <wgt id="288">4.01572e-12</wgt>
  <wgt id="289">4.06112e-12</wgt>
  <wgt id="290">3.96525e-12</wgt>
  <wgt id="291">4.02062e-12</wgt>
  <wgt id="292">4.03483e-12</wgt>
  <wgt id="293">4.00039e-12</wgt>
  <wgt id="294">4.06377e-12</wgt>
  <wgt id="295">3.95443e-12</wgt>
  <wgt id="296">4.12713e-12</wgt>
  <wgt id="297">4.03084e-12</wgt>
  <wgt id="298">4.04858e-12</wgt>
  <wgt id="299">4.01876e-12</wgt>
  <wgt id="300">4.06754e-12</wgt>
  <wgt id="301">3.97033e-12</wgt>
  <wgt id="302">4.18377e-12</wgt>
  <wgt id="303">3.99907e-12</wgt>
  <wgt id="304">4.05115e-12</wgt>
  <wgt id="305">4.04132e-12</wgt>
  <wgt id="306">4.04564e-12</wgt>
  <wgt id="307">4.03686e-12</wgt>
  <wgt id="308">4.04469e-12</wgt>
  <wgt id="309">4.03925e-12</wgt>
  <wgt id="310">4.06948e-12</wgt>
  <wgt id="311">4.01541e-12</wgt>
  <wgt id="312">4.04704e-12</wgt>
  <wgt id="313">4.03559e-12</wgt>
  <wgt id="314">4.03946e-12</wgt>
  <wgt id="315">4.04332e-12</wgt>
  <wgt id="316">4.03653e-12</wgt>
  <wgt id="317">4.05192e-12</wgt>
  <wgt id="318">4.04458e-12</wgt>
  <wgt id="319">4.03606e-12</wgt>
  <wgt id="320">4.05582e-12</wgt>
  <wgt id="321">4.03342e-12</wgt>
  <wgt id="322">4.03244e-12</wgt>
  <wgt id="323">4.05191e-12</wgt>
  <wgt id="324">4.0307e-12</wgt>
  <wgt id="325">4.05081e-12</wgt>
  <wgt id="326">4.02739e-12</wgt>
  <wgt id="327">4.05934e-12</wgt>
  <wgt id="328">4.02038e-12</wgt>
  <wgt id="329">4.05326e-12</wgt>
  <wgt id="330">4.16349e-12</wgt>
  <wgt id="331">3.92511e-12</wgt>
  <wgt id="332">4.02587e-12</wgt>
  <wgt id="333">4.04185e-12</wgt>
  <wgt id="334">3.94829e-12</wgt>
  <wgt id="335">4.15716e-12</wgt>
  <wgt id="336">3.89888e-12</wgt>
  <wgt id="337">4.21498e-12</wgt>
  <wgt id="338">4.08707e-12</wgt>
  <wgt id="339">3.99919e-12</wgt>
  <wgt id="340">4.06868e-12</wgt>
  <wgt id="341">3.97143e-12</wgt>
  <wgt id="342">4.03314e-12</wgt>
  <wgt id="343">4.0374e-12</wgt>
  <wgt id="344">4.01265e-12</wgt>
  <wgt id="345">4.07476e-12</wgt>
  <wgt id="346">3.96064e-12</wgt>
  <wgt id="347">4.1345e-12</wgt>
  <wgt id="348">4.04144e-12</wgt>
  <wgt id="349">4.05527e-12</wgt>
  <wgt id="350">4.02459e-12</wgt>
  <wgt id="351">4.08394e-12</wgt>
  <wgt id="352">3.97312e-12</wgt>
  <wgt id="353">4.19933e-12</wgt>
  <wgt id="354">3.99085e-12</wgt>
  <wgt id="355">4.07207e-12</wgt>
  <wgt id="356">4.03229e-12</wgt>
  <wgt id="357">4.05714e-12</wgt>
  <wgt id="358">4.04132e-12</wgt>
  <wgt id="359">4.0455e-12</wgt>
  <wgt id="360">4.0627e-12</wgt>
  <wgt id="361">4.04579e-12</wgt>
  <wgt id="362">4.11818e-12</wgt>
  <wgt id="363">4.10787e-12</wgt>
  <wgt id="364">4.0932e-12</wgt>
  <wgt id="365">4.07893e-12</wgt>
  <wgt id="366">4.06319e-12</wgt>
  <wgt id="367">4.03095e-12</wgt>
  <wgt id="368">4.01319e-12</wgt>
  <wgt id="369">3.99393e-12</wgt>
  <wgt id="370">4.04579e-12</wgt>
  <wgt id="371">4.06414e-12</wgt>
  <wgt id="372">4.05405e-12</wgt>
  <wgt id="373">4.03909e-12</wgt>
  <wgt id="374">4.03814e-12</wgt>
  <wgt id="375">4.33591e-12</wgt>
  <wgt id="376">4.33649e-12</wgt>
  <wgt id="377">4.33504e-12</wgt>
  <wgt id="378">4.35167e-12</wgt>
  <wgt id="379">4.32004e-12</wgt>
  <wgt id="380">4.34731e-12</wgt>
  <wgt id="381">4.33125e-12</wgt>
  <wgt id="382">4.35925e-12</wgt>
  <wgt id="383">4.31264e-12</wgt>
  <wgt id="384">4.33871e-12</wgt>
  <wgt id="385">4.33313e-12</wgt>
  <wgt id="386">4.35404e-12</wgt>
  <wgt id="387">4.32791e-12</wgt>
  <wgt id="388">4.33151e-12</wgt>
  <wgt id="389">4.34093e-12</wgt>
  <wgt id="390">4.34806e-12</wgt>
  <wgt id="391">4.32301e-12</wgt>
  <wgt id="392">4.30067e-12</wgt>
  <wgt id="393">4.35582e-12</wgt>
  <wgt id="394">4.34198e-12</wgt>
  <wgt id="395">4.32743e-12</wgt>
  <wgt id="396">4.33952e-12</wgt>
  <wgt id="397">4.33332e-12</wgt>
  <wgt id="398">4.31596e-12</wgt>
  <wgt id="399">4.35517e-12</wgt>
  <wgt id="400">4.3281e-12</wgt>
  <wgt id="401">4.35329e-12</wgt>
  <wgt id="402">4.29916e-12</wgt>
  <wgt id="403">4.35246e-12</wgt>
  <wgt id="404">4.43933e-12</wgt>
  <wgt id="405">4.08684e-12</wgt>
  <wgt id="406">4.26176e-12</wgt>
  <wgt id="407">4.49689e-12</wgt>
  <wgt id="408">4.37395e-12</wgt>
  <wgt id="409">4.26317e-12</wgt>
  <wgt id="410">4.21459e-12</wgt>
  <wgt id="411">4.39222e-12</wgt>
  <wgt id="412">4.32793e-12</wgt>
  <wgt id="413">4.34778e-12</wgt>
  <wgt id="414">4.28733e-12</wgt>
  <wgt id="415">4.37354e-12</wgt>
  <wgt id="416">4.4556e-12</wgt>
  <wgt id="417">4.17062e-12</wgt>
  <wgt id="418">4.34185e-12</wgt>
  <wgt id="419">4.30383e-12</wgt>
  <wgt id="420">4.40754e-12</wgt>
  <wgt id="421">4.29377e-12</wgt>
  <wgt id="422">4.32653e-12</wgt>
  <wgt id="423">4.34099e-12</wgt>
  <wgt id="424">4.43019e-12</wgt>
  <wgt id="425">4.276e-12</wgt>
  <wgt id="426">4.33591e-12</wgt>
  <wgt id="427">4.29414e-12</wgt>
  <wgt id="428">4.45706e-12</wgt>
  <wgt id="429">4.37749e-12</wgt>
  <wgt id="430">4.50308e-12</wgt>
  <wgt id="431">4.47791e-12</wgt>
  <wgt id="432">4.45426e-12</wgt>
  <wgt id="433">4.43124e-12</wgt>
  <wgt id="434">4.40326e-12</wgt>
  <wgt id="435">4.34527e-12</wgt>
  <wgt id="436">4.3156e-12</wgt>
  <wgt id="437">4.28725e-12</wgt>
  <wgt id="438">4.37749e-12</wgt>
  <wgt id="439">4.39197e-12</wgt>
  <wgt id="440">4.38341e-12</wgt>
  <wgt id="441">4.37314e-12</wgt>
  <wgt id="442">4.36936e-12</wgt>
  <wgt id="443">4.22361e-12</wgt>
  <wgt id="444">4.2488e-12</wgt>
  <wgt id="445">4.20501e-12</wgt>
  <wgt id="446">4.19608e-12</wgt>
  <wgt id="447">4.20777e-12</wgt>
  <wgt id="448">4.10872e-12</wgt>
  <wgt id="449">4.29086e-12</wgt>
  <wgt id="450">4.20841e-12</wgt>
  <wgt id="451">4.21633e-12</wgt>
  <wgt id="452">4.32255e-12</wgt>
  <wgt id="453">4.267e-12</wgt>
  <wgt id="454">4.05297e-12</wgt>
  <wgt id="455">4.22866e-12</wgt>
  <wgt id="456">4.1887e-12</wgt>
  <wgt id="457">4.24225e-12</wgt>
  <wgt id="458">4.27296e-12</wgt>
  <wgt id="459">4.25246e-12</wgt>
  <wgt id="460">4.24708e-12</wgt>
  <wgt id="461">4.14184e-12</wgt>
  <wgt id="462">4.18651e-12</wgt>
  <wgt id="463">4.17605e-12</wgt>
  <wgt id="464">4.19768e-12</wgt>
  <wgt id="465">4.27066e-12</wgt>
  <wgt id="466">4.1729e-12</wgt>
  <wgt id="467">4.18033e-12</wgt>
  <wgt id="468">4.21144e-12</wgt>
  <wgt id="469">4.21044e-12</wgt>
  <wgt id="470">4.18524e-12</wgt>
  <wgt id="471">4.18423e-12</wgt>
  <wgt id="472">4.24445e-12</wgt>
  <wgt id="473">4.07863e-12</wgt>
  <wgt id="474">3.0282e-12</wgt>
  <wgt id="475">3.21373e-12</wgt>
  <wgt id="476">2.95605e-12</wgt>
  <wgt id="477">2.90908e-12</wgt>
  <wgt id="478">3.04228e-12</wgt>
  <wgt id="479">2.96173e-12</wgt>
  <wgt id="480">3.14577e-12</wgt>
  <wgt id="481">2.97115e-12</wgt>
  <wgt id="482">2.92052e-12</wgt>
  <wgt id="483">2.94685e-12</wgt>
  <wgt id="484">3.22698e-12</wgt>
  <wgt id="485">3.02249e-12</wgt>
  <wgt id="486">3.12096e-12</wgt>
  <wgt id="487">3.0946e-12</wgt>
  <wgt id="488">3.07504e-12</wgt>
  <wgt id="489">2.93066e-12</wgt>
  <wgt id="490">2.92848e-12</wgt>
  <wgt id="491">2.9938e-12</wgt>
  <wgt id="492">2.93592e-12</wgt>
  <wgt id="493">2.91109e-12</wgt>
  <wgt id="494">2.93619e-12</wgt>
  <wgt id="495">3.10049e-12</wgt>
  <wgt id="496">2.92899e-12</wgt>
  <wgt id="497">2.90452e-12</wgt>
  <wgt id="498">3.07615e-12</wgt>
  <wgt id="499">2.95459e-12</wgt>
  <wgt id="500">2.98264e-12</wgt>
  <wgt id="501">3.17249e-12</wgt>
  <wgt id="502">2.95573e-12</wgt>
  <wgt id="503">3.02805e-12</wgt>
  <wgt id="504">3.06222e-12</wgt>
  <wgt id="505">2.99986e-12</wgt>
  <wgt id="506">3.10615e-12</wgt>
  <wgt id="507">3.00295e-12</wgt>
  <wgt id="508">3.07135e-12</wgt>
  <wgt id="509">2.9412e-12</wgt>
  <wgt id="510">3.1154e-12</wgt>
  <wgt id="511">2.96919e-12</wgt>
  <wgt id="512">3.07996e-12</wgt>
  <wgt id="513">3.17542e-12</wgt>
  <wgt id="514">3.00894e-12</wgt>
  <wgt id="515">2.98706e-12</wgt>
  <wgt id="516">3.1188e-12</wgt>
  <wgt id="517">3.08975e-12</wgt>
  <wgt id="518">3.09531e-12</wgt>
  <wgt id="519">2.93446e-12</wgt>
  <wgt id="520">3.06449e-12</wgt>
  <wgt id="521">3.12966e-12</wgt>
  <wgt id="522">3.14716e-12</wgt>
  <wgt id="523">3.10186e-12</wgt>
  <wgt id="524">3.06981e-12</wgt>
  <wgt id="525">3.132e-12</wgt>
  <wgt id="526">3.04641e-12</wgt>
  <wgt id="527">3.06991e-12</wgt>
  <wgt id="528">3.05078e-12</wgt>
  <wgt id="529">2.96854e-12</wgt>
  <wgt id="530">3.0645e-12</wgt>
  <wgt id="531">2.99879e-12</wgt>
  <wgt id="532">3.20514e-12</wgt>
  <wgt id="533">2.84929e-12</wgt>
  <wgt id="534">3.04516e-12</wgt>
  <wgt id="535">3.09424e-12</wgt>
  <wgt id="536">3.00708e-12</wgt>
  <wgt id="537">3.03814e-12</wgt>
  <wgt id="538">3.05753e-12</wgt>
  <wgt id="539">2.97587e-12</wgt>
  <wgt id="540">2.96032e-12</wgt>
  <wgt id="541">2.93344e-12</wgt>
  <wgt id="542">2.98211e-12</wgt>
  <wgt id="543">3.02344e-12</wgt>
  <wgt id="544">3.17788e-12</wgt>
  <wgt id="545">2.98937e-12</wgt>
  <wgt id="546">2.98621e-12</wgt>
  <wgt id="547">2.9348e-12</wgt>
  <wgt id="548">2.90415e-12</wgt>
  <wgt id="549">2.97216e-12</wgt>
  <wgt id="550">2.99608e-12</wgt>
  <wgt id="551">3.05522e-12</wgt>
  <wgt id="552">2.99948e-12</wgt>
  <wgt id="553">3.01837e-12</wgt>
  <wgt id="554">3.25046e-12</wgt>
  <wgt id="555">3.10208e-12</wgt>
  <wgt id="556">2.92848e-12</wgt>
  <wgt id="557">3.08097e-12</wgt>
  <wgt id="558">2.93058e-12</wgt>
  <wgt id="559">2.98544e-12</wgt>
  <wgt id="560">3.28906e-12</wgt>
  <wgt id="561">2.97342e-12</wgt>
  <wgt id="562">3.0816e-12</wgt>
  <wgt id="563">2.93694e-12</wgt>
  <wgt id="564">3.03264e-12</wgt>
  <wgt id="565">2.90808e-12</wgt>
  <wgt id="566">3.0835e-12</wgt>
  <wgt id="567">2.98733e-12</wgt>
  <wgt id="568">3.01149e-12</wgt>
  <wgt id="569">3.09714e-12</wgt>
  <wgt id="570">2.92384e-12</wgt>
  <wgt id="571">3.36006e-12</wgt>
  <wgt id="572">2.95588e-12</wgt>
  <wgt id="573">2.89419e-12</wgt>
  <wgt id="574">2.91962e-12</wgt>
  <wgt id="575">3.34235e-12</wgt>
  <wgt id="576">3.32401e-12</wgt>
  <wgt id="577">3.42352e-12</wgt>
  <wgt id="578">3.44011e-12</wgt>
  <wgt id="579">3.40853e-12</wgt>
  <wgt id="580">3.41328e-12</wgt>
  <wgt id="581">3.56608e-12</wgt>
  <wgt id="582">3.31644e-12</wgt>
  <wgt id="583">3.38096e-12</wgt>
  <wgt id="584">3.34782e-12</wgt>
  <wgt id="585">3.36424e-12</wgt>
  <wgt id="586">3.26747e-12</wgt>
  <wgt id="587">3.39405e-12</wgt>
  <wgt id="588">3.32728e-12</wgt>
  <wgt id="589">3.41815e-12</wgt>
  <wgt id="590">3.40141e-12</wgt>
  <wgt id="591">3.4662e-12</wgt>
  <wgt id="592">3.26402e-12</wgt>
  <wgt id="593">3.32832e-12</wgt>
  <wgt id="594">3.43065e-12</wgt>
  <wgt id="595">3.33362e-12</wgt>
  <wgt id="596">3.36601e-12</wgt>
  <wgt id="597">3.24843e-12</wgt>
  <wgt id="598">3.2313e-12</wgt>
  <wgt id="599">3.52348e-12</wgt>
  <wgt id="600">3.30973e-12</wgt>
  <wgt id="601">3.24919e-12</wgt>
  <wgt id="602">3.26705e-12</wgt>
  <wgt id="603">3.27217e-12</wgt>
  <wgt id="604">3.39404e-12</wgt>
  <wgt id="605">3.47732e-12</wgt>
  <wgt id="606">3.27121e-12</wgt>
  <wgt id="607">3.30266e-12</wgt>
  <wgt id="608">3.37948e-12</wgt>
  <wgt id="609">3.16594e-12</wgt>
  <wgt id="610">3.21829e-12</wgt>
  <wgt id="611">3.36748e-12</wgt>
  <wgt id="612">3.5666e-12</wgt>
  <wgt id="613">3.33056e-12</wgt>
  <wgt id="614">3.38874e-12</wgt>
  <wgt id="615">3.27411e-12</wgt>
  <wgt id="616">3.51966e-12</wgt>
  <wgt id="617">3.47127e-12</wgt>
  <wgt id="618">3.426e-12</wgt>
  <wgt id="619">3.29618e-12</wgt>
  <wgt id="620">3.49899e-12</wgt>
  <wgt id="621">3.38858e-12</wgt>
  <wgt id="622">3.39405e-12</wgt>
  <wgt id="623">3.44224e-12</wgt>
  <wgt id="624">3.33567e-12</wgt>
  <wgt id="625">3.30278e-12</wgt>
  <wgt id="626">3.25523e-12</wgt>
  <wgt id="627">3.20447e-12</wgt>
  <wgt id="628">3.54217e-12</wgt>
  <wgt id="629">3.26334e-12</wgt>
  <wgt id="630">3.20778e-12</wgt>
  <wgt id="631">3.3646e-12</wgt>
  <wgt id="632">3.2171e-12</wgt>
  <wgt id="633">3.30718e-12</wgt>
  <wgt id="634">3.32646e-12</wgt>
  <wgt id="635">3.25856e-12</wgt>
  <wgt id="636">3.36172e-12</wgt>
  <wgt id="637">3.323e-12</wgt>
  <wgt id="638">3.20887e-12</wgt>
  <wgt id="639">3.2935e-12</wgt>
  <wgt id="640">3.34156e-12</wgt>
  <wgt id="641">3.36863e-12</wgt>
  <wgt id="642">3.17927e-12</wgt>
  <wgt id="643">3.3195e-12</wgt>
  <wgt id="644">3.20339e-12</wgt>
  <wgt id="645">3.37749e-12</wgt>
  <wgt id="646">3.38224e-12</wgt>
  <wgt id="647">3.30407e-12</wgt>
  <wgt id="648">3.36369e-12</wgt>
  <wgt id="649">3.39385e-12</wgt>
  <wgt id="650">3.27831e-12</wgt>
  <wgt id="651">3.35169e-12</wgt>
  <wgt id="652">3.31293e-12</wgt>
  <wgt id="653">3.24577e-12</wgt>
  <wgt id="654">3.32169e-12</wgt>
  <wgt id="655">3.29455e-12</wgt>
  <wgt id="656">3.37245e-12</wgt>
  <wgt id="657">3.47999e-12</wgt>
  <wgt id="658">3.34118e-12</wgt>
  <wgt id="659">3.20764e-12</wgt>
  <wgt id="660">3.40797e-12</wgt>
  <wgt id="661">3.28429e-12</wgt>
  <wgt id="662">3.34708e-12</wgt>
  <wgt id="663">3.34569e-12</wgt>
  <wgt id="664">3.29542e-12</wgt>
  <wgt id="665">3.33226e-12</wgt>
  <wgt id="666">3.30899e-12</wgt>
  <wgt id="667">3.44693e-12</wgt>
  <wgt id="668">3.34171e-12</wgt>
  <wgt id="669">3.42219e-12</wgt>
  <wgt id="670">3.41745e-12</wgt>
  <wgt id="671">3.31944e-12</wgt>
  <wgt id="672">3.20257e-12</wgt>
  <wgt id="673">3.35725e-12</wgt>
  <wgt id="674">3.28007e-12</wgt>
  <wgt id="675">3.3034e-12</wgt>
  <wgt id="676">4.23946e-12</wgt>
  <wgt id="677">4.28285e-12</wgt>
  <wgt id="678">4.44605e-12</wgt>
  <wgt id="679">3.94925e-12</wgt>
  <wgt id="680">4.14979e-12</wgt>
  <wgt id="681">4.32621e-12</wgt>
  <wgt id="682">4.38285e-12</wgt>
  <wgt id="683">4.17532e-12</wgt>
  <wgt id="684">4.43636e-12</wgt>
  <wgt id="685">4.0133e-12</wgt>
  <wgt id="686">4.13827e-12</wgt>
  <wgt id="687">4.45937e-12</wgt>
  <wgt id="688">4.23092e-12</wgt>
  <wgt id="689">4.60622e-12</wgt>
  <wgt id="690">4.45198e-12</wgt>
  <wgt id="691">4.51484e-12</wgt>
  <wgt id="692">4.18336e-12</wgt>
  <wgt id="693">5.00738e-12</wgt>
  <wgt id="694">4.4967e-12</wgt>
  <wgt id="695">4.10936e-12</wgt>
  <wgt id="696">4.00204e-12</wgt>
  <wgt id="697">4.13386e-12</wgt>
  <wgt id="698">3.86835e-12</wgt>
  <wgt id="699">3.8437e-12</wgt>
  <wgt id="700">3.67805e-12</wgt>
  <wgt id="701">4.2573e-12</wgt>
  <wgt id="702">4.10658e-12</wgt>
  <wgt id="703">4.88798e-12</wgt>
  <wgt id="704">4.65049e-12</wgt>
  <wgt id="705">4.43429e-12</wgt>
  <wgt id="706">3.94463e-12</wgt>
  <wgt id="707">4.0664e-12</wgt>
  <wgt id="708">4.18242e-12</wgt>
  <wgt id="709">4.16353e-12</wgt>
  <wgt id="710">3.80353e-12</wgt>
  <wgt id="711">4.20906e-12</wgt>
  <wgt id="712">4.16199e-12</wgt>
  <wgt id="713">4.61066e-12</wgt>
  <wgt id="714">4.16024e-12</wgt>
  <wgt id="715">4.19706e-12</wgt>
  <wgt id="716">4.07147e-12</wgt>
  <wgt id="717">4.0335e-12</wgt>
  <wgt id="718">4.24187e-12</wgt>
  <wgt id="719">3.83723e-12</wgt>
  <wgt id="720">3.97838e-12</wgt>
  <wgt id="721">3.87364e-12</wgt>
  <wgt id="722">3.73735e-12</wgt>
  <wgt id="723">4.53526e-12</wgt>
  <wgt id="724">4.45047e-12</wgt>
  <wgt id="725">4.47497e-12</wgt>
  <wgt id="726">4.2799e-12</wgt>
  <wgt id="727">4.13881e-12</wgt>
  <wgt id="728">4.13513e-12</wgt>
  <wgt id="729">3.85358e-12</wgt>
  <wgt id="730">4.60479e-12</wgt>
  <wgt id="731">4.18432e-12</wgt>
  <wgt id="732">4.67143e-12</wgt>
  <wgt id="733">4.23682e-12</wgt>
  <wgt id="734">4.34527e-12</wgt>
  <wgt id="735">4.21987e-12</wgt>
  <wgt id="736">4.15066e-12</wgt>
  <wgt id="737">4.31139e-12</wgt>
  <wgt id="738">4.0068e-12</wgt>
  <wgt id="739">4.31997e-12</wgt>
  <wgt id="740">4.72218e-12</wgt>
  <wgt id="741">3.77458e-12</wgt>
  <wgt id="742">4.16957e-12</wgt>
  <wgt id="743">4.02763e-12</wgt>
  <wgt id="744">4.15189e-12</wgt>
  <wgt id="745">4.44804e-12</wgt>
  <wgt id="746">4.52765e-12</wgt>
  <wgt id="747">3.81755e-12</wgt>
  <wgt id="748">4.19139e-12</wgt>
  <wgt id="749">4.46239e-12</wgt>
  <wgt id="750">4.3297e-12</wgt>
  <wgt id="751">4.37268e-12</wgt>
  <wgt id="752">3.87174e-12</wgt>
  <wgt id="753">4.03046e-12</wgt>
  <wgt id="754">4.46702e-12</wgt>
  <wgt id="755">4.25183e-12</wgt>
  <wgt id="756">4.27097e-12</wgt>
  <wgt id="757">3.88454e-12</wgt>
  <wgt id="758">4.27324e-12</wgt>
  <wgt id="759">4.34693e-12</wgt>
  <wgt id="760">4.28364e-12</wgt>
  <wgt id="761">4.46849e-12</wgt>
  <wgt id="762">4.50521e-12</wgt>
  <wgt id="763">4.21493e-12</wgt>
  <wgt id="764">4.41737e-12</wgt>
  <wgt id="765">4.33785e-12</wgt>
  <wgt id="766">4.23552e-12</wgt>
  <wgt id="767">4.35622e-12</wgt>
  <wgt id="768">3.98716e-12</wgt>
  <wgt id="769">4.50613e-12</wgt>
  <wgt id="770">4.10726e-12</wgt>
  <wgt id="771">5.04188e-12</wgt>
  <wgt id="772">4.00197e-12</wgt>
  <wgt id="773">4.20239e-12</wgt>
  <wgt id="774">3.74531e-12</wgt>
  <wgt id="775">4.4917e-12</wgt>
  <wgt id="776">4.63692e-12</wgt>
  <wgt id="777">4.00148e-12</wgt>
  <wgt id="778">3.09449e-12</wgt>
  <wgt id="779">2.53624e-12</wgt>
  <wgt id="780">2.01969e-12</wgt>
  <wgt id="781">3.18709e-12</wgt>
  <wgt id="782">3.28525e-12</wgt>
  <wgt id="783">2.55727e-12</wgt>
  <wgt id="784">2.67369e-12</wgt>
  <wgt id="785">3.80371e-12</wgt>
  <wgt id="786">2.35804e-12</wgt>
  <wgt id="787">3.56618e-12</wgt>
  <wgt id="788">1.87143e-12</wgt>
  <wgt id="789">2.44948e-12</wgt>
  <wgt id="790">2.31853e-12</wgt>
  <wgt id="791">2.90867e-12</wgt>
  <wgt id="792">4.05897e-12</wgt>
  <wgt id="793">3.03075e-12</wgt>
  <wgt id="794">2.30697e-12</wgt>
  <wgt id="795">3.69252e-12</wgt>
  <wgt id="796">4.11577e-12</wgt>
  <wgt id="797">3.63665e-12</wgt>
  <wgt id="798">2.825e-12</wgt>
  <wgt id="799">3.55982e-12</wgt>
  <wgt id="800">2.47966e-12</wgt>
  <wgt id="801">2.86762e-12</wgt>
  <wgt id="802">2.31812e-12</wgt>
  <wgt id="803">4.03776e-12</wgt>
  <wgt id="804">3.66089e-12</wgt>
  <wgt id="805">3.72823e-12</wgt>
  <wgt id="806">3.45633e-12</wgt>
  <wgt id="807">2.93067e-12</wgt>
  <wgt id="808">3.00391e-12</wgt>
  <wgt id="809">2.84148e-12</wgt>
  <wgt id="810">3.52172e-12</wgt>
  <wgt id="811">3.39705e-12</wgt>
  <wgt id="812">2.29017e-12</wgt>
  <wgt id="813">2.35907e-12</wgt>
  <wgt id="814">2.65314e-12</wgt>
  <wgt id="815">2.5397e-12</wgt>
  <wgt id="816">2.2126e-12</wgt>
  <wgt id="817">3.24585e-12</wgt>
  <wgt id="818">3.10264e-12</wgt>
  <wgt id="819">2.52854e-12</wgt>
  <wgt id="820">3.09477e-12</wgt>
  <wgt id="821">3.60962e-12</wgt>
  <wgt id="822">2.5102e-12</wgt>
  <wgt id="823">3.64053e-12</wgt>
  <wgt id="824">4.20529e-12</wgt>
  <wgt id="825">2.22907e-12</wgt>
  <wgt id="826">3.31368e-12</wgt>
  <wgt id="827">1.81286e-12</wgt>
  <wgt id="828">3.98068e-12</wgt>
  <wgt id="829">3.24169e-12</wgt>
  <wgt id="830">2.10886e-12</wgt>
  <wgt id="831">3.36302e-12</wgt>
  <wgt id="832">5.18331e-12</wgt>
  <wgt id="833">2.84925e-12</wgt>
  <wgt id="834">4.8321e-12</wgt>
  <wgt id="835">2.48325e-12</wgt>
  <wgt id="836">3.05619e-12</wgt>
  <wgt id="837">3.56116e-12</wgt>
  <wgt id="838">2.94124e-12</wgt>
  <wgt id="839">3.33614e-12</wgt>
  <wgt id="840">2.86232e-12</wgt>
  <wgt id="841">3.89328e-12</wgt>
  <wgt id="842">2.77492e-12</wgt>
  <wgt id="843">3.06473e-12</wgt>
  <wgt id="844">3.25789e-12</wgt>
  <wgt id="845">4.44805e-12</wgt>
  <wgt id="846">2.89067e-12</wgt>
  <wgt id="847">3.16732e-12</wgt>
  <wgt id="848">2.62064e-12</wgt>
  <wgt id="849">3.18613e-12</wgt>
  <wgt id="850">4.1261e-12</wgt>
  <wgt id="851">3.41836e-12</wgt>
  <wgt id="852">2.60485e-12</wgt>
  <wgt id="853">3.43164e-12</wgt>
  <wgt id="854">3.82306e-12</wgt>
  <wgt id="855">3.6586e-12</wgt>
  <wgt id="856">2.16616e-12</wgt>
  <wgt id="857">3.08323e-12</wgt>
  <wgt id="858">3.07025e-12</wgt>
  <wgt id="859">2.86526e-12</wgt>
  <wgt id="860">3.38516e-12</wgt>
  <wgt id="861">2.67458e-12</wgt>
  <wgt id="862">3.16676e-12</wgt>
  <wgt id="863">3.31024e-12</wgt>
  <wgt id="864">3.32369e-12</wgt>
  <wgt id="865">4.55426e-12</wgt>
  <wgt id="866">4.98219e-12</wgt>
  <wgt id="867">3.18857e-12</wgt>
  <wgt id="868">3.09056e-12</wgt>
  <wgt id="869">2.35349e-12</wgt>
  <wgt id="870">2.47644e-12</wgt>
  <wgt id="871">2.39875e-12</wgt>
  <wgt id="872">3.77191e-12</wgt>
  <wgt id="873">2.50893e-12</wgt>
  <wgt id="874">3.28728e-12</wgt>
  <wgt id="875">2.6713e-12</wgt>
  <wgt id="876">3.78256e-12</wgt>
  <wgt id="877">3.60747e-12</wgt>
  <wgt id="878">2.60786e-12</wgt>
  <wgt id="879">4.23946e-12</wgt>
  <wgt id="880">4.28285e-12</wgt>
  <wgt id="881">4.44605e-12</wgt>
  <wgt id="882">3.94925e-12</wgt>
  <wgt id="883">4.14979e-12</wgt>
  <wgt id="884">4.32621e-12</wgt>
  <wgt id="885">4.38285e-12</wgt>
  <wgt id="886">4.17532e-12</wgt>
  <wgt id="887">4.43636e-12</wgt>
  <wgt id="888">4.0133e-12</wgt>
  <wgt id="889">4.13827e-12</wgt>
  <wgt id="890">4.45937e-12</wgt>
  <wgt id="891">4.23092e-12</wgt>
  <wgt id="892">4.60622e-12</wgt>
  <wgt id="893">4.45198e-12</wgt>
  <wgt id="894">4.51484e-12</wgt>
  <wgt id="895">4.18336e-12</wgt>
  <wgt id="896">5.00738e-12</wgt>
  <wgt id="897">4.4967e-12</wgt>
  <wgt id="898">4.10936e-12</wgt>
  <wgt id="899">4.00204e-12</wgt>
  <wgt id="900">4.13386e-12</wgt>
  <wgt id="901">3.86835e-12</wgt>
  <wgt id="902">3.8437e-12</wgt>
  <wgt id="903">3.67805e-12</wgt>
  <wgt id="904">4.2573e-12</wgt>
  <wgt id="905">4.10658e-12</wgt>
  <wgt id="906">4.88798e-12</wgt>
  <wgt id="907">4.65049e-12</wgt>
  <wgt id="908">4.43429e-12</wgt>
  <wgt id="909">3.94463e-12</wgt>
  <wgt id="910">4.0664e-12</wgt>
  <wgt id="911">4.18242e-12</wgt>
  <wgt id="912">4.16353e-12</wgt>
  <wgt id="913">3.80353e-12</wgt>
  <wgt id="914">4.20906e-12</wgt>
  <wgt id="915">4.16199e-12</wgt>
  <wgt id="916">4.61066e-12</wgt>
  <wgt id="917">4.16024e-12</wgt>
  <wgt id="918">4.19706e-12</wgt>
  <wgt id="919">4.07147e-12</wgt>
  <wgt id="920">4.0335e-12</wgt>
  <wgt id="921">4.24187e-12</wgt>
  <wgt id="922">3.83723e-12</wgt>
  <wgt id="923">3.97838e-12</wgt>
  <wgt id="924">3.87364e-12</wgt>
  <wgt id="925">3.73735e-12</wgt>
  <wgt id="926">4.53526e-12</wgt>
  <wgt id="927">4.45047e-12</wgt>
  <wgt id="928">4.47497e-12</wgt>
  <wgt id="929">4.2799e-12</wgt>
  <wgt id="930">4.13881e-12</wgt>
  <wgt id="931">4.13513e-12</wgt>
  <wgt id="932">3.85358e-12</wgt>
  <wgt id="933">4.60479e-12</wgt>
  <wgt id="934">4.18432e-12</wgt>
  <wgt id="935">4.67143e-12</wgt>
  <wgt id="936">4.23682e-12</wgt>
  <wgt id="937">4.34527e-12</wgt>
  <wgt id="938">4.21987e-12</wgt>
  <wgt id="939">4.15066e-12</wgt>
  <wgt id="940">4.31139e-12</wgt>
  <wgt id="941">4.0068e-12</wgt>
  <wgt id="942">4.31997e-12</wgt>
  <wgt id="943">4.72218e-12</wgt>
  <wgt id="944">3.77458e-12</wgt>
  <wgt id="945">4.16957e-12</wgt>
  <wgt id="946">4.02763e-12</wgt>
  <wgt id="947">4.15189e-12</wgt>
  <wgt id="948">4.44804e-12</wgt>
  <wgt id="949">4.52765e-12</wgt>
  <wgt id="950">3.81755e-12</wgt>
  <wgt id="951">4.19139e-12</wgt>
  <wgt id="952">4.46239e-12</wgt>
  <wgt id="953">4.3297e-12</wgt>
  <wgt id="954">4.37268e-12</wgt>
  <wgt id="955">3.87174e-12</wgt>
  <wgt id="956">4.03046e-12</wgt>
  <wgt id="957">4.46702e-12</wgt>
  <wgt id="958">4.25183e-12</wgt>
  <wgt id="959">4.27097e-12</wgt>
  <wgt id="960">3.88454e-12</wgt>
  <wgt id="961">4.27324e-12</wgt>
  <wgt id="962">4.34693e-12</wgt>
  <wgt id="963">4.28364e-12</wgt>
  <wgt id="964">4.46849e-12</wgt>
  <wgt id="965">4.50521e-12</wgt>
  <wgt id="966">4.21493e-12</wgt>
  <wgt id="967">4.41737e-12</wgt>
  <wgt id="968">4.33785e-12</wgt>
  <wgt id="969">4.23552e-12</wgt>
  <wgt id="970">4.35622e-12</wgt>
  <wgt id="971">3.98716e-12</wgt>
  <wgt id="972">4.50613e-12</wgt>
  <wgt id="973">4.10726e-12</wgt>
  <wgt id="974">5.04188e-12</wgt>
  <wgt id="975">4.00197e-12</wgt>
  <wgt id="976">4.20239e-12</wgt>
  <wgt id="977">3.74531e-12</wgt>
  <wgt id="978">4.4917e-12</wgt>
  <wgt id="979">4.63692e-12</wgt>
  <wgt id="980">4.23495e-12</wgt>
  <wgt id="981">4.2685e-12</wgt>
  <wgt id="982">4.11561e-12</wgt>
</rwgt>
</event>
<event>
 5   1  0.3028200E-11  0.2481027E+04  0.7818608E-02  0.7650590E-01
       21   -1    0    0  502  501  0.00000000000E+00  0.00000000000E+00  0.11966307812E+04  0.11966307812E+04  0.00000000000E+00 0.  1.
       21   -1    0    0  501  502 -0.00000000000E+00 -0.00000000000E+00 -0.12860056647E+04  0.12860056647E+04  0.00000000000E+00 0. -1.
       39    2    1    2    0    0  0.00000000000E+00  0.00000000000E+00 -0.89374883478E+02  0.24826364458E+04  0.24810271769E+04 0.  0.
       25    1    3    3    0    0  0.12153559498E+04  0.34481512182E+02 -0.25688607584E+03  0.12489573713E+04  0.12500000000E+03 0.  0.
       25    1    3    3    0    0 -0.12153559498E+04 -0.34481512182E+02  0.16751119236E+03  0.12336790745E+04  0.12500000000E+03 0.  0.
<mgrwt>
<rscale>  0 0.24810272E+04</rscale>
<asrwt>0</asrwt>
<pdfrwt beam="1">  1       21 0.18409704E+00 0.24810272E+04</pdfrwt>
<pdfrwt beam="2">  1       21 0.19784702E+00 0.24810272E+04</pdfrwt>
<totfact> 0.82310280E+00</totfact>
</mgrwt>
<rwgt>
  <wgt id="1">3.0282e-12</wgt>
  <wgt id="2">2.62742e-12</wgt>
  <wgt id="3">3.52779e-12</wgt>
  <wgt id="4">3.0282e-12</wgt>
  <wgt id="5">2.62742e-12</wgt>
  <wgt id="6">3.52779e-12</wgt>
  <wgt id="7">3.0282e-12</wgt>
  <wgt id="8">2.62742e-12</wgt>
  <wgt id="9">3.52779e-12</wgt>
  <wgt id="10">3.14901e-12</wgt>
  <wgt id="11">3.14548e-12</wgt>
  <wgt id="12">3.14269e-12</wgt>
  <wgt id="13">3.1378e-12</wgt>
  <wgt id="14">3.16095e-12</wgt>
  <wgt id="15">3.15389e-12</wgt>
  <wgt id="16">3.14291e-12</wgt>
  <wgt id="17">3.15367e-12</wgt>
  <wgt id="18">3.14214e-12</wgt>
  <wgt id="19">3.15669e-12</wgt>
  <wgt id="20">3.13878e-12</wgt>
  <wgt id="21">3.13039e-12</wgt>
  <wgt id="22">3.13845e-12</wgt>
  <wgt id="23">3.12107e-12</wgt>
  <wgt id="24">3.13537e-12</wgt>
  <wgt id="25">3.14216e-12</wgt>
  <wgt id="26">3.16312e-12</wgt>
  <wgt id="27">3.14961e-12</wgt>
  <wgt id="28">3.13513e-12</wgt>
  <wgt id="29">3.15172e-12</wgt>
  <wgt id="30">3.14342e-12</wgt>
  <wgt id="31">3.15652e-12</wgt>
  <wgt id="32">3.14668e-12</wgt>
  <wgt id="33">3.15791e-12</wgt>
  <wgt id="34">3.13977e-12</wgt>
  <wgt id="35">3.15004e-12</wgt>
  <wgt id="36">3.16067e-12</wgt>
  <wgt id="37">3.14104e-12</wgt>
  <wgt id="38">3.13858e-12</wgt>
  <wgt id="39">3.17933e-12</wgt>
  <wgt id="40">3.15555e-12</wgt>
  <wgt id="41">3.14873e-12</wgt>
  <wgt id="42">3.15423e-12</wgt>
  <wgt id="43">3.14849e-12</wgt>
  <wgt id="44">3.1401e-12</wgt>
  <wgt id="45">3.15777e-12</wgt>
  <wgt id="46">3.15651e-12</wgt>
  <wgt id="47">3.13556e-12</wgt>
  <wgt id="48">3.14792e-12</wgt>
  <wgt id="49">3.15372e-12</wgt>
  <wgt id="50">3.16864e-12</wgt>
  <wgt id="51">3.16617e-12</wgt>
  <wgt id="52">3.1488e-12</wgt>
  <wgt id="53">3.12002e-12</wgt>
  <wgt id="54">3.14032e-12</wgt>
  <wgt id="55">3.14906e-12</wgt>
  <wgt id="56">3.16138e-12</wgt>
  <wgt id="57">3.16026e-12</wgt>
  <wgt id="58">3.12508e-12</wgt>
  <wgt id="59">3.13622e-12</wgt>
  <wgt id="60">3.15045e-12</wgt>
  <wgt id="61">3.13961e-12</wgt>
  <wgt id="62">3.14725e-12</wgt>
  <wgt id="63">3.15196e-12</wgt>
  <wgt id="64">3.1529e-12</wgt>
  <wgt id="65">3.15313e-12</wgt>
  <wgt id="66">3.14406e-12</wgt>
  <wgt id="67">3.14216e-12</wgt>
  <wgt id="68">3.14517e-12</wgt>
  <wgt id="69">3.14915e-12</wgt>
  <wgt id="70">3.14618e-12</wgt>
  <wgt id="71">3.14959e-12</wgt>
  <wgt id="72">3.14566e-12</wgt>
  <wgt id="73">3.15046e-12</wgt>
  <wgt id="74">3.15174e-12</wgt>
  <wgt id="75">3.14543e-12</wgt>
  <wgt id="76">3.15835e-12</wgt>
  <wgt id="77">3.14865e-12</wgt>
  <wgt id="78">3.14997e-12</wgt>
  <wgt id="79">3.15519e-12</wgt>
  <wgt id="80">3.13497e-12</wgt>
  <wgt id="81">3.14455e-12</wgt>
  <wgt id="82">3.14894e-12</wgt>
  <wgt id="83">3.13545e-12</wgt>
  <wgt id="84">3.14153e-12</wgt>
  <wgt id="85">3.14234e-12</wgt>
  <wgt id="86">3.15745e-12</wgt>
  <wgt id="87">3.13121e-12</wgt>
  <wgt id="88">3.15343e-12</wgt>
  <wgt id="89">3.15237e-12</wgt>
  <wgt id="90">3.15359e-12</wgt>
  <wgt id="91">3.15136e-12</wgt>
  <wgt id="92">3.1554e-12</wgt>
  <wgt id="93">3.14818e-12</wgt>
  <wgt id="94">3.14559e-12</wgt>
  <wgt id="95">3.15084e-12</wgt>
  <wgt id="96">3.15144e-12</wgt>
  <wgt id="97">3.14461e-12</wgt>
  <wgt id="98">3.15035e-12</wgt>
  <wgt id="99">3.14819e-12</wgt>
  <wgt id="100">3.15172e-12</wgt>
  <wgt id="101">3.14716e-12</wgt>
  <wgt id="102">3.14499e-12</wgt>
  <wgt id="103">3.15407e-12</wgt>
  <wgt id="104">3.1463e-12</wgt>
  <wgt id="105">3.1521e-12</wgt>
  <wgt id="106">3.14464e-12</wgt>
  <wgt id="107">3.15771e-12</wgt>
  <wgt id="108">3.14602e-12</wgt>
  <wgt id="109">3.14964e-12</wgt>
  <wgt id="110">3.1487e-12</wgt>
  <wgt id="111">3.17637e-12</wgt>
  <wgt id="112">3.14933e-12</wgt>
  <wgt id="113">4.30378e-12</wgt>
  <wgt id="114">4.42611e-12</wgt>
  <wgt id="115">4.36537e-12</wgt>
  <wgt id="116">6.25892e-12</wgt>
  <wgt id="117">3.54359e-12</wgt>
  <wgt id="118">3.55692e-12</wgt>
  <wgt id="119">3.53623e-12</wgt>
  <wgt id="120">3.54393e-12</wgt>
  <wgt id="121">3.54347e-12</wgt>
  <wgt id="122">3.53769e-12</wgt>
  <wgt id="123">3.55198e-12</wgt>
  <wgt id="124">3.53864e-12</wgt>
  <wgt id="125">3.54694e-12</wgt>
  <wgt id="126">3.55063e-12</wgt>
  <wgt id="127">3.53896e-12</wgt>
  <wgt id="128">3.55479e-12</wgt>
  <wgt id="129">3.53264e-12</wgt>
  <wgt id="130">3.56457e-12</wgt>
  <wgt id="131">3.52215e-12</wgt>
  <wgt id="132">3.44921e-12</wgt>
  <wgt id="133">3.65576e-12</wgt>
  <wgt id="134">3.50419e-12</wgt>
  <wgt id="135">3.57452e-12</wgt>
  <wgt id="136">3.59106e-12</wgt>
  <wgt id="137">3.48637e-12</wgt>
  <wgt id="138">3.68688e-12</wgt>
  <wgt id="139">3.4058e-12</wgt>
  <wgt id="140">3.52055e-12</wgt>
  <wgt id="141">3.5616e-12</wgt>
  <wgt id="142">3.54408e-12</wgt>
  <wgt id="143">3.54922e-12</wgt>
  <wgt id="144">3.43459e-12</wgt>
  <wgt id="145">3.64578e-12</wgt>
  <wgt id="146">3.57862e-12</wgt>
  <wgt id="147">3.51576e-12</wgt>
  <wgt id="148">3.55518e-12</wgt>
  <wgt id="149">3.54284e-12</wgt>
  <wgt id="150">3.57513e-12</wgt>
  <wgt id="151">3.52884e-12</wgt>
  <wgt id="152">3.54551e-12</wgt>
  <wgt id="153">3.54306e-12</wgt>
  <wgt id="154">3.57042e-12</wgt>
  <wgt id="155">3.51141e-12</wgt>
  <wgt id="156">3.62255e-12</wgt>
  <wgt id="157">3.4631e-12</wgt>
  <wgt id="158">4.26195e-12</wgt>
  <wgt id="159">4.27977e-12</wgt>
  <wgt id="160">4.24744e-12</wgt>
  <wgt id="161">4.25042e-12</wgt>
  <wgt id="162">4.27457e-12</wgt>
  <wgt id="163">4.25705e-12</wgt>
  <wgt id="164">4.26919e-12</wgt>
  <wgt id="165">4.26342e-12</wgt>
  <wgt id="166">4.26071e-12</wgt>
  <wgt id="167">4.25884e-12</wgt>
  <wgt id="168">4.26613e-12</wgt>
  <wgt id="169">4.24395e-12</wgt>
  <wgt id="170">4.27333e-12</wgt>
  <wgt id="171">4.25689e-12</wgt>
  <wgt id="172">4.26894e-12</wgt>
  <wgt id="173">4.26109e-12</wgt>
  <wgt id="174">4.2621e-12</wgt>
  <wgt id="175">4.13816e-12</wgt>
  <wgt id="176">4.42369e-12</wgt>
  <wgt id="177">4.28601e-12</wgt>
  <wgt id="178">4.23973e-12</wgt>
  <wgt id="179">4.4489e-12</wgt>
  <wgt id="180">3.96778e-12</wgt>
  <wgt id="181">4.13246e-12</wgt>
  <wgt id="182">4.34747e-12</wgt>
  <wgt id="183">4.18289e-12</wgt>
  <wgt id="184">4.30115e-12</wgt>
  <wgt id="185">4.22639e-12</wgt>
  <wgt id="186">4.3059e-12</wgt>
  <wgt id="187">4.22266e-12</wgt>
  <wgt id="188">4.33317e-12</wgt>
  <wgt id="189">4.23319e-12</wgt>
  <wgt id="190">4.27377e-12</wgt>
  <wgt id="191">4.27419e-12</wgt>
  <wgt id="192">4.25465e-12</wgt>
  <wgt id="193">4.32591e-12</wgt>
  <wgt id="194">4.23045e-12</wgt>
  <wgt id="195">4.143e-12</wgt>
  <wgt id="196">4.46702e-12</wgt>
  <wgt id="197">4.28416e-12</wgt>
  <wgt id="198">4.2567e-12</wgt>
  <wgt id="199">4.26195e-12</wgt>
  <wgt id="200">4.29962e-12</wgt>
  <wgt id="201">4.28596e-12</wgt>
  <wgt id="202">4.2726e-12</wgt>
  <wgt id="203">4.25262e-12</wgt>
  <wgt id="204">4.24318e-12</wgt>
  <wgt id="205">4.23548e-12</wgt>
  <wgt id="206">4.11927e-12</wgt>
  <wgt id="207">4.14357e-12</wgt>
  <wgt id="208">4.09517e-12</wgt>
  <wgt id="209">4.13315e-12</wgt>
  <wgt id="210">4.10895e-12</wgt>
  <wgt id="211">4.1176e-12</wgt>
  <wgt id="212">4.12063e-12</wgt>
  <wgt id="213">4.11885e-12</wgt>
  <wgt id="214">4.11979e-12</wgt>
  <wgt id="215">4.12242e-12</wgt>
  <wgt id="216">4.11676e-12</wgt>
  <wgt id="217">4.13155e-12</wgt>
  <wgt id="218">4.10961e-12</wgt>
  <wgt id="219">4.11591e-12</wgt>
  <wgt id="220">4.12121e-12</wgt>
  <wgt id="221">4.11735e-12</wgt>
  <wgt id="222">4.12323e-12</wgt>
  <wgt id="223">3.89525e-12</wgt>
  <wgt id="224">4.32356e-12</wgt>
  <wgt id="225">4.06766e-12</wgt>
  <wgt id="226">4.18401e-12</wgt>
  <wgt id="227">4.07911e-12</wgt>
  <wgt id="228">4.13684e-12</wgt>
  <wgt id="229">4.0604e-12</wgt>
  <wgt id="230">4.14848e-12</wgt>
  <wgt id="231">4.24055e-12</wgt>
  <wgt id="232">4.01962e-12</wgt>
  <wgt id="233">4.09683e-12</wgt>
  <wgt id="234">4.15471e-12</wgt>
  <wgt id="235">4.02482e-12</wgt>
  <wgt id="236">4.20447e-12</wgt>
  <wgt id="237">4.05707e-12</wgt>
  <wgt id="238">4.14043e-12</wgt>
  <wgt id="239">4.09248e-12</wgt>
  <wgt id="240">4.16732e-12</wgt>
  <wgt id="241">4.07583e-12</wgt>
  <wgt id="242">4.17186e-12</wgt>
  <wgt id="243">4.17808e-12</wgt>
  <wgt id="244">4.13694e-12</wgt>
  <wgt id="245">4.11678e-12</wgt>
  <wgt id="246">4.14832e-12</wgt>
  <wgt id="247">4.11927e-12</wgt>
  <wgt id="248">4.1555e-12</wgt>
  <wgt id="249">4.14161e-12</wgt>
  <wgt id="250">4.12891e-12</wgt>
  <wgt id="251">4.10939e-12</wgt>
  <wgt id="252">4.10053e-12</wgt>
  <wgt id="253">4.09388e-12</wgt>
  <wgt id="254">4.03757e-12</wgt>
  <wgt id="255">4.04127e-12</wgt>
  <wgt id="256">4.03313e-12</wgt>
  <wgt id="257">4.04035e-12</wgt>
  <wgt id="258">4.03528e-12</wgt>
  <wgt id="259">4.06454e-12</wgt>
  <wgt id="260">4.0113e-12</wgt>
  <wgt id="261">4.04419e-12</wgt>
  <wgt id="262">4.0294e-12</wgt>
  <wgt id="263">4.03547e-12</wgt>
  <wgt id="264">4.0398e-12</wgt>
  <wgt id="265">4.03238e-12</wgt>
  <wgt id="266">4.0475e-12</wgt>
  <wgt id="267">4.03892e-12</wgt>
  <wgt id="268">4.0355e-12</wgt>
  <wgt id="269">4.05139e-12</wgt>
  <wgt id="270">4.0281e-12</wgt>
  <wgt id="271">4.03057e-12</wgt>
  <wgt id="272">4.04521e-12</wgt>
  <wgt id="273">4.02441e-12</wgt>
  <wgt id="274">4.04733e-12</wgt>
  <wgt id="275">4.01996e-12</wgt>
  <wgt id="276">4.05559e-12</wgt>
  <wgt id="277">4.01384e-12</wgt>
  <wgt id="278">4.05916e-12</wgt>
  <wgt id="279">3.95698e-12</wgt>
  <wgt id="280">4.1383e-12</wgt>
  <wgt id="281">4.0187e-12</wgt>
  <wgt id="282">4.0385e-12</wgt>
  <wgt id="283">3.91837e-12</wgt>
  <wgt id="284">4.18425e-12</wgt>
  <wgt id="285">3.84045e-12</wgt>
  <wgt id="286">4.20079e-12</wgt>
  <wgt id="287">4.05037e-12</wgt>
  <wgt id="288">4.02088e-12</wgt>
  <wgt id="289">4.06637e-12</wgt>
  <wgt id="290">3.97024e-12</wgt>
  <wgt id="291">4.02593e-12</wgt>
  <wgt id="292">4.04009e-12</wgt>
  <wgt id="293">4.00549e-12</wgt>
  <wgt id="294">4.06908e-12</wgt>
  <wgt id="295">3.95935e-12</wgt>
  <wgt id="296">4.13273e-12</wgt>
  <wgt id="297">4.03613e-12</wgt>
  <wgt id="298">4.05402e-12</wgt>
  <wgt id="299">4.02384e-12</wgt>
  <wgt id="300">4.07293e-12</wgt>
  <wgt id="301">3.97494e-12</wgt>
  <wgt id="302">4.19027e-12</wgt>
  <wgt id="303">4.00407e-12</wgt>
  <wgt id="304">4.0565e-12</wgt>
  <wgt id="305">4.04694e-12</wgt>
  <wgt id="306">4.05135e-12</wgt>
  <wgt id="307">4.04253e-12</wgt>
  <wgt id="308">4.05027e-12</wgt>
  <wgt id="309">4.04495e-12</wgt>
  <wgt id="310">4.07517e-12</wgt>
  <wgt id="311">4.02111e-12</wgt>
  <wgt id="312">4.05293e-12</wgt>
  <wgt id="313">4.04101e-12</wgt>
  <wgt id="314">4.04525e-12</wgt>
  <wgt id="315">4.04905e-12</wgt>
  <wgt id="316">4.04217e-12</wgt>
  <wgt id="317">4.0577e-12</wgt>
  <wgt id="318">4.05033e-12</wgt>
  <wgt id="319">4.04178e-12</wgt>
  <wgt id="320">4.06161e-12</wgt>
  <wgt id="321">4.0391e-12</wgt>
  <wgt id="322">4.03822e-12</wgt>
  <wgt id="323">4.05764e-12</wgt>
  <wgt id="324">4.03633e-12</wgt>
  <wgt id="325">4.05665e-12</wgt>
  <wgt id="326">4.03311e-12</wgt>
  <wgt id="327">4.06497e-12</wgt>
  <wgt id="328">4.02608e-12</wgt>
  <wgt id="329">4.05904e-12</wgt>
  <wgt id="330">4.17005e-12</wgt>
  <wgt id="331">3.92989e-12</wgt>
  <wgt id="332">4.03141e-12</wgt>
  <wgt id="333">4.04749e-12</wgt>
  <wgt id="334">3.9536e-12</wgt>
  <wgt id="335">4.16341e-12</wgt>
  <wgt id="336">3.90391e-12</wgt>
  <wgt id="337">4.22129e-12</wgt>
  <wgt id="338">4.09282e-12</wgt>
  <wgt id="339">4.00483e-12</wgt>
  <wgt id="340">4.07459e-12</wgt>
  <wgt id="341">3.97682e-12</wgt>
  <wgt id="342">4.03876e-12</wgt>
  <wgt id="343">4.04322e-12</wgt>
  <wgt id="344">4.01821e-12</wgt>
  <wgt id="345">4.08065e-12</wgt>
  <wgt id="346">3.966e-12</wgt>
  <wgt id="347">4.14062e-12</wgt>
  <wgt id="348">4.04709e-12</wgt>
  <wgt id="349">4.06106e-12</wgt>
  <wgt id="350">4.03016e-12</wgt>
  <wgt id="351">4.08991e-12</wgt>
  <wgt id="352">3.97795e-12</wgt>
  <wgt id="353">4.20663e-12</wgt>
  <wgt id="354">3.99601e-12</wgt>
  <wgt id="355">4.07802e-12</wgt>
  <wgt id="356">4.03757e-12</wgt>
  <wgt id="357">4.06298e-12</wgt>
  <wgt id="358">4.04694e-12</wgt>
  <wgt id="359">4.05089e-12</wgt>
  <wgt id="360">4.06773e-12</wgt>
  <wgt id="361">4.05107e-12</wgt>
  <wgt id="362">4.12372e-12</wgt>
  <wgt id="363">4.11321e-12</wgt>
  <wgt id="364">4.09869e-12</wgt>
  <wgt id="365">4.08431e-12</wgt>
  <wgt id="366">4.06854e-12</wgt>
  <wgt id="367">4.03591e-12</wgt>
  <wgt id="368">4.01812e-12</wgt>
  <wgt id="369">3.99888e-12</wgt>
  <wgt id="370">4.05107e-12</wgt>
  <wgt id="371">4.06944e-12</wgt>
  <wgt id="372">4.05925e-12</wgt>
  <wgt id="373">4.04434e-12</wgt>
  <wgt id="374">4.04319e-12</wgt>
  <wgt id="375">4.33842e-12</wgt>
  <wgt id="376">4.33897e-12</wgt>
  <wgt id="377">4.33759e-12</wgt>
  <wgt id="378">4.35406e-12</wgt>
  <wgt id="379">4.32254e-12</wgt>
  <wgt id="380">4.34974e-12</wgt>
  <wgt id="381">4.3337e-12</wgt>
  <wgt id="382">4.36194e-12</wgt>
  <wgt id="383">4.31495e-12</wgt>
  <wgt id="384">4.34118e-12</wgt>
  <wgt id="385">4.33567e-12</wgt>
  <wgt id="386">4.35671e-12</wgt>
  <wgt id="387">4.33027e-12</wgt>
  <wgt id="388">4.33395e-12</wgt>
  <wgt id="389">4.34342e-12</wgt>
  <wgt id="390">4.35075e-12</wgt>
  <wgt id="391">4.32525e-12</wgt>
  <wgt id="392">4.30286e-12</wgt>
  <wgt id="393">4.35841e-12</wgt>
  <wgt id="394">4.34452e-12</wgt>
  <wgt id="395">4.32979e-12</wgt>
  <wgt id="396">4.34201e-12</wgt>
  <wgt id="397">4.33582e-12</wgt>
  <wgt id="398">4.31794e-12</wgt>
  <wgt id="399">4.35812e-12</wgt>
  <wgt id="400">4.33041e-12</wgt>
  <wgt id="401">4.35604e-12</wgt>
  <wgt id="402">4.30151e-12</wgt>
  <wgt id="403">4.35495e-12</wgt>
  <wgt id="404">4.44213e-12</wgt>
  <wgt id="405">4.08884e-12</wgt>
  <wgt id="406">4.26423e-12</wgt>
  <wgt id="407">4.49951e-12</wgt>
  <wgt id="408">4.37644e-12</wgt>
  <wgt id="409">4.26556e-12</wgt>
  <wgt id="410">4.21688e-12</wgt>
  <wgt id="411">4.39476e-12</wgt>
  <wgt id="412">4.33047e-12</wgt>
  <wgt id="413">4.35031e-12</wgt>
  <wgt id="414">4.28965e-12</wgt>
  <wgt id="415">4.376e-12</wgt>
  <wgt id="416">4.45852e-12</wgt>
  <wgt id="417">4.17246e-12</wgt>
  <wgt id="418">4.3444e-12</wgt>
  <wgt id="419">4.30647e-12</wgt>
  <wgt id="420">4.41058e-12</wgt>
  <wgt id="421">4.29588e-12</wgt>
  <wgt id="422">4.32891e-12</wgt>
  <wgt id="423">4.34349e-12</wgt>
  <wgt id="424">4.43321e-12</wgt>
  <wgt id="425">4.27817e-12</wgt>
  <wgt id="426">4.33842e-12</wgt>
  <wgt id="427">4.29697e-12</wgt>
  <wgt id="428">4.45949e-12</wgt>
  <wgt id="429">4.38012e-12</wgt>
  <wgt id="430">4.50601e-12</wgt>
  <wgt id="431">4.48079e-12</wgt>
  <wgt id="432">4.4571e-12</wgt>
  <wgt id="433">4.43393e-12</wgt>
  <wgt id="434">4.40582e-12</wgt>
  <wgt id="435">4.34776e-12</wgt>
  <wgt id="436">4.31806e-12</wgt>
  <wgt id="437">4.28969e-12</wgt>
  <wgt id="438">4.38012e-12</wgt>
  <wgt id="439">4.39464e-12</wgt>
  <wgt id="440">4.38597e-12</wgt>
  <wgt id="441">4.37579e-12</wgt>
  <wgt id="442">4.37191e-12</wgt>
  <wgt id="443">4.23051e-12</wgt>
  <wgt id="444">4.2556e-12</wgt>
  <wgt id="445">4.20979e-12</wgt>
  <wgt id="446">4.20299e-12</wgt>
  <wgt id="447">4.21379e-12</wgt>
  <wgt id="448">4.11443e-12</wgt>
  <wgt id="449">4.29787e-12</wgt>
  <wgt id="450">4.21315e-12</wgt>
  <wgt id="451">4.22331e-12</wgt>
  <wgt id="452">4.33055e-12</wgt>
  <wgt id="453">4.27477e-12</wgt>
  <wgt id="454">4.0605e-12</wgt>
  <wgt id="455">4.23461e-12</wgt>
  <wgt id="456">4.19301e-12</wgt>
  <wgt id="457">4.2496e-12</wgt>
  <wgt id="458">4.27943e-12</wgt>
  <wgt id="459">4.25914e-12</wgt>
  <wgt id="460">4.25221e-12</wgt>
  <wgt id="461">4.14838e-12</wgt>
  <wgt id="462">4.19259e-12</wgt>
  <wgt id="463">4.1832e-12</wgt>
  <wgt id="464">4.20386e-12</wgt>
  <wgt id="465">4.27819e-12</wgt>
  <wgt id="466">4.18047e-12</wgt>
  <wgt id="467">4.18642e-12</wgt>
  <wgt id="468">4.21801e-12</wgt>
  <wgt id="469">4.21688e-12</wgt>
  <wgt id="470">4.19274e-12</wgt>
  <wgt id="471">4.19092e-12</wgt>
  <wgt id="472">4.25154e-12</wgt>
  <wgt id="473">4.08321e-12</wgt>
  <wgt id="474">3.0282e-12</wgt>
  <wgt id="475">3.2226e-12</wgt>
  <wgt id="476">2.95193e-12</wgt>
  <wgt id="477">2.90135e-12</wgt>
  <wgt id="478">3.04096e-12</wgt>
  <wgt id="479">2.96079e-12</wgt>
  <wgt id="480">3.14622e-12</wgt>
  <wgt id="481">2.96695e-12</wgt>
  <wgt id="482">2.91583e-12</wgt>
  <wgt id="483">2.94522e-12</wgt>
  <wgt id="484">3.23788e-12</wgt>
  <wgt id="485">3.02925e-12</wgt>
  <wgt id="486">3.11991e-12</wgt>
  <wgt id="487">3.10079e-12</wgt>
  <wgt id="488">3.07451e-12</wgt>
  <wgt id="489">2.9379e-12</wgt>
  <wgt id="490">2.93431e-12</wgt>
  <wgt id="491">2.99213e-12</wgt>
  <wgt id="492">2.93277e-12</wgt>
  <wgt id="493">2.91195e-12</wgt>
  <wgt id="494">2.93763e-12</wgt>
  <wgt id="495">3.10507e-12</wgt>
  <wgt id="496">2.92898e-12</wgt>
  <wgt id="497">2.90471e-12</wgt>
  <wgt id="498">3.07334e-12</wgt>
  <wgt id="499">2.95062e-12</wgt>
  <wgt id="500">2.98498e-12</wgt>
  <wgt id="501">3.17404e-12</wgt>
  <wgt id="502">2.95019e-12</wgt>
  <wgt id="503">3.02889e-12</wgt>
  <wgt id="504">3.06061e-12</wgt>
  <wgt id="505">2.98384e-12</wgt>
  <wgt id="506">3.12807e-12</wgt>
  <wgt id="507">3.00032e-12</wgt>
  <wgt id="508">3.06484e-12</wgt>
  <wgt id="509">2.9511e-12</wgt>
  <wgt id="510">3.11629e-12</wgt>
  <wgt id="511">2.97247e-12</wgt>
  <wgt id="512">3.07555e-12</wgt>
  <wgt id="513">3.17873e-12</wgt>
  <wgt id="514">3.00273e-12</wgt>
  <wgt id="515">2.98321e-12</wgt>
  <wgt id="516">3.11105e-12</wgt>
  <wgt id="517">3.08813e-12</wgt>
  <wgt id="518">3.09281e-12</wgt>
  <wgt id="519">2.93313e-12</wgt>
  <wgt id="520">3.06279e-12</wgt>
  <wgt id="521">3.13293e-12</wgt>
  <wgt id="522">3.1456e-12</wgt>
  <wgt id="523">3.11302e-12</wgt>
  <wgt id="524">3.07408e-12</wgt>
  <wgt id="525">3.13573e-12</wgt>
  <wgt id="526">3.04337e-12</wgt>
  <wgt id="527">3.0712e-12</wgt>
  <wgt id="528">3.05195e-12</wgt>
  <wgt id="529">2.96612e-12</wgt>
  <wgt id="530">3.0605e-12</wgt>
  <wgt id="531">3.00224e-12</wgt>
  <wgt id="532">3.20297e-12</wgt>
  <wgt id="533">2.8437e-12</wgt>
  <wgt id="534">3.04942e-12</wgt>
  <wgt id="535">3.10202e-12</wgt>
  <wgt id="536">3.00602e-12</wgt>
  <wgt id="537">3.04169e-12</wgt>
  <wgt id="538">3.05682e-12</wgt>
  <wgt id="539">2.97743e-12</wgt>
  <wgt id="540">2.95166e-12</wgt>
  <wgt id="541">2.93289e-12</wgt>
  <wgt id="542">2.98159e-12</wgt>
  <wgt id="543">3.02569e-12</wgt>
  <wgt id="544">3.18088e-12</wgt>
  <wgt id="545">2.99249e-12</wgt>
  <wgt id="546">2.99133e-12</wgt>
  <wgt id="547">2.93268e-12</wgt>
  <wgt id="548">2.90369e-12</wgt>
  <wgt id="549">2.97101e-12</wgt>
  <wgt id="550">3.00133e-12</wgt>
  <wgt id="551">3.05285e-12</wgt>
  <wgt id="552">3.00814e-12</wgt>
  <wgt id="553">3.02197e-12</wgt>
  <wgt id="554">3.25109e-12</wgt>
  <wgt id="555">3.10025e-12</wgt>
  <wgt id="556">2.93431e-12</wgt>
  <wgt id="557">3.07819e-12</wgt>
  <wgt id="558">2.92738e-12</wgt>
  <wgt id="559">2.98831e-12</wgt>
  <wgt id="560">3.28512e-12</wgt>
  <wgt id="561">2.97076e-12</wgt>
  <wgt id="562">3.07879e-12</wgt>
  <wgt id="563">2.92377e-12</wgt>
  <wgt id="564">3.02486e-12</wgt>
  <wgt id="565">2.90069e-12</wgt>
  <wgt id="566">3.08752e-12</wgt>
  <wgt id="567">2.98563e-12</wgt>
  <wgt id="568">3.0113e-12</wgt>
  <wgt id="569">3.10415e-12</wgt>
  <wgt id="570">2.92576e-12</wgt>
  <wgt id="571">3.36056e-12</wgt>
  <wgt id="572">2.95417e-12</wgt>
  <wgt id="573">2.89099e-12</wgt>
  <wgt id="574">2.91766e-12</wgt>
  <wgt id="575">3.34254e-12</wgt>
  <wgt id="576">3.31658e-12</wgt>
  <wgt id="577">3.42143e-12</wgt>
  <wgt id="578">3.4425e-12</wgt>
  <wgt id="579">3.40779e-12</wgt>
  <wgt id="580">3.4089e-12</wgt>
  <wgt id="581">3.56318e-12</wgt>
  <wgt id="582">3.30981e-12</wgt>
  <wgt id="583">3.38201e-12</wgt>
  <wgt id="584">3.35014e-12</wgt>
  <wgt id="585">3.37594e-12</wgt>
  <wgt id="586">3.27248e-12</wgt>
  <wgt id="587">3.39523e-12</wgt>
  <wgt id="588">3.32191e-12</wgt>
  <wgt id="589">3.41414e-12</wgt>
  <wgt id="590">3.40713e-12</wgt>
  <wgt id="591">3.46694e-12</wgt>
  <wgt id="592">3.27509e-12</wgt>
  <wgt id="593">3.33127e-12</wgt>
  <wgt id="594">3.43246e-12</wgt>
  <wgt id="595">3.33039e-12</wgt>
  <wgt id="596">3.35423e-12</wgt>
  <wgt id="597">3.24511e-12</wgt>
  <wgt id="598">3.2315e-12</wgt>
  <wgt id="599">3.53126e-12</wgt>
  <wgt id="600">3.30463e-12</wgt>
  <wgt id="601">3.25105e-12</wgt>
  <wgt id="602">3.27049e-12</wgt>
  <wgt id="603">3.27469e-12</wgt>
  <wgt id="604">3.39449e-12</wgt>
  <wgt id="605">3.48018e-12</wgt>
  <wgt id="606">3.26529e-12</wgt>
  <wgt id="607">3.29768e-12</wgt>
  <wgt id="608">3.37901e-12</wgt>
  <wgt id="609">3.1626e-12</wgt>
  <wgt id="610">3.21797e-12</wgt>
  <wgt id="611">3.37119e-12</wgt>
  <wgt id="612">3.55869e-12</wgt>
  <wgt id="613">3.33549e-12</wgt>
  <wgt id="614">3.39272e-12</wgt>
  <wgt id="615">3.27074e-12</wgt>
  <wgt id="616">3.52637e-12</wgt>
  <wgt id="617">3.46978e-12</wgt>
  <wgt id="618">3.41602e-12</wgt>
  <wgt id="619">3.29551e-12</wgt>
  <wgt id="620">3.50422e-12</wgt>
  <wgt id="621">3.39429e-12</wgt>
  <wgt id="622">3.39523e-12</wgt>
  <wgt id="623">3.44624e-12</wgt>
  <wgt id="624">3.33441e-12</wgt>
  <wgt id="625">3.3074e-12</wgt>
  <wgt id="626">3.26133e-12</wgt>
  <wgt id="627">3.2082e-12</wgt>
  <wgt id="628">3.54974e-12</wgt>
  <wgt id="629">3.25922e-12</wgt>
  <wgt id="630">3.19811e-12</wgt>
  <wgt id="631">3.36505e-12</wgt>
  <wgt id="632">3.22265e-12</wgt>
  <wgt id="633">3.30649e-12</wgt>
  <wgt id="634">3.32937e-12</wgt>
  <wgt id="635">3.26518e-12</wgt>
  <wgt id="636">3.35988e-12</wgt>
  <wgt id="637">3.31976e-12</wgt>
  <wgt id="638">3.20694e-12</wgt>
  <wgt id="639">3.29507e-12</wgt>
  <wgt id="640">3.34293e-12</wgt>
  <wgt id="641">3.36487e-12</wgt>
  <wgt id="642">3.15213e-12</wgt>
  <wgt id="643">3.32041e-12</wgt>
  <wgt id="644">3.21518e-12</wgt>
  <wgt id="645">3.38063e-12</wgt>
  <wgt id="646">3.39041e-12</wgt>
  <wgt id="647">3.30442e-12</wgt>
  <wgt id="648">3.36018e-12</wgt>
  <wgt id="649">3.39609e-12</wgt>
  <wgt id="650">3.28298e-12</wgt>
  <wgt id="651">3.34079e-12</wgt>
  <wgt id="652">3.31516e-12</wgt>
  <wgt id="653">3.24603e-12</wgt>
  <wgt id="654">3.32429e-12</wgt>
  <wgt id="655">3.29825e-12</wgt>
  <wgt id="656">3.37683e-12</wgt>
  <wgt id="657">3.47749e-12</wgt>
  <wgt id="658">3.33596e-12</wgt>
  <wgt id="659">3.20598e-12</wgt>
  <wgt id="660">3.41367e-12</wgt>
  <wgt id="661">3.28396e-12</wgt>
  <wgt id="662">3.3532e-12</wgt>
  <wgt id="663">3.34499e-12</wgt>
  <wgt id="664">3.29391e-12</wgt>
  <wgt id="665">3.33239e-12</wgt>
  <wgt id="666">3.30888e-12</wgt>
  <wgt id="667">3.44447e-12</wgt>
  <wgt id="668">3.34355e-12</wgt>
  <wgt id="669">3.42435e-12</wgt>
  <wgt id="670">3.41661e-12</wgt>
  <wgt id="671">3.32044e-12</wgt>
  <wgt id="672">3.20313e-12</wgt>
  <wgt id="673">3.35334e-12</wgt>
  <wgt id="674">3.28232e-12</wgt>
  <wgt id="675">3.30796e-12</wgt>
  <wgt id="676">4.24043e-12</wgt>
  <wgt id="677">4.28236e-12</wgt>
  <wgt id="678">4.442e-12</wgt>
  <wgt id="679">3.93618e-12</wgt>
  <wgt id="680">4.1488e-12</wgt>
  <wgt id="681">4.33186e-12</wgt>
  <wgt id="682">4.38856e-12</wgt>
  <wgt id="683">4.18015e-12</wgt>
  <wgt id="684">4.43897e-12</wgt>
  <wgt id="685">4.0044e-12</wgt>
  <wgt id="686">4.13759e-12</wgt>
  <wgt id="687">4.46482e-12</wgt>
  <wgt id="688">4.2438e-12</wgt>
  <wgt id="689">4.62074e-12</wgt>
  <wgt id="690">4.45613e-12</wgt>
  <wgt id="691">4.53177e-12</wgt>
  <wgt id="692">4.18218e-12</wgt>
  <wgt id="693">5.00042e-12</wgt>
  <wgt id="694">4.49349e-12</wgt>
  <wgt id="695">4.11373e-12</wgt>
  <wgt id="696">3.99441e-12</wgt>
  <wgt id="697">4.15187e-12</wgt>
  <wgt id="698">3.87413e-12</wgt>
  <wgt id="699">3.84878e-12</wgt>
  <wgt id="700">3.67044e-12</wgt>
  <wgt id="701">4.25991e-12</wgt>
  <wgt id="702">4.1042e-12</wgt>
  <wgt id="703">4.88606e-12</wgt>
  <wgt id="704">4.6505e-12</wgt>
  <wgt id="705">4.42217e-12</wgt>
  <wgt id="706">3.94e-12</wgt>
  <wgt id="707">4.06895e-12</wgt>
  <wgt id="708">4.18525e-12</wgt>
  <wgt id="709">4.16539e-12</wgt>
  <wgt id="710">3.79872e-12</wgt>
  <wgt id="711">4.20531e-12</wgt>
  <wgt id="712">4.16868e-12</wgt>
  <wgt id="713">4.62355e-12</wgt>
  <wgt id="714">4.16884e-12</wgt>
  <wgt id="715">4.20347e-12</wgt>
  <wgt id="716">4.06805e-12</wgt>
  <wgt id="717">4.04456e-12</wgt>
  <wgt id="718">4.24333e-12</wgt>
  <wgt id="719">3.83513e-12</wgt>
  <wgt id="720">3.96486e-12</wgt>
  <wgt id="721">3.87745e-12</wgt>
  <wgt id="722">3.74288e-12</wgt>
  <wgt id="723">4.53406e-12</wgt>
  <wgt id="724">4.45001e-12</wgt>
  <wgt id="725">4.47811e-12</wgt>
  <wgt id="726">4.28302e-12</wgt>
  <wgt id="727">4.13542e-12</wgt>
  <wgt id="728">4.13508e-12</wgt>
  <wgt id="729">3.82272e-12</wgt>
  <wgt id="730">4.61083e-12</wgt>
  <wgt id="731">4.18593e-12</wgt>
  <wgt id="732">4.66758e-12</wgt>
  <wgt id="733">4.25046e-12</wgt>
  <wgt id="734">4.34597e-12</wgt>
  <wgt id="735">4.21629e-12</wgt>
  <wgt id="736">4.1566e-12</wgt>
  <wgt id="737">4.31812e-12</wgt>
  <wgt id="738">3.99995e-12</wgt>
  <wgt id="739">4.3126e-12</wgt>
  <wgt id="740">4.71874e-12</wgt>
  <wgt id="741">3.76042e-12</wgt>
  <wgt id="742">4.16653e-12</wgt>
  <wgt id="743">4.02943e-12</wgt>
  <wgt id="744">4.15224e-12</wgt>
  <wgt id="745">4.44833e-12</wgt>
  <wgt id="746">4.52736e-12</wgt>
  <wgt id="747">3.82252e-12</wgt>
  <wgt id="748">4.19688e-12</wgt>
  <wgt id="749">4.46629e-12</wgt>
  <wgt id="750">4.3229e-12</wgt>
  <wgt id="751">4.3781e-12</wgt>
  <wgt id="752">3.87013e-12</wgt>
  <wgt id="753">4.04062e-12</wgt>
  <wgt id="754">4.48379e-12</wgt>
  <wgt id="755">4.2551e-12</wgt>
  <wgt id="756">4.27914e-12</wgt>
  <wgt id="757">3.88662e-12</wgt>
  <wgt id="758">4.27886e-12</wgt>
  <wgt id="759">4.33584e-12</wgt>
  <wgt id="760">4.28936e-12</wgt>
  <wgt id="761">4.46436e-12</wgt>
  <wgt id="762">4.50422e-12</wgt>
  <wgt id="763">4.21237e-12</wgt>
  <wgt id="764">4.41799e-12</wgt>
  <wgt id="765">4.35301e-12</wgt>
  <wgt id="766">4.23552e-12</wgt>
  <wgt id="767">4.361e-12</wgt>
  <wgt id="768">3.9887e-12</wgt>
  <wgt id="769">4.50941e-12</wgt>
  <wgt id="770">4.1038e-12</wgt>
  <wgt id="771">5.04551e-12</wgt>
  <wgt id="772">3.99803e-12</wgt>
  <wgt id="773">4.20208e-12</wgt>
  <wgt id="774">3.75763e-12</wgt>
  <wgt id="775">4.5037e-12</wgt>
  <wgt id="776">4.6346e-12</wgt>
  <wgt id="777">4.00358e-12</wgt>
  <wgt id="778">3.09687e-12</wgt>
  <wgt id="779">2.55159e-12</wgt>
  <wgt id="780">2.03685e-12</wgt>
  <wgt id="781">3.15099e-12</wgt>
  <wgt id="782">3.27756e-12</wgt>
  <wgt id="783">2.57423e-12</wgt>
  <wgt id="784">2.68344e-12</wgt>
  <wgt id="785">3.78774e-12</wgt>
  <wgt id="786">2.36891e-12</wgt>
  <wgt id="787">3.56566e-12</wgt>
  <wgt id="788">1.89254e-12</wgt>
  <wgt id="789">2.44547e-12</wgt>
  <wgt id="790">2.32811e-12</wgt>
  <wgt id="791">2.89068e-12</wgt>
  <wgt id="792">4.06374e-12</wgt>
  <wgt id="793">3.03289e-12</wgt>
  <wgt id="794">2.31784e-12</wgt>
  <wgt id="795">3.69142e-12</wgt>
  <wgt id="796">4.12276e-12</wgt>
  <wgt id="797">3.63053e-12</wgt>
  <wgt id="798">2.83761e-12</wgt>
  <wgt id="799">3.56219e-12</wgt>
  <wgt id="800">2.47201e-12</wgt>
  <wgt id="801">2.8701e-12</wgt>
  <wgt id="802">2.33243e-12</wgt>
  <wgt id="803">3.97421e-12</wgt>
  <wgt id="804">3.65862e-12</wgt>
  <wgt id="805">3.73161e-12</wgt>
  <wgt id="806">3.46828e-12</wgt>
  <wgt id="807">2.92947e-12</wgt>
  <wgt id="808">3.00921e-12</wgt>
  <wgt id="809">2.8427e-12</wgt>
  <wgt id="810">3.53367e-12</wgt>
  <wgt id="811">3.40774e-12</wgt>
  <wgt id="812">2.29547e-12</wgt>
  <wgt id="813">2.35891e-12</wgt>
  <wgt id="814">2.67774e-12</wgt>
  <wgt id="815">2.55641e-12</wgt>
  <wgt id="816">2.21029e-12</wgt>
  <wgt id="817">3.25476e-12</wgt>
  <wgt id="818">3.0839e-12</wgt>
  <wgt id="819">2.542e-12</wgt>
  <wgt id="820">3.10217e-12</wgt>
  <wgt id="821">3.61752e-12</wgt>
  <wgt id="822">2.51048e-12</wgt>
  <wgt id="823">3.64579e-12</wgt>
  <wgt id="824">4.20055e-12</wgt>
  <wgt id="825">2.24011e-12</wgt>
  <wgt id="826">3.30867e-12</wgt>
  <wgt id="827">1.8157e-12</wgt>
  <wgt id="828">3.98973e-12</wgt>
  <wgt id="829">3.25067e-12</wgt>
  <wgt id="830">2.11963e-12</wgt>
  <wgt id="831">3.36345e-12</wgt>
  <wgt id="832">5.19857e-12</wgt>
  <wgt id="833">2.85929e-12</wgt>
  <wgt id="834">4.83178e-12</wgt>
  <wgt id="835">2.48685e-12</wgt>
  <wgt id="836">3.07139e-12</wgt>
  <wgt id="837">3.57001e-12</wgt>
  <wgt id="838">2.95642e-12</wgt>
  <wgt id="839">3.3361e-12</wgt>
  <wgt id="840">2.86865e-12</wgt>
  <wgt id="841">3.89433e-12</wgt>
  <wgt id="842">2.76592e-12</wgt>
  <wgt id="843">3.05963e-12</wgt>
  <wgt id="844">3.2608e-12</wgt>
  <wgt id="845">4.43785e-12</wgt>
  <wgt id="846">2.85203e-12</wgt>
  <wgt id="847">3.17629e-12</wgt>
  <wgt id="848">2.63568e-12</wgt>
  <wgt id="849">3.18683e-12</wgt>
  <wgt id="850">4.12622e-12</wgt>
  <wgt id="851">3.41856e-12</wgt>
  <wgt id="852">2.63027e-12</wgt>
  <wgt id="853">3.42826e-12</wgt>
  <wgt id="854">3.82126e-12</wgt>
  <wgt id="855">3.66889e-12</wgt>
  <wgt id="856">2.18038e-12</wgt>
  <wgt id="857">3.09494e-12</wgt>
  <wgt id="858">3.09266e-12</wgt>
  <wgt id="859">2.86074e-12</wgt>
  <wgt id="860">3.37652e-12</wgt>
  <wgt id="861">2.67317e-12</wgt>
  <wgt id="862">3.17351e-12</wgt>
  <wgt id="863">3.31018e-12</wgt>
  <wgt id="864">3.33801e-12</wgt>
  <wgt id="865">4.56322e-12</wgt>
  <wgt id="866">4.98861e-12</wgt>
  <wgt id="867">3.19707e-12</wgt>
  <wgt id="868">3.09509e-12</wgt>
  <wgt id="869">2.36432e-12</wgt>
  <wgt id="870">2.48262e-12</wgt>
  <wgt id="871">2.40472e-12</wgt>
  <wgt id="872">3.76826e-12</wgt>
  <wgt id="873">2.49882e-12</wgt>
  <wgt id="874">3.28982e-12</wgt>
  <wgt id="875">2.67795e-12</wgt>
  <wgt id="876">3.78582e-12</wgt>
  <wgt id="877">3.62154e-12</wgt>
  <wgt id="878">2.6136e-12</wgt>
  <wgt id="879">4.24043e-12</wgt>
  <wgt id="880">4.28236e-12</wgt>
  <wgt id="881">4.442e-12</wgt>
  <wgt id="882">3.93618e-12</wgt>
  <wgt id="883">4.1488e-12</wgt>
  <wgt id="884">4.33186e-12</wgt>
  <wgt id="885">4.38856e-12</wgt>
  <wgt id="886">4.18015e-12</wgt>
  <wgt id="887">4.43897e-12</wgt>
  <wgt id="888">4.0044e-12</wgt>
  <wgt id="889">4.13759e-12</wgt>
  <wgt id="890">4.46482e-12</wgt>
  <wgt id="891">4.2438e-12</wgt>
  <wgt id="892">4.62074e-12</wgt>
  <wgt id="893">4.45613e-12</wgt>
  <wgt id="894">4.53177e-12</wgt>
  <wgt id="895">4.18218e-12</wgt>
  <wgt id="896">5.00042e-12</wgt>
  <wgt id="897">4.49349e-12</wgt>
  <wgt id="898">4.11373e-12</wgt>
  <wgt id="899">3.99441e-12</wgt>
  <wgt id="900">4.15187e-12</wgt>
  <wgt id="901">3.87413e-12</wgt>
  <wgt id="902">3.84878e-12</wgt>
  <wgt id="903">3.67044e-12</wgt>
  <wgt id="904">4.25991e-12</wgt>
  <wgt id="905">4.1042e-12</wgt>
  <wgt id="906">4.88606e-12</wgt>
  <wgt id="907">4.6505e-12</wgt>
  <wgt id="908">4.42217e-12</wgt>
  <wgt id="909">3.94e-12</wgt>
  <wgt id="910">4.06895e-12</wgt>
  <wgt id="911">4.18525e-12</wgt>
  <wgt id="912">4.16539e-12</wgt>
  <wgt id="913">3.79872e-12</wgt>
  <wgt id="914">4.20531e-12</wgt>
  <wgt id="915">4.16868e-12</wgt>
  <wgt id="916">4.62355e-12</wgt>
  <wgt id="917">4.16884e-12</wgt>
  <wgt id="918">4.20347e-12</wgt>
  <wgt id="919">4.06805e-12</wgt>
  <wgt id="920">4.04456e-12</wgt>
  <wgt id="921">4.24333e-12</wgt>
  <wgt id="922">3.83513e-12</wgt>
  <wgt id="923">3.96486e-12</wgt>
  <wgt id="924">3.87745e-12</wgt>
  <wgt id="925">3.74288e-12</wgt>
  <wgt id="926">4.53406e-12</wgt>
  <wgt id="927">4.45001e-12</wgt>
  <wgt id="928">4.47811e-12</wgt>
  <wgt id="929">4.28302e-12</wgt>
  <wgt id="930">4.13542e-12</wgt>
  <wgt id="931">4.13508e-12</wgt>
  <wgt id="932">3.82272e-12</wgt>
  <wgt id="933">4.61083e-12</wgt>
  <wgt id="934">4.18593e-12</wgt>
  <wgt id="935">4.66758e-12</wgt>
  <wgt id="936">4.25046e-12</wgt>
  <wgt id="937">4.34597e-12</wgt>
  <wgt id="938">4.21629e-12</wgt>
  <wgt id="939">4.1566e-12</wgt>
  <wgt id="940">4.31812e-12</wgt>
  <wgt id="941">3.99995e-12</wgt>
  <wgt id="942">4.3126e-12</wgt>
  <wgt id="943">4.71874e-12</wgt>
  <wgt id="944">3.76042e-12</wgt>
  <wgt id="945">4.16653e-12</wgt>
  <wgt id="946">4.02943e-12</wgt>
  <wgt id="947">4.15224e-12</wgt>
  <wgt id="948">4.44833e-12</wgt>
  <wgt id="949">4.52736e-12</wgt>
  <wgt id="950">3.82252e-12</wgt>
  <wgt id="951">4.19688e-12</wgt>
  <wgt id="952">4.46629e-12</wgt>
  <wgt id="953">4.3229e-12</wgt>
  <wgt id="954">4.3781e-12</wgt>
  <wgt id="955">3.87013e-12</wgt>
  <wgt id="956">4.04062e-12</wgt>
  <wgt id="957">4.48379e-12</wgt>
  <wgt id="958">4.2551e-12</wgt>
  <wgt id="959">4.27914e-12</wgt>
  <wgt id="960">3.88662e-12</wgt>
  <wgt id="961">4.27886e-12</wgt>
  <wgt id="962">4.33584e-12</wgt>
  <wgt id="963">4.28936e-12</wgt>
  <wgt id="964">4.46436e-12</wgt>
  <wgt id="965">4.50422e-12</wgt>
  <wgt id="966">4.21237e-12</wgt>
  <wgt id="967">4.41799e-12</wgt>
  <wgt id="968">4.35301e-12</wgt>
  <wgt id="969">4.23552e-12</wgt>
  <wgt id="970">4.361e-12</wgt>
  <wgt id="971">3.9887e-12</wgt>
  <wgt id="972">4.50941e-12</wgt>
  <wgt id="973">4.1038e-12</wgt>
  <wgt id="974">5.04551e-12</wgt>
  <wgt id="975">3.99803e-12</wgt>
  <wgt id="976">4.20208e-12</wgt>
  <wgt id="977">3.75763e-12</wgt>
  <wgt id="978">4.5037e-12</wgt>
  <wgt id="979">4.6346e-12</wgt>
  <wgt id="980">4.23592e-12</wgt>
  <wgt id="981">4.26939e-12</wgt>
  <wgt id="982">4.11673e-12</wgt>
</rwgt>
</event>
<event>
 5   1  0.3028200E-11  0.2490913E+04  0.7818608E-02  0.7647383E-01
       21   -1    0    0  502  501  0.00000000000E+00  0.00000000000E+00  0.10930881931E+04  0.10930881931E+04  0.00000000000E+00 0.  1.
       21   -1    0    0  501  502 -0.00000000000E+00 -0.00000000000E+00 -0.14190643089E+04  0.14190643089E+04  0.00000000000E+00 0. -1.
       39    2    1    2    0    0  0.00000000000E+00  0.00000000000E+00 -0.32597611573E+03  0.25121525020E+04  0.24909134399E+04 0.  0.
       25    1    3    3    0    0 -0.62925171730E+03  0.99902281094E+03  0.21642863678E+03  0.12068432605E+04  0.12500000000E+03 0.  0.
       25    1    3    3    0    0  0.62925171730E+03 -0.99902281094E+03 -0.54240475251E+03  0.13053092415E+04  0.12500000000E+03 0.  0.
<mgrwt>
<rscale>  0 0.24909134E+04</rscale>
<asrwt>0</asrwt>
<pdfrwt beam="1">  1       21 0.16816741E+00 0.24909134E+04</pdfrwt>
<pdfrwt beam="2">  1       21 0.21831759E+00 0.24909134E+04</pdfrwt>
<totfact> 0.77805656E+00</totfact>
</mgrwt>
<rwgt>
  <wgt id="1">3.0282e-12</wgt>
  <wgt id="2">2.62622e-12</wgt>
  <wgt id="3">3.52947e-12</wgt>
  <wgt id="4">3.0282e-12</wgt>
  <wgt id="5">2.62622e-12</wgt>
  <wgt id="6">3.52947e-12</wgt>
  <wgt id="7">3.0282e-12</wgt>
  <wgt id="8">2.62622e-12</wgt>
  <wgt id="9">3.52947e-12</wgt>
  <wgt id="10">3.15351e-12</wgt>
  <wgt id="11">3.1503e-12</wgt>
  <wgt id="12">3.14721e-12</wgt>
  <wgt id="13">3.14252e-12</wgt>
  <wgt id="14">3.16541e-12</wgt>
  <wgt id="15">3.15848e-12</wgt>
  <wgt id="16">3.14766e-12</wgt>
  <wgt id="17">3.15901e-12</wgt>
  <wgt id="18">3.14651e-12</wgt>
  <wgt id="19">3.16133e-12</wgt>
  <wgt id="20">3.14385e-12</wgt>
  <wgt id="21">3.1339e-12</wgt>
  <wgt id="22">3.1416e-12</wgt>
  <wgt id="23">3.12411e-12</wgt>
  <wgt id="24">3.13913e-12</wgt>
  <wgt id="25">3.14626e-12</wgt>
  <wgt id="26">3.16701e-12</wgt>
  <wgt id="27">3.15365e-12</wgt>
  <wgt id="28">3.13932e-12</wgt>
  <wgt id="29">3.15612e-12</wgt>
  <wgt id="30">3.14644e-12</wgt>
  <wgt id="31">3.162e-12</wgt>
  <wgt id="32">3.15025e-12</wgt>
  <wgt id="33">3.16231e-12</wgt>
  <wgt id="34">3.14319e-12</wgt>
  <wgt id="35">3.15338e-12</wgt>
  <wgt id="36">3.16567e-12</wgt>
  <wgt id="37">3.14532e-12</wgt>
  <wgt id="38">3.14294e-12</wgt>
  <wgt id="39">3.18575e-12</wgt>
  <wgt id="40">3.15935e-12</wgt>
  <wgt id="41">3.15291e-12</wgt>
  <wgt id="42">3.15823e-12</wgt>
  <wgt id="43">3.15266e-12</wgt>
  <wgt id="44">3.14584e-12</wgt>
  <wgt id="45">3.16236e-12</wgt>
  <wgt id="46">3.15987e-12</wgt>
  <wgt id="47">3.14264e-12</wgt>
  <wgt id="48">3.15304e-12</wgt>
  <wgt id="49">3.15544e-12</wgt>
  <wgt id="50">3.16966e-12</wgt>
  <wgt id="51">3.16801e-12</wgt>
  <wgt id="52">3.15511e-12</wgt>
  <wgt id="53">3.12719e-12</wgt>
  <wgt id="54">3.14598e-12</wgt>
  <wgt id="55">3.15359e-12</wgt>
  <wgt id="56">3.16578e-12</wgt>
  <wgt id="57">3.16352e-12</wgt>
  <wgt id="58">3.13139e-12</wgt>
  <wgt id="59">3.14156e-12</wgt>
  <wgt id="60">3.15462e-12</wgt>
  <wgt id="61">3.14166e-12</wgt>
  <wgt id="62">3.15008e-12</wgt>
  <wgt id="63">3.15493e-12</wgt>
  <wgt id="64">3.1567e-12</wgt>
  <wgt id="65">3.15757e-12</wgt>
  <wgt id="66">3.14867e-12</wgt>
  <wgt id="67">3.14457e-12</wgt>
  <wgt id="68">3.15013e-12</wgt>
  <wgt id="69">3.15372e-12</wgt>
  <wgt id="70">3.15139e-12</wgt>
  <wgt id="71">3.15357e-12</wgt>
  <wgt id="72">3.14884e-12</wgt>
  <wgt id="73">3.15576e-12</wgt>
  <wgt id="74">3.15612e-12</wgt>
  <wgt id="75">3.14979e-12</wgt>
  <wgt id="76">3.163e-12</wgt>
  <wgt id="77">3.15278e-12</wgt>
  <wgt id="78">3.15384e-12</wgt>
  <wgt id="79">3.16049e-12</wgt>
  <wgt id="80">3.13922e-12</wgt>
  <wgt id="81">3.14983e-12</wgt>
  <wgt id="82">3.15355e-12</wgt>
  <wgt id="83">3.13985e-12</wgt>
  <wgt id="84">3.14675e-12</wgt>
  <wgt id="85">3.14636e-12</wgt>
  <wgt id="86">3.16277e-12</wgt>
  <wgt id="87">3.13517e-12</wgt>
  <wgt id="88">3.15776e-12</wgt>
  <wgt id="89">3.15673e-12</wgt>
  <wgt id="90">3.15924e-12</wgt>
  <wgt id="91">3.15626e-12</wgt>
  <wgt id="92">3.16015e-12</wgt>
  <wgt id="93">3.15364e-12</wgt>
  <wgt id="94">3.15006e-12</wgt>
  <wgt id="95">3.15679e-12</wgt>
  <wgt id="96">3.15621e-12</wgt>
  <wgt id="97">3.14821e-12</wgt>
  <wgt id="98">3.15499e-12</wgt>
  <wgt id="99">3.15091e-12</wgt>
  <wgt id="100">3.15695e-12</wgt>
  <wgt id="101">3.15259e-12</wgt>
  <wgt id="102">3.14994e-12</wgt>
  <wgt id="103">3.15855e-12</wgt>
  <wgt id="104">3.15117e-12</wgt>
  <wgt id="105">3.1573e-12</wgt>
  <wgt id="106">3.14871e-12</wgt>
  <wgt id="107">3.16292e-12</wgt>
  <wgt id="108">3.15002e-12</wgt>
  <wgt id="109">3.15428e-12</wgt>
  <wgt id="110">3.15337e-12</wgt>
  <wgt id="111">3.17981e-12</wgt>
  <wgt id="112">3.15669e-12</wgt>
  <wgt id="113">4.33217e-12</wgt>
  <wgt id="114">4.43069e-12</wgt>
  <wgt id="115">4.36839e-12</wgt>
  <wgt id="116">6.26646e-12</wgt>
  <wgt id="117">3.55258e-12</wgt>
  <wgt id="118">3.56601e-12</wgt>
  <wgt id="119">3.54489e-12</wgt>
  <wgt id="120">3.5528e-12</wgt>
  <wgt id="121">3.55243e-12</wgt>
  <wgt id="122">3.54643e-12</wgt>
  <wgt id="123">3.56086e-12</wgt>
  <wgt id="124">3.54759e-12</wgt>
  <wgt id="125">3.55573e-12</wgt>
  <wgt id="126">3.55951e-12</wgt>
  <wgt id="127">3.54792e-12</wgt>
  <wgt id="128">3.56371e-12</wgt>
  <wgt id="129">3.54152e-12</wgt>
  <wgt id="130">3.57348e-12</wgt>
  <wgt id="131">3.5312e-12</wgt>
  <wgt id="132">3.45723e-12</wgt>
  <wgt id="133">3.66577e-12</wgt>
  <wgt id="134">3.51282e-12</wgt>
  <wgt id="135">3.58375e-12</wgt>
  <wgt id="136">3.6007e-12</wgt>
  <wgt id="137">3.49431e-12</wgt>
  <wgt id="138">3.69772e-12</wgt>
  <wgt id="139">3.41282e-12</wgt>
  <wgt id="140">3.52986e-12</wgt>
  <wgt id="141">3.57025e-12</wgt>
  <wgt id="142">3.55294e-12</wgt>
  <wgt id="143">3.55837e-12</wgt>
  <wgt id="144">3.44002e-12</wgt>
  <wgt id="145">3.65822e-12</wgt>
  <wgt id="146">3.58864e-12</wgt>
  <wgt id="147">3.52372e-12</wgt>
  <wgt id="148">3.56422e-12</wgt>
  <wgt id="149">3.55176e-12</wgt>
  <wgt id="150">3.58415e-12</wgt>
  <wgt id="151">3.53787e-12</wgt>
  <wgt id="152">3.55443e-12</wgt>
  <wgt id="153">3.5518e-12</wgt>
  <wgt id="154">3.57803e-12</wgt>
  <wgt id="155">3.52128e-12</wgt>
  <wgt id="156">3.63491e-12</wgt>
  <wgt id="157">3.46967e-12</wgt>
  <wgt id="158">4.27173e-12</wgt>
  <wgt id="159">4.28978e-12</wgt>
  <wgt id="160">4.25751e-12</wgt>
  <wgt id="161">4.26047e-12</wgt>
  <wgt id="162">4.2848e-12</wgt>
  <wgt id="163">4.26682e-12</wgt>
  <wgt id="164">4.27933e-12</wgt>
  <wgt id="165">4.27349e-12</wgt>
  <wgt id="166">4.27061e-12</wgt>
  <wgt id="167">4.26873e-12</wgt>
  <wgt id="168">4.27632e-12</wgt>
  <wgt id="169">4.25379e-12</wgt>
  <wgt id="170">4.28319e-12</wgt>
  <wgt id="171">4.26688e-12</wgt>
  <wgt id="172">4.2789e-12</wgt>
  <wgt id="173">4.27059e-12</wgt>
  <wgt id="174">4.27223e-12</wgt>
  <wgt id="175">4.14731e-12</wgt>
  <wgt id="176">4.43475e-12</wgt>
  <wgt id="177">4.29602e-12</wgt>
  <wgt id="178">4.24977e-12</wgt>
  <wgt id="179">4.46214e-12</wgt>
  <wgt id="180">3.97325e-12</wgt>
  <wgt id="181">4.14081e-12</wgt>
  <wgt id="182">4.35844e-12</wgt>
  <wgt id="183">4.19204e-12</wgt>
  <wgt id="184">4.3116e-12</wgt>
  <wgt id="185">4.23544e-12</wgt>
  <wgt id="186">4.31689e-12</wgt>
  <wgt id="187">4.23185e-12</wgt>
  <wgt id="188">4.34401e-12</wgt>
  <wgt id="189">4.24253e-12</wgt>
  <wgt id="190">4.28382e-12</wgt>
  <wgt id="191">4.28427e-12</wgt>
  <wgt id="192">4.26449e-12</wgt>
  <wgt id="193">4.3367e-12</wgt>
  <wgt id="194">4.23988e-12</wgt>
  <wgt id="195">4.14926e-12</wgt>
  <wgt id="196">4.48202e-12</wgt>
  <wgt id="197">4.29421e-12</wgt>
  <wgt id="198">4.26663e-12</wgt>
  <wgt id="199">4.27173e-12</wgt>
  <wgt id="200">4.30989e-12</wgt>
  <wgt id="201">4.29628e-12</wgt>
  <wgt id="202">4.28278e-12</wgt>
  <wgt id="203">4.26273e-12</wgt>
  <wgt id="204">4.25312e-12</wgt>
  <wgt id="205">4.24546e-12</wgt>
  <wgt id="206">4.12994e-12</wgt>
  <wgt id="207">4.15436e-12</wgt>
  <wgt id="208">4.10596e-12</wgt>
  <wgt id="209">4.1442e-12</wgt>
  <wgt id="210">4.11986e-12</wgt>
  <wgt id="211">4.12835e-12</wgt>
  <wgt id="212">4.13142e-12</wgt>
  <wgt id="213">4.12973e-12</wgt>
  <wgt id="214">4.13056e-12</wgt>
  <wgt id="215">4.13343e-12</wgt>
  <wgt id="216">4.12766e-12</wgt>
  <wgt id="217">4.14226e-12</wgt>
  <wgt id="218">4.12054e-12</wgt>
  <wgt id="219">4.12677e-12</wgt>
  <wgt id="220">4.13216e-12</wgt>
  <wgt id="221">4.1286e-12</wgt>
  <wgt id="222">4.13367e-12</wgt>
  <wgt id="223">3.904e-12</wgt>
  <wgt id="224">4.33643e-12</wgt>
  <wgt id="225">4.07812e-12</wgt>
  <wgt id="226">4.19552e-12</wgt>
  <wgt id="227">4.08985e-12</wgt>
  <wgt id="228">4.14766e-12</wgt>
  <wgt id="229">4.07096e-12</wgt>
  <wgt id="230">4.15955e-12</wgt>
  <wgt id="231">4.2532e-12</wgt>
  <wgt id="232">4.02912e-12</wgt>
  <wgt id="233">4.10747e-12</wgt>
  <wgt id="234">4.1664e-12</wgt>
  <wgt id="235">4.03005e-12</wgt>
  <wgt id="236">4.2192e-12</wgt>
  <wgt id="237">4.06501e-12</wgt>
  <wgt id="238">4.15218e-12</wgt>
  <wgt id="239">4.10245e-12</wgt>
  <wgt id="240">4.17999e-12</wgt>
  <wgt id="241">4.08589e-12</wgt>
  <wgt id="242">4.18356e-12</wgt>
  <wgt id="243">4.1906e-12</wgt>
  <wgt id="244">4.14656e-12</wgt>
  <wgt id="245">4.12778e-12</wgt>
  <wgt id="246">4.15888e-12</wgt>
  <wgt id="247">4.12994e-12</wgt>
  <wgt id="248">4.16716e-12</wgt>
  <wgt id="249">4.15298e-12</wgt>
  <wgt id="250">4.13994e-12</wgt>
  <wgt id="251">4.12039e-12</wgt>
  <wgt id="252">4.1111e-12</wgt>
  <wgt id="253">4.10462e-12</wgt>
  <wgt id="254">4.04447e-12</wgt>
  <wgt id="255">4.04827e-12</wgt>
  <wgt id="256">4.0402e-12</wgt>
  <wgt id="257">4.04729e-12</wgt>
  <wgt id="258">4.04235e-12</wgt>
  <wgt id="259">4.07156e-12</wgt>
  <wgt id="260">4.01827e-12</wgt>
  <wgt id="261">4.05127e-12</wgt>
  <wgt id="262">4.03611e-12</wgt>
  <wgt id="263">4.04222e-12</wgt>
  <wgt id="264">4.0469e-12</wgt>
  <wgt id="265">4.0393e-12</wgt>
  <wgt id="266">4.0547e-12</wgt>
  <wgt id="267">4.04573e-12</wgt>
  <wgt id="268">4.04245e-12</wgt>
  <wgt id="269">4.05835e-12</wgt>
  <wgt id="270">4.03497e-12</wgt>
  <wgt id="271">4.03741e-12</wgt>
  <wgt id="272">4.05248e-12</wgt>
  <wgt id="273">4.03145e-12</wgt>
  <wgt id="274">4.05427e-12</wgt>
  <wgt id="275">4.02645e-12</wgt>
  <wgt id="276">4.06301e-12</wgt>
  <wgt id="277">4.02063e-12</wgt>
  <wgt id="278">4.06625e-12</wgt>
  <wgt id="279">3.96381e-12</wgt>
  <wgt id="280">4.14563e-12</wgt>
  <wgt id="281">4.02571e-12</wgt>
  <wgt id="282">4.0458e-12</wgt>
  <wgt id="283">3.92373e-12</wgt>
  <wgt id="284">4.1933e-12</wgt>
  <wgt id="285">3.84505e-12</wgt>
  <wgt id="286">4.20984e-12</wgt>
  <wgt id="287">4.05755e-12</wgt>
  <wgt id="288">4.02767e-12</wgt>
  <wgt id="289">4.07388e-12</wgt>
  <wgt id="290">3.97651e-12</wgt>
  <wgt id="291">4.03233e-12</wgt>
  <wgt id="292">4.04706e-12</wgt>
  <wgt id="293">4.01203e-12</wgt>
  <wgt id="294">4.07657e-12</wgt>
  <wgt id="295">3.96546e-12</wgt>
  <wgt id="296">4.14081e-12</wgt>
  <wgt id="297">4.04238e-12</wgt>
  <wgt id="298">4.06138e-12</wgt>
  <wgt id="299">4.03076e-12</wgt>
  <wgt id="300">4.08038e-12</wgt>
  <wgt id="301">3.97962e-12</wgt>
  <wgt id="302">4.20125e-12</wgt>
  <wgt id="303">4.00994e-12</wgt>
  <wgt id="304">4.06408e-12</wgt>
  <wgt id="305">4.05106e-12</wgt>
  <wgt id="306">4.05535e-12</wgt>
  <wgt id="307">4.04653e-12</wgt>
  <wgt id="308">4.05444e-12</wgt>
  <wgt id="309">4.04897e-12</wgt>
  <wgt id="310">4.07932e-12</wgt>
  <wgt id="311">4.025e-12</wgt>
  <wgt id="312">4.05703e-12</wgt>
  <wgt id="313">4.04502e-12</wgt>
  <wgt id="314">4.04898e-12</wgt>
  <wgt id="315">4.0531e-12</wgt>
  <wgt id="316">4.04609e-12</wgt>
  <wgt id="317">4.0619e-12</wgt>
  <wgt id="318">4.05432e-12</wgt>
  <wgt id="319">4.04559e-12</wgt>
  <wgt id="320">4.06585e-12</wgt>
  <wgt id="321">4.04291e-12</wgt>
  <wgt id="322">4.04199e-12</wgt>
  <wgt id="323">4.06166e-12</wgt>
  <wgt id="324">4.04031e-12</wgt>
  <wgt id="325">4.06052e-12</wgt>
  <wgt id="326">4.03666e-12</wgt>
  <wgt id="327">4.06962e-12</wgt>
  <wgt id="328">4.02983e-12</wgt>
  <wgt id="329">4.063e-12</wgt>
  <wgt id="330">4.17425e-12</wgt>
  <wgt id="331">3.93392e-12</wgt>
  <wgt id="332">4.03531e-12</wgt>
  <wgt id="333">4.05171e-12</wgt>
  <wgt id="334">3.95655e-12</wgt>
  <wgt id="335">4.16869e-12</wgt>
  <wgt id="336">3.90655e-12</wgt>
  <wgt id="337">4.22751e-12</wgt>
  <wgt id="338">4.09754e-12</wgt>
  <wgt id="339">4.00822e-12</wgt>
  <wgt id="340">4.07869e-12</wgt>
  <wgt id="341">3.9803e-12</wgt>
  <wgt id="342">4.04251e-12</wgt>
  <wgt id="343">4.04692e-12</wgt>
  <wgt id="344">4.02193e-12</wgt>
  <wgt id="345">4.08494e-12</wgt>
  <wgt id="346">3.96918e-12</wgt>
  <wgt id="347">4.14554e-12</wgt>
  <wgt id="348">4.05045e-12</wgt>
  <wgt id="349">4.06568e-12</wgt>
  <wgt id="350">4.03407e-12</wgt>
  <wgt id="351">4.09426e-12</wgt>
  <wgt id="352">3.97992e-12</wgt>
  <wgt id="353">4.21384e-12</wgt>
  <wgt id="354">3.99875e-12</wgt>
  <wgt id="355">4.08282e-12</wgt>
  <wgt id="356">4.04447e-12</wgt>
  <wgt id="357">4.06619e-12</wgt>
  <wgt id="358">4.05106e-12</wgt>
  <wgt id="359">4.05703e-12</wgt>
  <wgt id="360">4.07738e-12</wgt>
  <wgt id="361">4.05852e-12</wgt>
  <wgt id="362">4.13228e-12</wgt>
  <wgt id="363">4.12187e-12</wgt>
  <wgt id="364">4.10666e-12</wgt>
  <wgt id="365">4.09212e-12</wgt>
  <wgt id="366">4.07615e-12</wgt>
  <wgt id="367">4.0438e-12</wgt>
  <wgt id="368">4.02577e-12</wgt>
  <wgt id="369">4.00618e-12</wgt>
  <wgt id="370">4.05852e-12</wgt>
  <wgt id="371">4.07699e-12</wgt>
  <wgt id="372">4.0669e-12</wgt>
  <wgt id="373">4.0518e-12</wgt>
  <wgt id="374">4.05126e-12</wgt>
  <wgt id="375">4.36395e-12</wgt>
  <wgt id="376">4.36456e-12</wgt>
  <wgt id="377">4.36302e-12</wgt>
  <wgt id="378">4.37995e-12</wgt>
  <wgt id="379">4.34791e-12</wgt>
  <wgt id="380">4.37544e-12</wgt>
  <wgt id="381">4.35931e-12</wgt>
  <wgt id="382">4.38769e-12</wgt>
  <wgt id="383">4.34028e-12</wgt>
  <wgt id="384">4.3668e-12</wgt>
  <wgt id="385">4.3611e-12</wgt>
  <wgt id="386">4.3824e-12</wgt>
  <wgt id="387">4.35587e-12</wgt>
  <wgt id="388">4.35949e-12</wgt>
  <wgt id="389">4.36907e-12</wgt>
  <wgt id="390">4.37623e-12</wgt>
  <wgt id="391">4.35097e-12</wgt>
  <wgt id="392">4.32772e-12</wgt>
  <wgt id="393">4.38448e-12</wgt>
  <wgt id="394">4.36999e-12</wgt>
  <wgt id="395">4.35555e-12</wgt>
  <wgt id="396">4.36801e-12</wgt>
  <wgt id="397">4.36104e-12</wgt>
  <wgt id="398">4.34391e-12</wgt>
  <wgt id="399">4.38333e-12</wgt>
  <wgt id="400">4.35607e-12</wgt>
  <wgt id="401">4.38166e-12</wgt>
  <wgt id="402">4.32636e-12</wgt>
  <wgt id="403">4.38123e-12</wgt>
  <wgt id="404">4.46993e-12</wgt>
  <wgt id="405">4.10882e-12</wgt>
  <wgt id="406">4.28791e-12</wgt>
  <wgt id="407">4.52926e-12</wgt>
  <wgt id="408">4.403e-12</wgt>
  <wgt id="409">4.28948e-12</wgt>
  <wgt id="410">4.23979e-12</wgt>
  <wgt id="411">4.42178e-12</wgt>
  <wgt id="412">4.35571e-12</wgt>
  <wgt id="413">4.37629e-12</wgt>
  <wgt id="414">4.31428e-12</wgt>
  <wgt id="415">4.40256e-12</wgt>
  <wgt id="416">4.48726e-12</wgt>
  <wgt id="417">4.19381e-12</wgt>
  <wgt id="418">4.37004e-12</wgt>
  <wgt id="419">4.33084e-12</wgt>
  <wgt id="420">4.43955e-12</wgt>
  <wgt id="421">4.3189e-12</wgt>
  <wgt id="422">4.35316e-12</wgt>
  <wgt id="423">4.36966e-12</wgt>
  <wgt id="424">4.46226e-12</wgt>
  <wgt id="425">4.30115e-12</wgt>
  <wgt id="426">4.36395e-12</wgt>
  <wgt id="427">4.31947e-12</wgt>
  <wgt id="428">4.49107e-12</wgt>
  <wgt id="429">4.40726e-12</wgt>
  <wgt id="430">4.53559e-12</wgt>
  <wgt id="431">4.50983e-12</wgt>
  <wgt id="432">4.4857e-12</wgt>
  <wgt id="433">4.46224e-12</wgt>
  <wgt id="434">4.43362e-12</wgt>
  <wgt id="435">4.37446e-12</wgt>
  <wgt id="436">4.34423e-12</wgt>
  <wgt id="437">4.31529e-12</wgt>
  <wgt id="438">4.40726e-12</wgt>
  <wgt id="439">4.42182e-12</wgt>
  <wgt id="440">4.41326e-12</wgt>
  <wgt id="441">4.4029e-12</wgt>
  <wgt id="442">4.39922e-12</wgt>
  <wgt id="443">4.23698e-12</wgt>
  <wgt id="444">4.26351e-12</wgt>
  <wgt id="445">4.21956e-12</wgt>
  <wgt id="446">4.20893e-12</wgt>
  <wgt id="447">4.2215e-12</wgt>
  <wgt id="448">4.12052e-12</wgt>
  <wgt id="449">4.30584e-12</wgt>
  <wgt id="450">4.22393e-12</wgt>
  <wgt id="451">4.22934e-12</wgt>
  <wgt id="452">4.33781e-12</wgt>
  <wgt id="453">4.28173e-12</wgt>
  <wgt id="454">4.0629e-12</wgt>
  <wgt id="455">4.24285e-12</wgt>
  <wgt id="456">4.20847e-12</wgt>
  <wgt id="457">4.25599e-12</wgt>
  <wgt id="458">4.28789e-12</wgt>
  <wgt id="459">4.26673e-12</wgt>
  <wgt id="460">4.26227e-12</wgt>
  <wgt id="461">4.15247e-12</wgt>
  <wgt id="462">4.19903e-12</wgt>
  <wgt id="463">4.18768e-12</wgt>
  <wgt id="464">4.21044e-12</wgt>
  <wgt id="465">4.28537e-12</wgt>
  <wgt id="466">4.18385e-12</wgt>
  <wgt id="467">4.19275e-12</wgt>
  <wgt id="468">4.22464e-12</wgt>
  <wgt id="469">4.22349e-12</wgt>
  <wgt id="470">4.19715e-12</wgt>
  <wgt id="471">4.19621e-12</wgt>
  <wgt id="472">4.25852e-12</wgt>
  <wgt id="473">4.08836e-12</wgt>
  <wgt id="474">3.0282e-12</wgt>
  <wgt id="475">3.206e-12</wgt>
  <wgt id="476">2.95687e-12</wgt>
  <wgt id="477">2.9059e-12</wgt>
  <wgt id="478">3.04276e-12</wgt>
  <wgt id="479">2.95735e-12</wgt>
  <wgt id="480">3.14995e-12</wgt>
  <wgt id="481">2.9773e-12</wgt>
  <wgt id="482">2.92632e-12</wgt>
  <wgt id="483">2.94737e-12</wgt>
  <wgt id="484">3.21569e-12</wgt>
  <wgt id="485">3.01451e-12</wgt>
  <wgt id="486">3.12928e-12</wgt>
  <wgt id="487">3.09347e-12</wgt>
  <wgt id="488">3.07723e-12</wgt>
  <wgt id="489">2.92631e-12</wgt>
  <wgt id="490">2.92303e-12</wgt>
  <wgt id="491">2.99467e-12</wgt>
  <wgt id="492">2.93845e-12</wgt>
  <wgt id="493">2.90767e-12</wgt>
  <wgt id="494">2.9344e-12</wgt>
  <wgt id="495">3.09987e-12</wgt>
  <wgt id="496">2.92936e-12</wgt>
  <wgt id="497">2.90131e-12</wgt>
  <wgt id="498">3.08043e-12</wgt>
  <wgt id="499">2.95812e-12</wgt>
  <wgt id="500">2.98205e-12</wgt>
  <wgt id="501">3.17402e-12</wgt>
  <wgt id="502">2.96176e-12</wgt>
  <wgt id="503">3.02899e-12</wgt>
  <wgt id="504">3.06884e-12</wgt>
  <wgt id="505">2.99774e-12</wgt>
  <wgt id="506">3.09725e-12</wgt>
  <wgt id="507">3.00628e-12</wgt>
  <wgt id="508">3.07545e-12</wgt>
  <wgt id="509">2.92332e-12</wgt>
  <wgt id="510">3.11753e-12</wgt>
  <wgt id="511">2.96738e-12</wgt>
  <wgt id="512">3.08635e-12</wgt>
  <wgt id="513">3.17947e-12</wgt>
  <wgt id="514">3.01465e-12</wgt>
  <wgt id="515">2.98938e-12</wgt>
  <wgt id="516">3.12691e-12</wgt>
  <wgt id="517">3.09001e-12</wgt>
  <wgt id="518">3.09531e-12</wgt>
  <wgt id="519">2.93126e-12</wgt>
  <wgt id="520">3.06952e-12</wgt>
  <wgt id="521">3.12561e-12</wgt>
  <wgt id="522">3.14939e-12</wgt>
  <wgt id="523">3.0956e-12</wgt>
  <wgt id="524">3.06393e-12</wgt>
  <wgt id="525">3.13398e-12</wgt>
  <wgt id="526">3.05255e-12</wgt>
  <wgt id="527">3.06649e-12</wgt>
  <wgt id="528">3.05404e-12</wgt>
  <wgt id="529">2.96633e-12</wgt>
  <wgt id="530">3.07095e-12</wgt>
  <wgt id="531">2.99763e-12</wgt>
  <wgt id="532">3.21037e-12</wgt>
  <wgt id="533">2.85384e-12</wgt>
  <wgt id="534">3.04405e-12</wgt>
  <wgt id="535">3.09124e-12</wgt>
  <wgt id="536">3.00436e-12</wgt>
  <wgt id="537">3.03516e-12</wgt>
  <wgt id="538">3.05427e-12</wgt>
  <wgt id="539">2.9774e-12</wgt>
  <wgt id="540">2.96112e-12</wgt>
  <wgt id="541">2.92719e-12</wgt>
  <wgt id="542">2.98585e-12</wgt>
  <wgt id="543">3.02178e-12</wgt>
  <wgt id="544">3.17607e-12</wgt>
  <wgt id="545">2.987e-12</wgt>
  <wgt id="546">2.98006e-12</wgt>
  <wgt id="547">2.9356e-12</wgt>
  <wgt id="548">2.90422e-12</wgt>
  <wgt id="549">2.9712e-12</wgt>
  <wgt id="550">2.98559e-12</wgt>
  <wgt id="551">3.0553e-12</wgt>
  <wgt id="552">2.99262e-12</wgt>
  <wgt id="553">3.01498e-12</wgt>
  <wgt id="554">3.24931e-12</wgt>
  <wgt id="555">3.10169e-12</wgt>
  <wgt id="556">2.92303e-12</wgt>
  <wgt id="557">3.08427e-12</wgt>
  <wgt id="558">2.93302e-12</wgt>
  <wgt id="559">2.98354e-12</wgt>
  <wgt id="560">3.29582e-12</wgt>
  <wgt id="561">2.97817e-12</wgt>
  <wgt id="562">3.08627e-12</wgt>
  <wgt id="563">2.94472e-12</wgt>
  <wgt id="564">3.03969e-12</wgt>
  <wgt id="565">2.90972e-12</wgt>
  <wgt id="566">3.08452e-12</wgt>
  <wgt id="567">2.98953e-12</wgt>
  <wgt id="568">3.00833e-12</wgt>
  <wgt id="569">3.09972e-12</wgt>
  <wgt id="570">2.91686e-12</wgt>
  <wgt id="571">3.36191e-12</wgt>
  <wgt id="572">2.95594e-12</wgt>
  <wgt id="573">2.89659e-12</wgt>
  <wgt id="574">2.92057e-12</wgt>
  <wgt id="575">3.34658e-12</wgt>
  <wgt id="576">3.34017e-12</wgt>
  <wgt id="577">3.42413e-12</wgt>
  <wgt id="578">3.44914e-12</wgt>
  <wgt id="579">3.41959e-12</wgt>
  <wgt id="580">3.42487e-12</wgt>
  <wgt id="581">3.57796e-12</wgt>
  <wgt id="582">3.33229e-12</wgt>
  <wgt id="583">3.38581e-12</wgt>
  <wgt id="584">3.35091e-12</wgt>
  <wgt id="585">3.35926e-12</wgt>
  <wgt id="586">3.26807e-12</wgt>
  <wgt id="587">3.40024e-12</wgt>
  <wgt id="588">3.33729e-12</wgt>
  <wgt id="589">3.43249e-12</wgt>
  <wgt id="590">3.40275e-12</wgt>
  <wgt id="591">3.46876e-12</wgt>
  <wgt id="592">3.25694e-12</wgt>
  <wgt id="593">3.33077e-12</wgt>
  <wgt id="594">3.42573e-12</wgt>
  <wgt id="595">3.34311e-12</wgt>
  <wgt id="596">3.37846e-12</wgt>
  <wgt id="597">3.26008e-12</wgt>
  <wgt id="598">3.22271e-12</wgt>
  <wgt id="599">3.52656e-12</wgt>
  <wgt id="600">3.3181e-12</wgt>
  <wgt id="601">3.25231e-12</wgt>
  <wgt id="602">3.2664e-12</wgt>
  <wgt id="603">3.26977e-12</wgt>
  <wgt id="604">3.3998e-12</wgt>
  <wgt id="605">3.4797e-12</wgt>
  <wgt id="606">3.28197e-12</wgt>
  <wgt id="607">3.31212e-12</wgt>
  <wgt id="608">3.39272e-12</wgt>
  <wgt id="609">3.17593e-12</wgt>
  <wgt id="610">3.22345e-12</wgt>
  <wgt id="611">3.36393e-12</wgt>
  <wgt id="612">3.571e-12</wgt>
  <wgt id="613">3.32853e-12</wgt>
  <wgt id="614">3.39102e-12</wgt>
  <wgt id="615">3.28074e-12</wgt>
  <wgt id="616">3.51189e-12</wgt>
  <wgt id="617">3.4781e-12</wgt>
  <wgt id="618">3.45208e-12</wgt>
  <wgt id="619">3.2962e-12</wgt>
  <wgt id="620">3.50729e-12</wgt>
  <wgt id="621">3.38838e-12</wgt>
  <wgt id="622">3.40024e-12</wgt>
  <wgt id="623">3.44643e-12</wgt>
  <wgt id="624">3.34334e-12</wgt>
  <wgt id="625">3.30326e-12</wgt>
  <wgt id="626">3.25167e-12</wgt>
  <wgt id="627">3.20205e-12</wgt>
  <wgt id="628">3.54369e-12</wgt>
  <wgt id="629">3.26932e-12</wgt>
  <wgt id="630">3.21039e-12</wgt>
  <wgt id="631">3.37248e-12</wgt>
  <wgt id="632">3.21168e-12</wgt>
  <wgt id="633">3.31323e-12</wgt>
  <wgt id="634">3.32279e-12</wgt>
  <wgt id="635">3.24848e-12</wgt>
  <wgt id="636">3.36737e-12</wgt>
  <wgt id="637">3.32555e-12</wgt>
  <wgt id="638">3.2112e-12</wgt>
  <wgt id="639">3.29412e-12</wgt>
  <wgt id="640">3.34332e-12</wgt>
  <wgt id="641">3.37948e-12</wgt>
  <wgt id="642">3.18398e-12</wgt>
  <wgt id="643">3.32107e-12</wgt>
  <wgt id="644">3.19365e-12</wgt>
  <wgt id="645">3.38227e-12</wgt>
  <wgt id="646">3.37554e-12</wgt>
  <wgt id="647">3.31111e-12</wgt>
  <wgt id="648">3.37227e-12</wgt>
  <wgt id="649">3.39677e-12</wgt>
  <wgt id="650">3.27835e-12</wgt>
  <wgt id="651">3.36019e-12</wgt>
  <wgt id="652">3.31127e-12</wgt>
  <wgt id="653">3.24788e-12</wgt>
  <wgt id="654">3.32296e-12</wgt>
  <wgt id="655">3.3001e-12</wgt>
  <wgt id="656">3.37934e-12</wgt>
  <wgt id="657">3.49798e-12</wgt>
  <wgt id="658">3.3401e-12</wgt>
  <wgt id="659">3.21015e-12</wgt>
  <wgt id="660">3.40863e-12</wgt>
  <wgt id="661">3.28709e-12</wgt>
  <wgt id="662">3.35037e-12</wgt>
  <wgt id="663">3.35297e-12</wgt>
  <wgt id="664">3.30216e-12</wgt>
  <wgt id="665">3.3369e-12</wgt>
  <wgt id="666">3.309e-12</wgt>
  <wgt id="667">3.45359e-12</wgt>
  <wgt id="668">3.34749e-12</wgt>
  <wgt id="669">3.42455e-12</wgt>
  <wgt id="670">3.42889e-12</wgt>
  <wgt id="671">3.32841e-12</wgt>
  <wgt id="672">3.20636e-12</wgt>
  <wgt id="673">3.36948e-12</wgt>
  <wgt id="674">3.28356e-12</wgt>
  <wgt id="675">3.30978e-12</wgt>
  <wgt id="676">4.25822e-12</wgt>
  <wgt id="677">4.30027e-12</wgt>
  <wgt id="678">4.47265e-12</wgt>
  <wgt id="679">3.96289e-12</wgt>
  <wgt id="680">4.17923e-12</wgt>
  <wgt id="681">4.33577e-12</wgt>
  <wgt id="682">4.41277e-12</wgt>
  <wgt id="683">4.18534e-12</wgt>
  <wgt id="684">4.45763e-12</wgt>
  <wgt id="685">4.03721e-12</wgt>
  <wgt id="686">4.139e-12</wgt>
  <wgt id="687">4.48182e-12</wgt>
  <wgt id="688">4.24406e-12</wgt>
  <wgt id="689">4.62848e-12</wgt>
  <wgt id="690">4.46518e-12</wgt>
  <wgt id="691">4.5324e-12</wgt>
  <wgt id="692">4.19635e-12</wgt>
  <wgt id="693">5.06041e-12</wgt>
  <wgt id="694">4.52377e-12</wgt>
  <wgt id="695">4.1258e-12</wgt>
  <wgt id="696">4.01897e-12</wgt>
  <wgt id="697">4.14398e-12</wgt>
  <wgt id="698">3.86216e-12</wgt>
  <wgt id="699">3.84191e-12</wgt>
  <wgt id="700">3.68359e-12</wgt>
  <wgt id="701">4.27646e-12</wgt>
  <wgt id="702">4.13419e-12</wgt>
  <wgt id="703">4.92943e-12</wgt>
  <wgt id="704">4.68834e-12</wgt>
  <wgt id="705">4.47065e-12</wgt>
  <wgt id="706">3.96274e-12</wgt>
  <wgt id="707">4.08034e-12</wgt>
  <wgt id="708">4.19802e-12</wgt>
  <wgt id="709">4.17989e-12</wgt>
  <wgt id="710">3.82137e-12</wgt>
  <wgt id="711">4.22723e-12</wgt>
  <wgt id="712">4.17177e-12</wgt>
  <wgt id="713">4.63794e-12</wgt>
  <wgt id="714">4.16219e-12</wgt>
  <wgt id="715">4.21149e-12</wgt>
  <wgt id="716">4.08952e-12</wgt>
  <wgt id="717">4.03614e-12</wgt>
  <wgt id="718">4.27255e-12</wgt>
  <wgt id="719">3.84789e-12</wgt>
  <wgt id="720">3.99936e-12</wgt>
  <wgt id="721">3.86303e-12</wgt>
  <wgt id="722">3.73166e-12</wgt>
  <wgt id="723">4.56783e-12</wgt>
  <wgt id="724">4.47953e-12</wgt>
  <wgt id="725">4.49282e-12</wgt>
  <wgt id="726">4.29609e-12</wgt>
  <wgt id="727">4.15948e-12</wgt>
  <wgt id="728">4.14349e-12</wgt>
  <wgt id="729">3.89057e-12</wgt>
  <wgt id="730">4.6399e-12</wgt>
  <wgt id="731">4.19977e-12</wgt>
  <wgt id="732">4.70628e-12</wgt>
  <wgt id="733">4.2461e-12</wgt>
  <wgt id="734">4.36632e-12</wgt>
  <wgt id="735">4.24213e-12</wgt>
  <wgt id="736">4.15893e-12</wgt>
  <wgt id="737">4.32608e-12</wgt>
  <wgt id="738">4.01761e-12</wgt>
  <wgt id="739">4.36108e-12</wgt>
  <wgt id="740">4.75481e-12</wgt>
  <wgt id="741">3.80212e-12</wgt>
  <wgt id="742">4.18908e-12</wgt>
  <wgt id="743">4.02981e-12</wgt>
  <wgt id="744">4.16986e-12</wgt>
  <wgt id="745">4.47805e-12</wgt>
  <wgt id="746">4.5634e-12</wgt>
  <wgt id="747">3.81385e-12</wgt>
  <wgt id="748">4.20981e-12</wgt>
  <wgt id="749">4.47802e-12</wgt>
  <wgt id="750">4.37292e-12</wgt>
  <wgt id="751">4.38567e-12</wgt>
  <wgt id="752">3.88162e-12</wgt>
  <wgt id="753">4.03879e-12</wgt>
  <wgt id="754">4.49487e-12</wgt>
  <wgt id="755">4.26635e-12</wgt>
  <wgt id="756">4.2861e-12</wgt>
  <wgt id="757">3.88938e-12</wgt>
  <wgt id="758">4.28515e-12</wgt>
  <wgt id="759">4.39506e-12</wgt>
  <wgt id="760">4.29309e-12</wgt>
  <wgt id="761">4.49391e-12</wgt>
  <wgt id="762">4.53455e-12</wgt>
  <wgt id="763">4.23055e-12</wgt>
  <wgt id="764">4.44291e-12</wgt>
  <wgt id="765">4.35833e-12</wgt>
  <wgt id="766">4.25694e-12</wgt>
  <wgt id="767">4.37667e-12</wgt>
  <wgt id="768">3.99568e-12</wgt>
  <wgt id="769">4.52963e-12</wgt>
  <wgt id="770">4.12403e-12</wgt>
  <wgt id="771">5.07984e-12</wgt>
  <wgt id="772">4.02449e-12</wgt>
  <wgt id="773">4.21849e-12</wgt>
  <wgt id="774">3.73647e-12</wgt>
  <wgt id="775">4.51506e-12</wgt>
  <wgt id="776">4.66272e-12</wgt>
  <wgt id="777">4.00022e-12</wgt>
  <wgt id="778">3.09026e-12</wgt>
  <wgt id="779">2.50362e-12</wgt>
  <wgt id="780">1.96774e-12</wgt>
  <wgt id="781">3.22528e-12</wgt>
  <wgt id="782">3.29164e-12</wgt>
  <wgt id="783">2.51814e-12</wgt>
  <wgt id="784">2.64883e-12</wgt>
  <wgt id="785">3.83297e-12</wgt>
  <wgt id="786">2.33498e-12</wgt>
  <wgt id="787">3.58461e-12</wgt>
  <wgt id="788">1.81784e-12</wgt>
  <wgt id="789">2.43768e-12</wgt>
  <wgt id="790">2.2911e-12</wgt>
  <wgt id="791">2.92582e-12</wgt>
  <wgt id="792">4.06986e-12</wgt>
  <wgt id="793">3.03227e-12</wgt>
  <wgt id="794">2.26891e-12</wgt>
  <wgt id="795">3.72198e-12</wgt>
  <wgt id="796">4.12829e-12</wgt>
  <wgt id="797">3.66202e-12</wgt>
  <wgt id="798">2.80091e-12</wgt>
  <wgt id="799">3.57196e-12</wgt>
  <wgt id="800">2.47179e-12</wgt>
  <wgt id="801">2.85362e-12</wgt>
  <wgt id="802">2.27567e-12</wgt>
  <wgt id="803">4.08834e-12</wgt>
  <wgt id="804">3.68947e-12</wgt>
  <wgt id="805">3.75264e-12</wgt>
  <wgt id="806">3.44034e-12</wgt>
  <wgt id="807">2.92182e-12</wgt>
  <wgt id="808">2.9939e-12</wgt>
  <wgt id="809">2.83442e-12</wgt>
  <wgt id="810">3.50943e-12</wgt>
  <wgt id="811">3.39404e-12</wgt>
  <wgt id="812">2.25696e-12</wgt>
  <wgt id="813">2.33591e-12</wgt>
  <wgt id="814">2.63754e-12</wgt>
  <wgt id="815">2.50471e-12</wgt>
  <wgt id="816">2.18669e-12</wgt>
  <wgt id="817">3.23442e-12</wgt>
  <wgt id="818">3.13153e-12</wgt>
  <wgt id="819">2.49423e-12</wgt>
  <wgt id="820">3.0846e-12</wgt>
  <wgt id="821">3.62164e-12</wgt>
  <wgt id="822">2.48053e-12</wgt>
  <wgt id="823">3.65932e-12</wgt>
  <wgt id="824">4.22807e-12</wgt>
  <wgt id="825">2.19287e-12</wgt>
  <wgt id="826">3.33461e-12</wgt>
  <wgt id="827">1.77685e-12</wgt>
  <wgt id="828">3.97645e-12</wgt>
  <wgt id="829">3.24184e-12</wgt>
  <wgt id="830">2.07244e-12</wgt>
  <wgt id="831">3.37302e-12</wgt>
  <wgt id="832">5.21533e-12</wgt>
  <wgt id="833">2.82381e-12</wgt>
  <wgt id="834">4.8676e-12</wgt>
  <wgt id="835">2.4667e-12</wgt>
  <wgt id="836">3.03161e-12</wgt>
  <wgt id="837">3.57137e-12</wgt>
  <wgt id="838">2.92179e-12</wgt>
  <wgt id="839">3.34419e-12</wgt>
  <wgt id="840">2.84159e-12</wgt>
  <wgt id="841">3.92572e-12</wgt>
  <wgt id="842">2.7668e-12</wgt>
  <wgt id="843">3.07632e-12</wgt>
  <wgt id="844">3.26435e-12</wgt>
  <wgt id="845">4.50349e-12</wgt>
  <wgt id="846">2.91869e-12</wgt>
  <wgt id="847">3.17671e-12</wgt>
  <wgt id="848">2.58347e-12</wgt>
  <wgt id="849">3.18791e-12</wgt>
  <wgt id="850">4.16242e-12</wgt>
  <wgt id="851">3.42593e-12</wgt>
  <wgt id="852">2.56248e-12</wgt>
  <wgt id="853">3.44758e-12</wgt>
  <wgt id="854">3.84486e-12</wgt>
  <wgt id="855">3.67637e-12</wgt>
  <wgt id="856">2.12716e-12</wgt>
  <wgt id="857">3.06386e-12</wgt>
  <wgt id="858">3.05209e-12</wgt>
  <wgt id="859">2.86169e-12</wgt>
  <wgt id="860">3.41343e-12</wgt>
  <wgt id="861">2.65353e-12</wgt>
  <wgt id="862">3.16375e-12</wgt>
  <wgt id="863">3.32227e-12</wgt>
  <wgt id="864">3.32405e-12</wgt>
  <wgt id="865">4.59261e-12</wgt>
  <wgt id="866">5.02707e-12</wgt>
  <wgt id="867">3.19217e-12</wgt>
  <wgt id="868">3.09347e-12</wgt>
  <wgt id="869">2.32193e-12</wgt>
  <wgt id="870">2.44794e-12</wgt>
  <wgt id="871">2.36955e-12</wgt>
  <wgt id="872">3.80503e-12</wgt>
  <wgt id="873">2.49892e-12</wgt>
  <wgt id="874">3.29471e-12</wgt>
  <wgt id="875">2.65623e-12</wgt>
  <wgt id="876">3.81123e-12</wgt>
  <wgt id="877">3.61695e-12</wgt>
  <wgt id="878">2.58064e-12</wgt>
  <wgt id="879">4.25822e-12</wgt>
  <wgt id="880">4.30027e-12</wgt>
  <wgt id="881">4.47265e-12</wgt>
  <wgt id="882">3.96289e-12</wgt>
  <wgt id="883">4.17923e-12</wgt>
  <wgt id="884">4.33577e-12</wgt>
  <wgt id="885">4.41277e-12</wgt>
  <wgt id="886">4.18534e-12</wgt>
  <wgt id="887">4.45763e-12</wgt>
  <wgt id="888">4.03721e-12</wgt>
  <wgt id="889">4.139e-12</wgt>
  <wgt id="890">4.48182e-12</wgt>
  <wgt id="891">4.24406e-12</wgt>
  <wgt id="892">4.62848e-12</wgt>
  <wgt id="893">4.46518e-12</wgt>
  <wgt id="894">4.5324e-12</wgt>
  <wgt id="895">4.19635e-12</wgt>
  <wgt id="896">5.06041e-12</wgt>
  <wgt id="897">4.52377e-12</wgt>
  <wgt id="898">4.1258e-12</wgt>
  <wgt id="899">4.01897e-12</wgt>
  <wgt id="900">4.14398e-12</wgt>
  <wgt id="901">3.86216e-12</wgt>
  <wgt id="902">3.84191e-12</wgt>
  <wgt id="903">3.68359e-12</wgt>
  <wgt id="904">4.27646e-12</wgt>
  <wgt id="905">4.13419e-12</wgt>
  <wgt id="906">4.92943e-12</wgt>
  <wgt id="907">4.68834e-12</wgt>
  <wgt id="908">4.47065e-12</wgt>
  <wgt id="909">3.96274e-12</wgt>
  <wgt id="910">4.08034e-12</wgt>
  <wgt id="911">4.19802e-12</wgt>
  <wgt id="912">4.17989e-12</wgt>
  <wgt id="913">3.82137e-12</wgt>
  <wgt id="914">4.22723e-12</wgt>
  <wgt id="915">4.17177e-12</wgt>
  <wgt id="916">4.63794e-12</wgt>
  <wgt id="917">4.16219e-12</wgt>
  <wgt id="918">4.21149e-12</wgt>
  <wgt id="919">4.08952e-12</wgt>
  <wgt id="920">4.03614e-12</wgt>
  <wgt id="921">4.27255e-12</wgt>
  <wgt id="922">3.84789e-12</wgt>
  <wgt id="923">3.99936e-12</wgt>
  <wgt id="924">3.86303e-12</wgt>
  <wgt id="925">3.73166e-12</wgt>
  <wgt id="926">4.56783e-12</wgt>
  <wgt id="927">4.47953e-12</wgt>
  <wgt id="928">4.49282e-12</wgt>
  <wgt id="929">4.29609e-12</wgt>
  <wgt id="930">4.15948e-12</wgt>
  <wgt id="931">4.14349e-12</wgt>
  <wgt id="932">3.89057e-12</wgt>
  <wgt id="933">4.6399e-12</wgt>
  <wgt id="934">4.19977e-12</wgt>
  <wgt id="935">4.70628e-12</wgt>
  <wgt id="936">4.2461e-12</wgt>
  <wgt id="937">4.36632e-12</wgt>
  <wgt id="938">4.24213e-12</wgt>
  <wgt id="939">4.15893e-12</wgt>
  <wgt id="940">4.32608e-12</wgt>
  <wgt id="941">4.01761e-12</wgt>
  <wgt id="942">4.36108e-12</wgt>
  <wgt id="943">4.75481e-12</wgt>
  <wgt id="944">3.80212e-12</wgt>
  <wgt id="945">4.18908e-12</wgt>
  <wgt id="946">4.02981e-12</wgt>
  <wgt id="947">4.16986e-12</wgt>
  <wgt id="948">4.47805e-12</wgt>
  <wgt id="949">4.5634e-12</wgt>
  <wgt id="950">3.81385e-12</wgt>
  <wgt id="951">4.20981e-12</wgt>
  <wgt id="952">4.47802e-12</wgt>
  <wgt id="953">4.37292e-12</wgt>
  <wgt id="954">4.38567e-12</wgt>
  <wgt id="955">3.88162e-12</wgt>
  <wgt id="956">4.03879e-12</wgt>
  <wgt id="957">4.49487e-12</wgt>
  <wgt id="958">4.26635e-12</wgt>
  <wgt id="959">4.2861e-12</wgt>
  <wgt id="960">3.88938e-12</wgt>
  <wgt id="961">4.28515e-12</wgt>
  <wgt id="962">4.39506e-12</wgt>
  <wgt id="963">4.29309e-12</wgt>
  <wgt id="964">4.49391e-12</wgt>
  <wgt id="965">4.53455e-12</wgt>
  <wgt id="966">4.23055e-12</wgt>
  <wgt id="967">4.44291e-12</wgt>
  <wgt id="968">4.35833e-12</wgt>
  <wgt id="969">4.25694e-12</wgt>
  <wgt id="970">4.37667e-12</wgt>
  <wgt id="971">3.99568e-12</wgt>
  <wgt id="972">4.52963e-12</wgt>
  <wgt id="973">4.12403e-12</wgt>
  <wgt id="974">5.07984e-12</wgt>
  <wgt id="975">4.02449e-12</wgt>
  <wgt id="976">4.21849e-12</wgt>
  <wgt id="977">3.73647e-12</wgt>
  <wgt id="978">4.51506e-12</wgt>
  <wgt id="979">4.66272e-12</wgt>
  <wgt id="980">4.25138e-12</wgt>
  <wgt id="981">4.29013e-12</wgt>
  <wgt id="982">4.13232e-12</wgt>
</rwgt>
</event>
<event>
 5   1  0.3028200E-11  0.2598612E+04  0.7818608E-02  0.7613424E-01
       21   -1    0    0  502  501  0.00000000000E+00  0.00000000000E+00  0.18922267468E+04  0.18922267468E+04  0.00000000000E+00 0.  1.
       21   -1    0    0  501  502 -0.00000000000E+00 -0.00000000000E+00 -0.89217459189E+03  0.89217459189E+03  0.00000000000E+00 0. -1.
       39    2    1    2    0    0  0.00000000000E+00  0.00000000000E+00  0.10000521549E+04  0.27844013386E+04  0.25986124186E+04 0.  0.
       25    1    3    3    0    0 -0.92209776073E+03 -0.51818500356E+03  0.12974027476E+04  0.16785883557E+04  0.12500000000E+03 0.  0.
       25    1    3    3    0    0  0.92209776073E+03  0.51818500356E+03 -0.29735059278E+03  0.11058129830E+04  0.12500000000E+03 0.  0.
<mgrwt>
<rscale>  0 0.25986124E+04</rscale>
<asrwt>0</asrwt>
<pdfrwt beam="1">  1       21 0.29111181E+00 0.25986124E+04</pdfrwt>
<pdfrwt beam="2">  1       21 0.13725763E+00 0.25986124E+04</pdfrwt>
<totfact> 0.45170755E+00</totfact>
</mgrwt>
<rwgt>
  <wgt id="1">3.0282e-12</wgt>
  <wgt id="2">2.61123e-12</wgt>
  <wgt id="3">3.5511e-12</wgt>
  <wgt id="4">3.0282e-12</wgt>
  <wgt id="5">2.61123e-12</wgt>
  <wgt id="6">3.5511e-12</wgt>
  <wgt id="7">3.0282e-12</wgt>
  <wgt id="8">2.61123e-12</wgt>
  <wgt id="9">3.5511e-12</wgt>
  <wgt id="10">3.19134e-12</wgt>
  <wgt id="11">3.18915e-12</wgt>
  <wgt id="12">3.18422e-12</wgt>
  <wgt id="13">3.18252e-12</wgt>
  <wgt id="14">3.20266e-12</wgt>
  <wgt id="15">3.19666e-12</wgt>
  <wgt id="16">3.18484e-12</wgt>
  <wgt id="17">3.20362e-12</wgt>
  <wgt id="18">3.18585e-12</wgt>
  <wgt id="19">3.20234e-12</wgt>
  <wgt id="20">3.18641e-12</wgt>
  <wgt id="21">3.16717e-12</wgt>
  <wgt id="22">3.17178e-12</wgt>
  <wgt id="23">3.14842e-12</wgt>
  <wgt id="24">3.17056e-12</wgt>
  <wgt id="25">3.1801e-12</wgt>
  <wgt id="26">3.2027e-12</wgt>
  <wgt id="27">3.18738e-12</wgt>
  <wgt id="28">3.1728e-12</wgt>
  <wgt id="29">3.19322e-12</wgt>
  <wgt id="30">3.17225e-12</wgt>
  <wgt id="31">3.2046e-12</wgt>
  <wgt id="32">3.17608e-12</wgt>
  <wgt id="33">3.19795e-12</wgt>
  <wgt id="34">3.17371e-12</wgt>
  <wgt id="35">3.17889e-12</wgt>
  <wgt id="36">3.20663e-12</wgt>
  <wgt id="37">3.18131e-12</wgt>
  <wgt id="38">3.17856e-12</wgt>
  <wgt id="39">3.24006e-12</wgt>
  <wgt id="40">3.1954e-12</wgt>
  <wgt id="41">3.18915e-12</wgt>
  <wgt id="42">3.19778e-12</wgt>
  <wgt id="43">3.19199e-12</wgt>
  <wgt id="44">3.19624e-12</wgt>
  <wgt id="45">3.19787e-12</wgt>
  <wgt id="46">3.18572e-12</wgt>
  <wgt id="47">3.20389e-12</wgt>
  <wgt id="48">3.20204e-12</wgt>
  <wgt id="49">3.18115e-12</wgt>
  <wgt id="50">3.18145e-12</wgt>
  <wgt id="51">3.18439e-12</wgt>
  <wgt id="52">3.19754e-12</wgt>
  <wgt id="53">3.1973e-12</wgt>
  <wgt id="54">3.19769e-12</wgt>
  <wgt id="55">3.19136e-12</wgt>
  <wgt id="56">3.18932e-12</wgt>
  <wgt id="57">3.1845e-12</wgt>
  <wgt id="58">3.18173e-12</wgt>
  <wgt id="59">3.18924e-12</wgt>
  <wgt id="60">3.17735e-12</wgt>
  <wgt id="61">3.17194e-12</wgt>
  <wgt id="62">3.183e-12</wgt>
  <wgt id="63">3.18898e-12</wgt>
  <wgt id="64">3.19032e-12</wgt>
  <wgt id="65">3.18647e-12</wgt>
  <wgt id="66">3.1901e-12</wgt>
  <wgt id="67">3.18085e-12</wgt>
  <wgt id="68">3.19007e-12</wgt>
  <wgt id="69">3.18794e-12</wgt>
  <wgt id="70">3.18685e-12</wgt>
  <wgt id="71">3.1872e-12</wgt>
  <wgt id="72">3.17495e-12</wgt>
  <wgt id="73">3.2033e-12</wgt>
  <wgt id="74">3.19848e-12</wgt>
  <wgt id="75">3.19248e-12</wgt>
  <wgt id="76">3.20882e-12</wgt>
  <wgt id="77">3.18692e-12</wgt>
  <wgt id="78">3.18825e-12</wgt>
  <wgt id="79">3.2005e-12</wgt>
  <wgt id="80">3.16842e-12</wgt>
  <wgt id="81">3.19129e-12</wgt>
  <wgt id="82">3.19321e-12</wgt>
  <wgt id="83">3.17397e-12</wgt>
  <wgt id="84">3.18425e-12</wgt>
  <wgt id="85">3.18116e-12</wgt>
  <wgt id="86">3.20192e-12</wgt>
  <wgt id="87">3.16664e-12</wgt>
  <wgt id="88">3.19742e-12</wgt>
  <wgt id="89">3.19475e-12</wgt>
  <wgt id="90">3.20212e-12</wgt>
  <wgt id="91">3.19489e-12</wgt>
  <wgt id="92">3.19896e-12</wgt>
  <wgt id="93">3.1959e-12</wgt>
  <wgt id="94">3.18545e-12</wgt>
  <wgt id="95">3.20232e-12</wgt>
  <wgt id="96">3.19722e-12</wgt>
  <wgt id="97">3.18094e-12</wgt>
  <wgt id="98">3.19182e-12</wgt>
  <wgt id="99">3.18378e-12</wgt>
  <wgt id="100">3.19979e-12</wgt>
  <wgt id="101">3.19082e-12</wgt>
  <wgt id="102">3.18824e-12</wgt>
  <wgt id="103">3.20076e-12</wgt>
  <wgt id="104">3.18628e-12</wgt>
  <wgt id="105">3.1971e-12</wgt>
  <wgt id="106">3.18402e-12</wgt>
  <wgt id="107">3.20778e-12</wgt>
  <wgt id="108">3.18534e-12</wgt>
  <wgt id="109">3.1955e-12</wgt>
  <wgt id="110">3.18974e-12</wgt>
  <wgt id="111">3.20833e-12</wgt>
  <wgt id="112">3.21811e-12</wgt>
  <wgt id="113">4.5753e-12</wgt>
  <wgt id="114">4.42783e-12</wgt>
  <wgt id="115">4.355e-12</wgt>
  <wgt id="116">6.29321e-12</wgt>
  <wgt id="117">3.59484e-12</wgt>
  <wgt id="118">3.60951e-12</wgt>
  <wgt id="119">3.58653e-12</wgt>
  <wgt id="120">3.59496e-12</wgt>
  <wgt id="121">3.59475e-12</wgt>
  <wgt id="122">3.58911e-12</wgt>
  <wgt id="123">3.6028e-12</wgt>
  <wgt id="124">3.59011e-12</wgt>
  <wgt id="125">3.59789e-12</wgt>
  <wgt id="126">3.60162e-12</wgt>
  <wgt id="127">3.59039e-12</wgt>
  <wgt id="128">3.60592e-12</wgt>
  <wgt id="129">3.58384e-12</wgt>
  <wgt id="130">3.61476e-12</wgt>
  <wgt id="131">3.57446e-12</wgt>
  <wgt id="132">3.49376e-12</wgt>
  <wgt id="133">3.71567e-12</wgt>
  <wgt id="134">3.55369e-12</wgt>
  <wgt id="135">3.6272e-12</wgt>
  <wgt id="136">3.64956e-12</wgt>
  <wgt id="137">3.52902e-12</wgt>
  <wgt id="138">3.75799e-12</wgt>
  <wgt id="139">3.4397e-12</wgt>
  <wgt id="140">3.57545e-12</wgt>
  <wgt id="141">3.60979e-12</wgt>
  <wgt id="142">3.5945e-12</wgt>
  <wgt id="143">3.60434e-12</wgt>
  <wgt id="144">3.45081e-12</wgt>
  <wgt id="145">3.73388e-12</wgt>
  <wgt id="146">3.64136e-12</wgt>
  <wgt id="147">3.55723e-12</wgt>
  <wgt id="148">3.60817e-12</wgt>
  <wgt id="149">3.59392e-12</wgt>
  <wgt id="150">3.62685e-12</wgt>
  <wgt id="151">3.57993e-12</wgt>
  <wgt id="152">3.5965e-12</wgt>
  <wgt id="153">3.59427e-12</wgt>
  <wgt id="154">3.60947e-12</wgt>
  <wgt id="155">3.573e-12</wgt>
  <wgt id="156">3.70908e-12</wgt>
  <wgt id="157">3.48883e-12</wgt>
  <wgt id="158">4.31242e-12</wgt>
  <wgt id="159">4.33069e-12</wgt>
  <wgt id="160">4.29765e-12</wgt>
  <wgt id="161">4.30021e-12</wgt>
  <wgt id="162">4.32596e-12</wgt>
  <wgt id="163">4.30703e-12</wgt>
  <wgt id="164">4.32041e-12</wgt>
  <wgt id="165">4.31399e-12</wgt>
  <wgt id="166">4.31117e-12</wgt>
  <wgt id="167">4.30943e-12</wgt>
  <wgt id="168">4.31656e-12</wgt>
  <wgt id="169">4.29482e-12</wgt>
  <wgt id="170">4.32334e-12</wgt>
  <wgt id="171">4.30784e-12</wgt>
  <wgt id="172">4.31883e-12</wgt>
  <wgt id="173">4.30689e-12</wgt>
  <wgt id="174">4.31421e-12</wgt>
  <wgt id="175">4.18112e-12</wgt>
  <wgt id="176">4.48484e-12</wgt>
  <wgt id="177">4.33614e-12</wgt>
  <wgt id="178">4.29077e-12</wgt>
  <wgt id="179">4.52999e-12</wgt>
  <wgt id="180">3.97562e-12</wgt>
  <wgt id="181">4.16698e-12</wgt>
  <wgt id="182">4.40922e-12</wgt>
  <wgt id="183">4.22409e-12</wgt>
  <wgt id="184">4.35632e-12</wgt>
  <wgt id="185">4.26781e-12</wgt>
  <wgt id="186">4.36755e-12</wgt>
  <wgt id="187">4.2665e-12</wgt>
  <wgt id="188">4.39434e-12</wgt>
  <wgt id="189">4.27874e-12</wgt>
  <wgt id="190">4.32606e-12</wgt>
  <wgt id="191">4.32711e-12</wgt>
  <wgt id="192">4.30374e-12</wgt>
  <wgt id="193">4.38582e-12</wgt>
  <wgt id="194">4.27584e-12</wgt>
  <wgt id="195">4.15581e-12</wgt>
  <wgt id="196">4.56926e-12</wgt>
  <wgt id="197">4.33658e-12</wgt>
  <wgt id="198">4.30658e-12</wgt>
  <wgt id="199">4.31242e-12</wgt>
  <wgt id="200">4.35426e-12</wgt>
  <wgt id="201">4.3397e-12</wgt>
  <wgt id="202">4.32562e-12</wgt>
  <wgt id="203">4.30486e-12</wgt>
  <wgt id="204">4.29469e-12</wgt>
  <wgt id="205">4.28634e-12</wgt>
  <wgt id="206">4.17998e-12</wgt>
  <wgt id="207">4.2052e-12</wgt>
  <wgt id="208">4.15504e-12</wgt>
  <wgt id="209">4.195e-12</wgt>
  <wgt id="210">4.16905e-12</wgt>
  <wgt id="211">4.17813e-12</wgt>
  <wgt id="212">4.18147e-12</wgt>
  <wgt id="213">4.17963e-12</wgt>
  <wgt id="214">4.18056e-12</wgt>
  <wgt id="215">4.18369e-12</wgt>
  <wgt id="216">4.17736e-12</wgt>
  <wgt id="217">4.19161e-12</wgt>
  <wgt id="218">4.17103e-12</wgt>
  <wgt id="219">4.17687e-12</wgt>
  <wgt id="220">4.18193e-12</wgt>
  <wgt id="221">4.18004e-12</wgt>
  <wgt id="222">4.17918e-12</wgt>
  <wgt id="223">3.9364e-12</wgt>
  <wgt id="224">4.40342e-12</wgt>
  <wgt id="225">4.12483e-12</wgt>
  <wgt id="226">4.24994e-12</wgt>
  <wgt id="227">4.13769e-12</wgt>
  <wgt id="228">4.19858e-12</wgt>
  <wgt id="229">4.11765e-12</wgt>
  <wgt id="230">4.21103e-12</wgt>
  <wgt id="231">4.3195e-12</wgt>
  <wgt id="232">4.06604e-12</wgt>
  <wgt id="233">4.15427e-12</wgt>
  <wgt id="234">4.22293e-12</wgt>
  <wgt id="235">4.02865e-12</wgt>
  <wgt id="236">4.30571e-12</wgt>
  <wgt id="237">4.08915e-12</wgt>
  <wgt id="238">4.21031e-12</wgt>
  <wgt id="239">4.14286e-12</wgt>
  <wgt id="240">4.2466e-12</wgt>
  <wgt id="241">4.12939e-12</wgt>
  <wgt id="242">4.24081e-12</wgt>
  <wgt id="243">4.25683e-12</wgt>
  <wgt id="244">4.18508e-12</wgt>
  <wgt id="245">4.17825e-12</wgt>
  <wgt id="246">4.20576e-12</wgt>
  <wgt id="247">4.17998e-12</wgt>
  <wgt id="248">4.22305e-12</wgt>
  <wgt id="249">4.20767e-12</wgt>
  <wgt id="250">4.19235e-12</wgt>
  <wgt id="251">4.17064e-12</wgt>
  <wgt id="252">4.16004e-12</wgt>
  <wgt id="253">4.15261e-12</wgt>
  <wgt id="254">4.06052e-12</wgt>
  <wgt id="255">4.06442e-12</wgt>
  <wgt id="256">4.05638e-12</wgt>
  <wgt id="257">4.06353e-12</wgt>
  <wgt id="258">4.05839e-12</wgt>
  <wgt id="259">4.08801e-12</wgt>
  <wgt id="260">4.03403e-12</wgt>
  <wgt id="261">4.0687e-12</wgt>
  <wgt id="262">4.05085e-12</wgt>
  <wgt id="263">4.05763e-12</wgt>
  <wgt id="264">4.06399e-12</wgt>
  <wgt id="265">4.055e-12</wgt>
  <wgt id="266">4.07175e-12</wgt>
  <wgt id="267">4.06205e-12</wgt>
  <wgt id="268">4.05843e-12</wgt>
  <wgt id="269">4.07501e-12</wgt>
  <wgt id="270">4.05072e-12</wgt>
  <wgt id="271">4.05126e-12</wgt>
  <wgt id="272">4.07085e-12</wgt>
  <wgt id="273">4.04808e-12</wgt>
  <wgt id="274">4.0701e-12</wgt>
  <wgt id="275">4.03765e-12</wgt>
  <wgt id="276">4.08423e-12</wgt>
  <wgt id="277">4.0359e-12</wgt>
  <wgt id="278">4.08301e-12</wgt>
  <wgt id="279">3.97782e-12</wgt>
  <wgt id="280">4.16477e-12</wgt>
  <wgt id="281">4.04018e-12</wgt>
  <wgt id="282">4.06453e-12</wgt>
  <wgt id="283">3.92665e-12</wgt>
  <wgt id="284">4.22726e-12</wgt>
  <wgt id="285">3.84085e-12</wgt>
  <wgt id="286">4.24557e-12</wgt>
  <wgt id="287">4.07492e-12</wgt>
  <wgt id="288">4.04218e-12</wgt>
  <wgt id="289">4.09349e-12</wgt>
  <wgt id="290">3.98675e-12</wgt>
  <wgt id="291">4.0453e-12</wgt>
  <wgt id="292">4.0622e-12</wgt>
  <wgt id="293">4.02469e-12</wgt>
  <wgt id="294">4.09626e-12</wgt>
  <wgt id="295">3.97402e-12</wgt>
  <wgt id="296">4.16665e-12</wgt>
  <wgt id="297">4.05251e-12</wgt>
  <wgt id="298">4.08179e-12</wgt>
  <wgt id="299">4.046e-12</wgt>
  <wgt id="300">4.09931e-12</wgt>
  <wgt id="301">3.97654e-12</wgt>
  <wgt id="302">4.25414e-12</wgt>
  <wgt id="303">4.01625e-12</wgt>
  <wgt id="304">4.08551e-12</wgt>
  <wgt id="305">4.03939e-12</wgt>
  <wgt id="306">4.04343e-12</wgt>
  <wgt id="307">4.03513e-12</wgt>
  <wgt id="308">4.04264e-12</wgt>
  <wgt id="309">4.03724e-12</wgt>
  <wgt id="310">4.06756e-12</wgt>
  <wgt id="311">4.01335e-12</wgt>
  <wgt id="312">4.04671e-12</wgt>
  <wgt id="313">4.03158e-12</wgt>
  <wgt id="314">4.03644e-12</wgt>
  <wgt id="315">4.04224e-12</wgt>
  <wgt id="316">4.0339e-12</wgt>
  <wgt id="317">4.05133e-12</wgt>
  <wgt id="318">4.04275e-12</wgt>
  <wgt id="319">4.03352e-12</wgt>
  <wgt id="320">4.05487e-12</wgt>
  <wgt id="321">4.03081e-12</wgt>
  <wgt id="322">4.02876e-12</wgt>
  <wgt id="323">4.0518e-12</wgt>
  <wgt id="324">4.02942e-12</wgt>
  <wgt id="325">4.0481e-12</wgt>
  <wgt id="326">4.02083e-12</wgt>
  <wgt id="327">4.06318e-12</wgt>
  <wgt id="328">4.01798e-12</wgt>
  <wgt id="329">4.05123e-12</wgt>
  <wgt id="330">4.16408e-12</wgt>
  <wgt id="331">3.92093e-12</wgt>
  <wgt id="332">4.02239e-12</wgt>
  <wgt id="333">4.04174e-12</wgt>
  <wgt id="334">3.93632e-12</wgt>
  <wgt id="335">4.16844e-12</wgt>
  <wgt id="336">3.8823e-12</wgt>
  <wgt id="337">4.23357e-12</wgt>
  <wgt id="338">4.08977e-12</wgt>
  <wgt id="339">3.99295e-12</wgt>
  <wgt id="340">4.06957e-12</wgt>
  <wgt id="341">3.9642e-12</wgt>
  <wgt id="342">4.02823e-12</wgt>
  <wgt id="343">4.03306e-12</wgt>
  <wgt id="344">4.00761e-12</wgt>
  <wgt id="345">4.07638e-12</wgt>
  <wgt id="346">3.95031e-12</wgt>
  <wgt id="347">4.1419e-12</wgt>
  <wgt id="348">4.0321e-12</wgt>
  <wgt id="349">4.05843e-12</wgt>
  <wgt id="350">4.02141e-12</wgt>
  <wgt id="351">4.08518e-12</wgt>
  <wgt id="352">3.95086e-12</wgt>
  <wgt id="353">4.23316e-12</wgt>
  <wgt id="354">3.97437e-12</wgt>
  <wgt id="355">4.07805e-12</wgt>
  <wgt id="356">4.06052e-12</wgt>
  <wgt id="357">4.04676e-12</wgt>
  <wgt id="358">4.03939e-12</wgt>
  <wgt id="359">4.06477e-12</wgt>
  <wgt id="360">4.11936e-12</wgt>
  <wgt id="361">4.07994e-12</wgt>
  <wgt id="362">4.16258e-12</wgt>
  <wgt id="363">4.1513e-12</wgt>
  <wgt id="364">4.13199e-12</wgt>
  <wgt id="365">4.11589e-12</wgt>
  <wgt id="366">4.09901e-12</wgt>
  <wgt id="367">4.06621e-12</wgt>
  <wgt id="368">4.04649e-12</wgt>
  <wgt id="369">4.0253e-12</wgt>
  <wgt id="370">4.07994e-12</wgt>
  <wgt id="371">4.09787e-12</wgt>
  <wgt id="372">4.08795e-12</wgt>
  <wgt id="373">4.07341e-12</wgt>
  <wgt id="374">4.07653e-12</wgt>
  <wgt id="375">4.56269e-12</wgt>
  <wgt id="376">4.56327e-12</wgt>
  <wgt id="377">4.56191e-12</wgt>
  <wgt id="378">4.5799e-12</wgt>
  <wgt id="379">4.54551e-12</wgt>
  <wgt id="380">4.57513e-12</wgt>
  <wgt id="381">4.55765e-12</wgt>
  <wgt id="382">4.58734e-12</wgt>
  <wgt id="383">4.5382e-12</wgt>
  <wgt id="384">4.56577e-12</wgt>
  <wgt id="385">4.55971e-12</wgt>
  <wgt id="386">4.58119e-12</wgt>
  <wgt id="387">4.55469e-12</wgt>
  <wgt id="388">4.55818e-12</wgt>
  <wgt id="389">4.56818e-12</wgt>
  <wgt id="390">4.57493e-12</wgt>
  <wgt id="391">4.54964e-12</wgt>
  <wgt id="392">4.51961e-12</wgt>
  <wgt id="393">4.58715e-12</wgt>
  <wgt id="394">4.56748e-12</wgt>
  <wgt id="395">4.55591e-12</wgt>
  <wgt id="396">4.5702e-12</wgt>
  <wgt id="397">4.55724e-12</wgt>
  <wgt id="398">4.5462e-12</wgt>
  <wgt id="399">4.57849e-12</wgt>
  <wgt id="400">4.55411e-12</wgt>
  <wgt id="401">4.58186e-12</wgt>
  <wgt id="402">4.51906e-12</wgt>
  <wgt id="403">4.58728e-12</wgt>
  <wgt id="404">4.69245e-12</wgt>
  <wgt id="405">4.25364e-12</wgt>
  <wgt id="406">4.47002e-12</wgt>
  <wgt id="407">4.76745e-12</wgt>
  <wgt id="408">4.61103e-12</wgt>
  <wgt id="409">4.47271e-12</wgt>
  <wgt id="410">4.41222e-12</wgt>
  <wgt id="411">4.63459e-12</wgt>
  <wgt id="412">4.55238e-12</wgt>
  <wgt id="413">4.57859e-12</wgt>
  <wgt id="414">4.50259e-12</wgt>
  <wgt id="415">4.60941e-12</wgt>
  <wgt id="416">4.71684e-12</wgt>
  <wgt id="417">4.35114e-12</wgt>
  <wgt id="418">4.57106e-12</wgt>
  <wgt id="419">4.51798e-12</wgt>
  <wgt id="420">4.67211e-12</wgt>
  <wgt id="421">4.49198e-12</wgt>
  <wgt id="422">4.53842e-12</wgt>
  <wgt id="423">4.5744e-12</wgt>
  <wgt id="424">4.69599e-12</wgt>
  <wgt id="425">4.47402e-12</wgt>
  <wgt id="426">4.56269e-12</wgt>
  <wgt id="427">4.48562e-12</wgt>
  <wgt id="428">4.75234e-12</wgt>
  <wgt id="429">4.62223e-12</wgt>
  <wgt id="430">4.77423e-12</wgt>
  <wgt id="431">4.74334e-12</wgt>
  <wgt id="432">4.71516e-12</wgt>
  <wgt id="433">4.68744e-12</wgt>
  <wgt id="434">4.65272e-12</wgt>
  <wgt id="435">4.58396e-12</wgt>
  <wgt id="436">4.54922e-12</wgt>
  <wgt id="437">4.51546e-12</wgt>
  <wgt id="438">4.62223e-12</wgt>
  <wgt id="439">4.63697e-12</wgt>
  <wgt id="440">4.62789e-12</wgt>
  <wgt id="441">4.61805e-12</wgt>
  <wgt id="442">4.61495e-12</wgt>
  <wgt id="443">4.2686e-12</wgt>
  <wgt id="444">4.30788e-12</wgt>
  <wgt id="445">4.2824e-12</wgt>
  <wgt id="446">4.23761e-12</wgt>
  <wgt id="447">4.26131e-12</wgt>
  <wgt id="448">4.15137e-12</wgt>
  <wgt id="449">4.35301e-12</wgt>
  <wgt id="450">4.29345e-12</wgt>
  <wgt id="451">4.2574e-12</wgt>
  <wgt id="452">4.37418e-12</wgt>
  <wgt id="453">4.32218e-12</wgt>
  <wgt id="454">4.05738e-12</wgt>
  <wgt id="455">4.29121e-12</wgt>
  <wgt id="456">4.30869e-12</wgt>
  <wgt id="457">4.28745e-12</wgt>
  <wgt id="458">4.33601e-12</wgt>
  <wgt id="459">4.30565e-12</wgt>
  <wgt id="460">4.32831e-12</wgt>
  <wgt id="461">4.16507e-12</wgt>
  <wgt id="462">4.2296e-12</wgt>
  <wgt id="463">4.20408e-12</wgt>
  <wgt id="464">4.24252e-12</wgt>
  <wgt id="465">4.32119e-12</wgt>
  <wgt id="466">4.18246e-12</wgt>
  <wgt id="467">4.22574e-12</wgt>
  <wgt id="468">4.25967e-12</wgt>
  <wgt id="469">4.25424e-12</wgt>
  <wgt id="470">4.21001e-12</wgt>
  <wgt id="471">4.21621e-12</wgt>
  <wgt id="472">4.2971e-12</wgt>
  <wgt id="473">4.1067e-12</wgt>
  <wgt id="474">3.0282e-12</wgt>
  <wgt id="475">3.08927e-12</wgt>
  <wgt id="476">2.99101e-12</wgt>
  <wgt id="477">3.03114e-12</wgt>
  <wgt id="478">3.05261e-12</wgt>
  <wgt id="479">2.90555e-12</wgt>
  <wgt id="480">3.17386e-12</wgt>
  <wgt id="481">3.02631e-12</wgt>
  <wgt id="482">2.98741e-12</wgt>
  <wgt id="483">2.98787e-12</wgt>
  <wgt id="484">3.1783e-12</wgt>
  <wgt id="485">2.86731e-12</wgt>
  <wgt id="486">3.16796e-12</wgt>
  <wgt id="487">3.01301e-12</wgt>
  <wgt id="488">3.06994e-12</wgt>
  <wgt id="489">2.80037e-12</wgt>
  <wgt id="490">2.92903e-12</wgt>
  <wgt id="491">2.98772e-12</wgt>
  <wgt id="492">2.95952e-12</wgt>
  <wgt id="493">2.8417e-12</wgt>
  <wgt id="494">2.86466e-12</wgt>
  <wgt id="495">3.06439e-12</wgt>
  <wgt id="496">2.90046e-12</wgt>
  <wgt id="497">2.85155e-12</wgt>
  <wgt id="498">3.10872e-12</wgt>
  <wgt id="499">3.01205e-12</wgt>
  <wgt id="500">2.96952e-12</wgt>
  <wgt id="501">3.17145e-12</wgt>
  <wgt id="502">3.06613e-12</wgt>
  <wgt id="503">2.99503e-12</wgt>
  <wgt id="504">3.11425e-12</wgt>
  <wgt id="505">3.12123e-12</wgt>
  <wgt id="506">2.91987e-12</wgt>
  <wgt id="507">3.00627e-12</wgt>
  <wgt id="508">3.146e-12</wgt>
  <wgt id="509">2.91153e-12</wgt>
  <wgt id="510">3.10031e-12</wgt>
  <wgt id="511">2.91182e-12</wgt>
  <wgt id="512">3.18034e-12</wgt>
  <wgt id="513">3.18326e-12</wgt>
  <wgt id="514">3.11891e-12</wgt>
  <wgt id="515">3.05192e-12</wgt>
  <wgt id="516">3.26191e-12</wgt>
  <wgt id="517">3.09708e-12</wgt>
  <wgt id="518">3.11658e-12</wgt>
  <wgt id="519">2.90419e-12</wgt>
  <wgt id="520">3.08446e-12</wgt>
  <wgt id="521">3.03072e-12</wgt>
  <wgt id="522">3.15821e-12</wgt>
  <wgt id="523">2.96209e-12</wgt>
  <wgt id="524">3.06681e-12</wgt>
  <wgt id="525">3.05273e-12</wgt>
  <wgt id="526">3.13532e-12</wgt>
  <wgt id="527">3.01899e-12</wgt>
  <wgt id="528">3.04428e-12</wgt>
  <wgt id="529">2.9237e-12</wgt>
  <wgt id="530">3.14313e-12</wgt>
  <wgt id="531">2.93895e-12</wgt>
  <wgt id="532">3.26783e-12</wgt>
  <wgt id="533">2.9394e-12</wgt>
  <wgt id="534">2.96918e-12</wgt>
  <wgt id="535">3.04728e-12</wgt>
  <wgt id="536">3.08654e-12</wgt>
  <wgt id="537">2.94053e-12</wgt>
  <wgt id="538">3.01977e-12</wgt>
  <wgt id="539">2.96057e-12</wgt>
  <wgt id="540">3.12126e-12</wgt>
  <wgt id="541">2.99206e-12</wgt>
  <wgt id="542">2.98125e-12</wgt>
  <wgt id="543">2.9588e-12</wgt>
  <wgt id="544">3.1051e-12</wgt>
  <wgt id="545">2.91519e-12</wgt>
  <wgt id="546">2.86902e-12</wgt>
  <wgt id="547">2.92679e-12</wgt>
  <wgt id="548">2.90893e-12</wgt>
  <wgt id="549">2.96361e-12</wgt>
  <wgt id="550">2.97128e-12</wgt>
  <wgt id="551">3.0504e-12</wgt>
  <wgt id="552">2.85628e-12</wgt>
  <wgt id="553">2.91506e-12</wgt>
  <wgt id="554">3.21748e-12</wgt>
  <wgt id="555">3.10216e-12</wgt>
  <wgt id="556">2.92903e-12</wgt>
  <wgt id="557">3.10029e-12</wgt>
  <wgt id="558">2.9675e-12</wgt>
  <wgt id="559">3.02561e-12</wgt>
  <wgt id="560">3.34924e-12</wgt>
  <wgt id="561">3.04831e-12</wgt>
  <wgt id="562">3.12121e-12</wgt>
  <wgt id="563">3.20487e-12</wgt>
  <wgt id="564">3.13818e-12</wgt>
  <wgt id="565">3.02281e-12</wgt>
  <wgt id="566">3.00406e-12</wgt>
  <wgt id="567">3.00858e-12</wgt>
  <wgt id="568">2.95347e-12</wgt>
  <wgt id="569">3.05628e-12</wgt>
  <wgt id="570">2.92944e-12</wgt>
  <wgt id="571">3.36887e-12</wgt>
  <wgt id="572">2.93472e-12</wgt>
  <wgt id="573">2.92107e-12</wgt>
  <wgt id="574">2.93535e-12</wgt>
  <wgt id="575">3.36661e-12</wgt>
  <wgt id="576">3.54859e-12</wgt>
  <wgt id="577">3.48637e-12</wgt>
  <wgt id="578">3.44626e-12</wgt>
  <wgt id="579">3.48437e-12</wgt>
  <wgt id="580">3.54094e-12</wgt>
  <wgt id="581">3.68037e-12</wgt>
  <wgt id="582">3.50293e-12</wgt>
  <wgt id="583">3.41999e-12</wgt>
  <wgt id="584">3.34585e-12</wgt>
  <wgt id="585">3.21439e-12</wgt>
  <wgt id="586">3.20852e-12</wgt>
  <wgt id="587">3.42628e-12</wgt>
  <wgt id="588">3.54053e-12</wgt>
  <wgt id="589">3.59554e-12</wgt>
  <wgt id="590">3.37036e-12</wgt>
  <wgt id="591">3.46835e-12</wgt>
  <wgt id="592">3.14984e-12</wgt>
  <wgt id="593">3.29872e-12</wgt>
  <wgt id="594">3.341e-12</wgt>
  <wgt id="595">3.46137e-12</wgt>
  <wgt id="596">3.76894e-12</wgt>
  <wgt id="597">3.36537e-12</wgt>
  <wgt id="598">3.32627e-12</wgt>
  <wgt id="599">3.56523e-12</wgt>
  <wgt id="600">3.47301e-12</wgt>
  <wgt id="601">3.23962e-12</wgt>
  <wgt id="602">3.27366e-12</wgt>
  <wgt id="603">3.2012e-12</wgt>
  <wgt id="604">3.4376e-12</wgt>
  <wgt id="605">3.4415e-12</wgt>
  <wgt id="606">3.3829e-12</wgt>
  <wgt id="607">3.44151e-12</wgt>
  <wgt id="608">3.4748e-12</wgt>
  <wgt id="609">3.27207e-12</wgt>
  <wgt id="610">3.23157e-12</wgt>
  <wgt id="611">3.27888e-12</wgt>
  <wgt id="612">3.53579e-12</wgt>
  <wgt id="613">3.24717e-12</wgt>
  <wgt id="614">3.36667e-12</wgt>
  <wgt id="615">3.36537e-12</wgt>
  <wgt id="616">3.34374e-12</wgt>
  <wgt id="617">3.51958e-12</wgt>
  <wgt id="618">3.62786e-12</wgt>
  <wgt id="619">3.29279e-12</wgt>
  <wgt id="620">3.50934e-12</wgt>
  <wgt id="621">3.35689e-12</wgt>
  <wgt id="622">3.42628e-12</wgt>
  <wgt id="623">3.4143e-12</wgt>
  <wgt id="624">3.38773e-12</wgt>
  <wgt id="625">3.24506e-12</wgt>
  <wgt id="626">3.10973e-12</wgt>
  <wgt id="627">3.1043e-12</wgt>
  <wgt id="628">3.46284e-12</wgt>
  <wgt id="629">3.34847e-12</wgt>
  <wgt id="630">3.27537e-12</wgt>
  <wgt id="631">3.43024e-12</wgt>
  <wgt id="632">3.11513e-12</wgt>
  <wgt id="633">3.34044e-12</wgt>
  <wgt id="634">3.26187e-12</wgt>
  <wgt id="635">3.1375e-12</wgt>
  <wgt id="636">3.40046e-12</wgt>
  <wgt id="637">3.3576e-12</wgt>
  <wgt id="638">3.21007e-12</wgt>
  <wgt id="639">3.25085e-12</wgt>
  <wgt id="640">3.31207e-12</wgt>
  <wgt id="641">3.4833e-12</wgt>
  <wgt id="642">3.23194e-12</wgt>
  <wgt id="643">3.29855e-12</wgt>
  <wgt id="644">3.05895e-12</wgt>
  <wgt id="645">3.37788e-12</wgt>
  <wgt id="646">3.21268e-12</wgt>
  <wgt id="647">3.37054e-12</wgt>
  <wgt id="648">3.47132e-12</wgt>
  <wgt id="649">3.39635e-12</wgt>
  <wgt id="650">3.22991e-12</wgt>
  <wgt id="651">3.52935e-12</wgt>
  <wgt id="652">3.25764e-12</wgt>
  <wgt id="653">3.24583e-12</wgt>
  <wgt id="654">3.37345e-12</wgt>
  <wgt id="655">3.26134e-12</wgt>
  <wgt id="656">3.38536e-12</wgt>
  <wgt id="657">3.62753e-12</wgt>
  <wgt id="658">3.39936e-12</wgt>
  <wgt id="659">3.2261e-12</wgt>
  <wgt id="660">3.32363e-12</wgt>
  <wgt id="661">3.28399e-12</wgt>
  <wgt id="662">3.32048e-12</wgt>
  <wgt id="663">3.40543e-12</wgt>
  <wgt id="664">3.36651e-12</wgt>
  <wgt id="665">3.33878e-12</wgt>
  <wgt id="666">3.29669e-12</wgt>
  <wgt id="667">3.5226e-12</wgt>
  <wgt id="668">3.34268e-12</wgt>
  <wgt id="669">3.39261e-12</wgt>
  <wgt id="670">3.50895e-12</wgt>
  <wgt id="671">3.3805e-12</wgt>
  <wgt id="672">3.24007e-12</wgt>
  <wgt id="673">3.50854e-12</wgt>
  <wgt id="674">3.27722e-12</wgt>
  <wgt id="675">3.2723e-12</wgt>
  <wgt id="676">4.37645e-12</wgt>
  <wgt id="677">4.41815e-12</wgt>
  <wgt id="678">4.73447e-12</wgt>
  <wgt id="679">4.27779e-12</wgt>
  <wgt id="680">4.38086e-12</wgt>
  <wgt id="681">4.33221e-12</wgt>
  <wgt id="682">4.58202e-12</wgt>
  <wgt id="683">4.13884e-12</wgt>
  <wgt id="684">4.61054e-12</wgt>
  <wgt id="685">4.26754e-12</wgt>
  <wgt id="686">4.33276e-12</wgt>
  <wgt id="687">4.5912e-12</wgt>
  <wgt id="688">4.26068e-12</wgt>
  <wgt id="689">4.68739e-12</wgt>
  <wgt id="690">4.5324e-12</wgt>
  <wgt id="691">4.53845e-12</wgt>
  <wgt id="692">4.27581e-12</wgt>
  <wgt id="693">5.63323e-12</wgt>
  <wgt id="694">4.77002e-12</wgt>
  <wgt id="695">4.14704e-12</wgt>
  <wgt id="696">4.14173e-12</wgt>
  <wgt id="697">4.04248e-12</wgt>
  <wgt id="698">3.71128e-12</wgt>
  <wgt id="699">3.75596e-12</wgt>
  <wgt id="700">3.79154e-12</wgt>
  <wgt id="701">4.38782e-12</wgt>
  <wgt id="702">4.22909e-12</wgt>
  <wgt id="703">5.34357e-12</wgt>
  <wgt id="704">4.93178e-12</wgt>
  <wgt id="705">4.81919e-12</wgt>
  <wgt id="706">4.05783e-12</wgt>
  <wgt id="707">4.124e-12</wgt>
  <wgt id="708">4.24834e-12</wgt>
  <wgt id="709">4.26419e-12</wgt>
  <wgt id="710">3.77518e-12</wgt>
  <wgt id="711">4.514e-12</wgt>
  <wgt id="712">4.16473e-12</wgt>
  <wgt id="713">4.74773e-12</wgt>
  <wgt id="714">4.0545e-12</wgt>
  <wgt id="715">4.22565e-12</wgt>
  <wgt id="716">4.21411e-12</wgt>
  <wgt id="717">3.912e-12</wgt>
  <wgt id="718">4.4478e-12</wgt>
  <wgt id="719">3.94565e-12</wgt>
  <wgt id="720">4.31404e-12</wgt>
  <wgt id="721">3.77105e-12</wgt>
  <wgt id="722">3.55524e-12</wgt>
  <wgt id="723">4.8635e-12</wgt>
  <wgt id="724">4.71311e-12</wgt>
  <wgt id="725">4.60481e-12</wgt>
  <wgt id="726">4.38228e-12</wgt>
  <wgt id="727">4.3462e-12</wgt>
  <wgt id="728">4.24711e-12</wgt>
  <wgt id="729">4.05021e-12</wgt>
  <wgt id="730">4.87806e-12</wgt>
  <wgt id="731">4.30829e-12</wgt>
  <wgt id="732">5.0369e-12</wgt>
  <wgt id="733">4.1745e-12</wgt>
  <wgt id="734">4.5257e-12</wgt>
  <wgt id="735">4.36885e-12</wgt>
  <wgt id="736">4.12733e-12</wgt>
  <wgt id="737">4.25654e-12</wgt>
  <wgt id="738">4.12684e-12</wgt>
  <wgt id="739">4.67501e-12</wgt>
  <wgt id="740">5.10049e-12</wgt>
  <wgt id="741">4.28316e-12</wgt>
  <wgt id="742">4.27022e-12</wgt>
  <wgt id="743">4.00643e-12</wgt>
  <wgt id="744">4.29406e-12</wgt>
  <wgt id="745">4.74659e-12</wgt>
  <wgt id="746">4.87539e-12</wgt>
  <wgt id="747">3.70676e-12</wgt>
  <wgt id="748">4.25276e-12</wgt>
  <wgt id="749">4.57847e-12</wgt>
  <wgt id="750">4.64537e-12</wgt>
  <wgt id="751">4.44814e-12</wgt>
  <wgt id="752">3.93551e-12</wgt>
  <wgt id="753">3.98492e-12</wgt>
  <wgt id="754">4.59803e-12</wgt>
  <wgt id="755">4.32066e-12</wgt>
  <wgt id="756">4.30928e-12</wgt>
  <wgt id="757">3.84606e-12</wgt>
  <wgt id="758">4.3163e-12</wgt>
  <wgt id="759">4.71888e-12</wgt>
  <wgt id="760">4.27889e-12</wgt>
  <wgt id="761">4.77398e-12</wgt>
  <wgt id="762">4.81358e-12</wgt>
  <wgt id="763">4.41087e-12</wgt>
  <wgt id="764">4.6508e-12</wgt>
  <wgt id="765">4.42446e-12</wgt>
  <wgt id="766">4.41463e-12</wgt>
  <wgt id="767">4.48756e-12</wgt>
  <wgt id="768">4.0147e-12</wgt>
  <wgt id="769">4.64977e-12</wgt>
  <wgt id="770">4.14776e-12</wgt>
  <wgt id="771">5.38455e-12</wgt>
  <wgt id="772">4.21334e-12</wgt>
  <wgt id="773">4.36002e-12</wgt>
  <wgt id="774">3.54811e-12</wgt>
  <wgt id="775">4.61503e-12</wgt>
  <wgt id="776">4.97826e-12</wgt>
  <wgt id="777">3.95079e-12</wgt>
  <wgt id="778">2.95897e-12</wgt>
  <wgt id="779">2.00902e-12</wgt>
  <wgt id="780">1.32468e-12</wgt>
  <wgt id="781">3.3422e-12</wgt>
  <wgt id="782">3.49317e-12</wgt>
  <wgt id="783">1.90858e-12</wgt>
  <wgt id="784">2.2362e-12</wgt>
  <wgt id="785">4.25106e-12</wgt>
  <wgt id="786">1.85394e-12</wgt>
  <wgt id="787">3.72467e-12</wgt>
  <wgt id="788">9.98585e-13</wgt>
  <wgt id="789">2.13037e-12</wgt>
  <wgt id="790">1.83639e-12</wgt>
  <wgt id="791">3.18998e-12</wgt>
  <wgt id="792">3.96509e-12</wgt>
  <wgt id="793">2.84329e-12</wgt>
  <wgt id="794">1.73119e-12</wgt>
  <wgt id="795">3.96816e-12</wgt>
  <wgt id="796">4.14555e-12</wgt>
  <wgt id="797">3.80287e-12</wgt>
  <wgt id="798">2.40336e-12</wgt>
  <wgt id="799">3.66105e-12</wgt>
  <wgt id="800">2.28145e-12</wgt>
  <wgt id="801">2.76589e-12</wgt>
  <wgt id="802">1.68158e-12</wgt>
  <wgt id="803">4.61458e-12</wgt>
  <wgt id="804">3.93802e-12</wgt>
  <wgt id="805">3.91736e-12</wgt>
  <wgt id="806">3.23805e-12</wgt>
  <wgt id="807">2.84073e-12</wgt>
  <wgt id="808">2.83601e-12</wgt>
  <wgt id="809">2.65823e-12</wgt>
  <wgt id="810">3.39887e-12</wgt>
  <wgt id="811">3.18089e-12</wgt>
  <wgt id="812">1.84463e-12</wgt>
  <wgt id="813">1.99159e-12</wgt>
  <wgt id="814">2.2039e-12</wgt>
  <wgt id="815">1.93196e-12</wgt>
  <wgt id="816">1.92406e-12</wgt>
  <wgt id="817">3.02885e-12</wgt>
  <wgt id="818">3.61263e-12</wgt>
  <wgt id="819">1.98501e-12</wgt>
  <wgt id="820">2.84813e-12</wgt>
  <wgt id="821">3.61665e-12</wgt>
  <wgt id="822">2.32715e-12</wgt>
  <wgt id="823">3.74482e-12</wgt>
  <wgt id="824">4.53393e-12</wgt>
  <wgt id="825">1.62503e-12</wgt>
  <wgt id="826">3.56463e-12</wgt>
  <wgt id="827">1.37208e-12</wgt>
  <wgt id="828">3.83414e-12</wgt>
  <wgt id="829">3.09286e-12</wgt>
  <wgt id="830">1.52681e-12</wgt>
  <wgt id="831">3.43352e-12</wgt>
  <wgt id="832">5.33083e-12</wgt>
  <wgt id="833">2.45102e-12</wgt>
  <wgt id="834">5.12145e-12</wgt>
  <wgt id="835">2.13737e-12</wgt>
  <wgt id="836">2.58736e-12</wgt>
  <wgt id="837">3.5283e-12</wgt>
  <wgt id="838">2.52031e-12</wgt>
  <wgt id="839">3.40664e-12</wgt>
  <wgt id="840">2.55682e-12</wgt>
  <wgt id="841">4.1409e-12</wgt>
  <wgt id="842">2.80426e-12</wgt>
  <wgt id="843">3.13716e-12</wgt>
  <wgt id="844">3.26427e-12</wgt>
  <wgt id="845">5.00539e-12</wgt>
  <wgt id="846">2.974e-12</wgt>
  <wgt id="847">3.12213e-12</wgt>
  <wgt id="848">2.00483e-12</wgt>
  <wgt id="849">3.18074e-12</wgt>
  <wgt id="850">4.48358e-12</wgt>
  <wgt id="851">3.46291e-12</wgt>
  <wgt id="852">1.8247e-12</wgt>
  <wgt id="853">3.58801e-12</wgt>
  <wgt id="854">4.05396e-12</wgt>
  <wgt id="855">3.71222e-12</wgt>
  <wgt id="856">1.53356e-12</wgt>
  <wgt id="857">2.70013e-12</wgt>
  <wgt id="858">2.79835e-12</wgt>
  <wgt id="859">2.79772e-12</wgt>
  <wgt id="860">3.69611e-12</wgt>
  <wgt id="861">2.45818e-12</wgt>
  <wgt id="862">3.04585e-12</wgt>
  <wgt id="863">3.38743e-12</wgt>
  <wgt id="864">3.11418e-12</wgt>
  <wgt id="865">4.84053e-12</wgt>
  <wgt id="866">5.3207e-12</wgt>
  <wgt id="867">3.0595e-12</wgt>
  <wgt id="868">3.07132e-12</wgt>
  <wgt id="869">1.82885e-12</wgt>
  <wgt id="870">2.0838e-12</wgt>
  <wgt id="871">2.04713e-12</wgt>
  <wgt id="872">4.14432e-12</wgt>
  <wgt id="873">2.33245e-12</wgt>
  <wgt id="874">3.27676e-12</wgt>
  <wgt id="875">2.35522e-12</wgt>
  <wgt id="876">4.03178e-12</wgt>
  <wgt id="877">3.47551e-12</wgt>
  <wgt id="878">2.34143e-12</wgt>
  <wgt id="879">4.37645e-12</wgt>
  <wgt id="880">4.41815e-12</wgt>
  <wgt id="881">4.73447e-12</wgt>
  <wgt id="882">4.27779e-12</wgt>
  <wgt id="883">4.38086e-12</wgt>
  <wgt id="884">4.33221e-12</wgt>
  <wgt id="885">4.58202e-12</wgt>
  <wgt id="886">4.13884e-12</wgt>
  <wgt id="887">4.61054e-12</wgt>
  <wgt id="888">4.26754e-12</wgt>
  <wgt id="889">4.33276e-12</wgt>
  <wgt id="890">4.5912e-12</wgt>
  <wgt id="891">4.26068e-12</wgt>
  <wgt id="892">4.68739e-12</wgt>
  <wgt id="893">4.5324e-12</wgt>
  <wgt id="894">4.53845e-12</wgt>
  <wgt id="895">4.27581e-12</wgt>
  <wgt id="896">5.63323e-12</wgt>
  <wgt id="897">4.77002e-12</wgt>
  <wgt id="898">4.14704e-12</wgt>
  <wgt id="899">4.14173e-12</wgt>
  <wgt id="900">4.04248e-12</wgt>
  <wgt id="901">3.71128e-12</wgt>
  <wgt id="902">3.75596e-12</wgt>
  <wgt id="903">3.79154e-12</wgt>
  <wgt id="904">4.38782e-12</wgt>
  <wgt id="905">4.22909e-12</wgt>
  <wgt id="906">5.34357e-12</wgt>
  <wgt id="907">4.93178e-12</wgt>
  <wgt id="908">4.81919e-12</wgt>
  <wgt id="909">4.05783e-12</wgt>
  <wgt id="910">4.124e-12</wgt>
  <wgt id="911">4.24834e-12</wgt>
  <wgt id="912">4.26419e-12</wgt>
  <wgt id="913">3.77518e-12</wgt>
  <wgt id="914">4.514e-12</wgt>
  <wgt id="915">4.16473e-12</wgt>
  <wgt id="916">4.74773e-12</wgt>
  <wgt id="917">4.0545e-12</wgt>
  <wgt id="918">4.22565e-12</wgt>
  <wgt id="919">4.21411e-12</wgt>
  <wgt id="920">3.912e-12</wgt>
  <wgt id="921">4.4478e-12</wgt>
  <wgt id="922">3.94565e-12</wgt>
  <wgt id="923">4.31404e-12</wgt>
  <wgt id="924">3.77105e-12</wgt>
  <wgt id="925">3.55524e-12</wgt>
  <wgt id="926">4.8635e-12</wgt>
  <wgt id="927">4.71311e-12</wgt>
  <wgt id="928">4.60481e-12</wgt>
  <wgt id="929">4.38228e-12</wgt>
  <wgt id="930">4.3462e-12</wgt>
  <wgt id="931">4.24711e-12</wgt>
  <wgt id="932">4.05021e-12</wgt>
  <wgt id="933">4.87806e-12</wgt>
  <wgt id="934">4.30829e-12</wgt>
  <wgt id="935">5.0369e-12</wgt>
  <wgt id="936">4.1745e-12</wgt>
  <wgt id="937">4.5257e-12</wgt>
  <wgt id="938">4.36885e-12</wgt>
  <wgt id="939">4.12733e-12</wgt>
  <wgt id="940">4.25654e-12</wgt>
  <wgt id="941">4.12684e-12</wgt>
  <wgt id="942">4.67501e-12</wgt>
  <wgt id="943">5.10049e-12</wgt>
  <wgt id="944">4.28316e-12</wgt>
  <wgt id="945">4.27022e-12</wgt>
  <wgt id="946">4.00643e-12</wgt>
  <wgt id="947">4.29406e-12</wgt>
  <wgt id="948">4.74659e-12</wgt>
  <wgt id="949">4.87539e-12</wgt>
  <wgt id="950">3.70676e-12</wgt>
  <wgt id="951">4.25276e-12</wgt>
  <wgt id="952">4.57847e-12</wgt>
  <wgt id="953">4.64537e-12</wgt>
  <wgt id="954">4.44814e-12</wgt>
  <wgt id="955">3.93551e-12</wgt>
  <wgt id="956">3.98492e-12</wgt>
  <wgt id="957">4.59803e-12</wgt>
  <wgt id="958">4.32066e-12</wgt>
  <wgt id="959">4.30928e-12</wgt>
  <wgt id="960">3.84606e-12</wgt>
  <wgt id="961">4.3163e-12</wgt>
  <wgt id="962">4.71888e-12</wgt>
  <wgt id="963">4.27889e-12</wgt>
  <wgt id="964">4.77398e-12</wgt>
  <wgt id="965">4.81358e-12</wgt>
  <wgt id="966">4.41087e-12</wgt>
  <wgt id="967">4.6508e-12</wgt>
  <wgt id="968">4.42446e-12</wgt>
  <wgt id="969">4.41463e-12</wgt>
  <wgt id="970">4.48756e-12</wgt>
  <wgt id="971">4.0147e-12</wgt>
  <wgt id="972">4.64977e-12</wgt>
  <wgt id="973">4.14776e-12</wgt>
  <wgt id="974">5.38455e-12</wgt>
  <wgt id="975">4.21334e-12</wgt>
  <wgt id="976">4.36002e-12</wgt>
  <wgt id="977">3.54811e-12</wgt>
  <wgt id="978">4.61503e-12</wgt>
  <wgt id="979">4.97826e-12</wgt>
  <wgt id="980">4.35214e-12</wgt>
  <wgt id="981">4.45422e-12</wgt>
  <wgt id="982">4.24109e-12</wgt>
</rwgt>
</event>
<event>
 5   1  0.3028200E-11  0.2380508E+04  0.7818608E-02  0.7684105E-01
       21   -1    0    0  502  501  0.00000000000E+00  0.00000000000E+00  0.31806101184E+04  0.31806101184E+04  0.00000000000E+00 0. -1.
       21   -1    0    0  501  502 -0.00000000000E+00 -0.00000000000E+00 -0.44541913511E+03  0.44541913511E+03  0.00000000000E+00 0.  1.
       39    2    1    2    0    0  0.00000000000E+00  0.00000000000E+00  0.27351909833E+04  0.36260292535E+04  0.23805080198E+04 0.  0.
       25    1    3    3    0    0  0.80492977286E+03  0.58106353631E+03  0.23494888636E+04  0.25536776798E+04  0.12500000000E+03 0.  0.
       25    1    3    3    0    0 -0.80492977286E+03 -0.58106353631E+03  0.38570211977E+03  0.10723515737E+04  0.12500000000E+03 0.  0.
<mgrwt>
<rscale>  0 0.23805080E+04</rscale>
<asrwt>0</asrwt>
<pdfrwt beam="1">  1       21 0.48932462E+00 0.23805080E+04</pdfrwt>
<pdfrwt beam="2">  1       21 0.68526023E-01 0.23805080E+04</pdfrwt>
<totfact> 0.14553510E+00</totfact>
</mgrwt>
<rwgt>
  <wgt id="1">3.0282e-12</wgt>
  <wgt id="2">2.54698e-12</wgt>
  <wgt id="3">3.65658e-12</wgt>
  <wgt id="4">3.0282e-12</wgt>
  <wgt id="5">2.54698e-12</wgt>
  <wgt id="6">3.65658e-12</wgt>
  <wgt id="7">3.0282e-12</wgt>
  <wgt id="8">2.54698e-12</wgt>
  <wgt id="9">3.65658e-12</wgt>
  <wgt id="10">3.31039e-12</wgt>
  <wgt id="11">3.31581e-12</wgt>
  <wgt id="12">3.30383e-12</wgt>
  <wgt id="13">3.31692e-12</wgt>
  <wgt id="14">3.28684e-12</wgt>
  <wgt id="15">3.29885e-12</wgt>
  <wgt id="16">3.30327e-12</wgt>
  <wgt id="17">3.34611e-12</wgt>
  <wgt id="18">3.3086e-12</wgt>
  <wgt id="19">3.32162e-12</wgt>
  <wgt id="20">3.32612e-12</wgt>
  <wgt id="21">3.2393e-12</wgt>
  <wgt id="22">3.27498e-12</wgt>
  <wgt id="23">3.24992e-12</wgt>
  <wgt id="24">3.29246e-12</wgt>
  <wgt id="25">3.32218e-12</wgt>
  <wgt id="26">3.31586e-12</wgt>
  <wgt id="27">3.31568e-12</wgt>
  <wgt id="28">3.29158e-12</wgt>
  <wgt id="29">3.3131e-12</wgt>
  <wgt id="30">3.29037e-12</wgt>
  <wgt id="31">3.32143e-12</wgt>
  <wgt id="32">3.27111e-12</wgt>
  <wgt id="33">3.31133e-12</wgt>
  <wgt id="34">3.27841e-12</wgt>
  <wgt id="35">3.26625e-12</wgt>
  <wgt id="36">3.32163e-12</wgt>
  <wgt id="37">3.29437e-12</wgt>
  <wgt id="38">3.28243e-12</wgt>
  <wgt id="39">3.39394e-12</wgt>
  <wgt id="40">3.343e-12</wgt>
  <wgt id="41">3.29695e-12</wgt>
  <wgt id="42">3.28513e-12</wgt>
  <wgt id="43">3.30548e-12</wgt>
  <wgt id="44">3.33721e-12</wgt>
  <wgt id="45">3.33472e-12</wgt>
  <wgt id="46">3.27791e-12</wgt>
  <wgt id="47">3.3963e-12</wgt>
  <wgt id="48">3.37254e-12</wgt>
  <wgt id="49">3.31967e-12</wgt>
  <wgt id="50">3.27033e-12</wgt>
  <wgt id="51">3.28421e-12</wgt>
  <wgt id="52">3.31649e-12</wgt>
  <wgt id="53">3.44064e-12</wgt>
  <wgt id="54">3.34579e-12</wgt>
  <wgt id="55">3.29101e-12</wgt>
  <wgt id="56">3.1924e-12</wgt>
  <wgt id="57">3.23188e-12</wgt>
  <wgt id="58">3.3114e-12</wgt>
  <wgt id="59">3.3547e-12</wgt>
  <wgt id="60">3.2353e-12</wgt>
  <wgt id="61">3.36182e-12</wgt>
  <wgt id="62">3.37697e-12</wgt>
  <wgt id="63">3.28626e-12</wgt>
  <wgt id="64">3.31217e-12</wgt>
  <wgt id="65">3.30227e-12</wgt>
  <wgt id="66">3.39462e-12</wgt>
  <wgt id="67">3.4256e-12</wgt>
  <wgt id="68">3.31693e-12</wgt>
  <wgt id="69">3.32369e-12</wgt>
  <wgt id="70">3.23953e-12</wgt>
  <wgt id="71">3.38586e-12</wgt>
  <wgt id="72">3.42923e-12</wgt>
  <wgt id="73">3.21765e-12</wgt>
  <wgt id="74">3.35473e-12</wgt>
  <wgt id="75">3.16405e-12</wgt>
  <wgt id="76">3.30768e-12</wgt>
  <wgt id="77">3.2746e-12</wgt>
  <wgt id="78">3.29446e-12</wgt>
  <wgt id="79">3.28944e-12</wgt>
  <wgt id="80">3.34058e-12</wgt>
  <wgt id="81">3.32098e-12</wgt>
  <wgt id="82">3.28884e-12</wgt>
  <wgt id="83">3.29451e-12</wgt>
  <wgt id="84">3.26577e-12</wgt>
  <wgt id="85">3.26453e-12</wgt>
  <wgt id="86">3.37076e-12</wgt>
  <wgt id="87">3.25199e-12</wgt>
  <wgt id="88">3.30755e-12</wgt>
  <wgt id="89">3.31497e-12</wgt>
  <wgt id="90">3.37936e-12</wgt>
  <wgt id="91">3.29816e-12</wgt>
  <wgt id="92">3.31791e-12</wgt>
  <wgt id="93">3.35187e-12</wgt>
  <wgt id="94">3.2558e-12</wgt>
  <wgt id="95">3.42801e-12</wgt>
  <wgt id="96">3.40112e-12</wgt>
  <wgt id="97">3.23108e-12</wgt>
  <wgt id="98">3.29812e-12</wgt>
  <wgt id="99">3.26942e-12</wgt>
  <wgt id="100">3.35945e-12</wgt>
  <wgt id="101">3.25919e-12</wgt>
  <wgt id="102">3.29844e-12</wgt>
  <wgt id="103">3.39822e-12</wgt>
  <wgt id="104">3.27799e-12</wgt>
  <wgt id="105">3.36945e-12</wgt>
  <wgt id="106">3.25358e-12</wgt>
  <wgt id="107">3.43686e-12</wgt>
  <wgt id="108">3.28582e-12</wgt>
  <wgt id="109">3.32018e-12</wgt>
  <wgt id="110">3.29382e-12</wgt>
  <wgt id="111">3.21946e-12</wgt>
  <wgt id="112">3.40917e-12</wgt>
  <wgt id="113">5.99012e-12</wgt>
  <wgt id="114">4.08289e-12</wgt>
  <wgt id="115">4.01451e-12</wgt>
  <wgt id="116">5.49345e-12</wgt>
  <wgt id="117">3.78977e-12</wgt>
  <wgt id="118">3.80613e-12</wgt>
  <wgt id="119">3.7805e-12</wgt>
  <wgt id="120">3.78943e-12</wgt>
  <wgt id="121">3.78991e-12</wgt>
  <wgt id="122">3.78523e-12</wgt>
  <wgt id="123">3.79618e-12</wgt>
  <wgt id="124">3.78556e-12</wgt>
  <wgt id="125">3.79241e-12</wgt>
  <wgt id="126">3.7924e-12</wgt>
  <wgt id="127">3.78806e-12</wgt>
  <wgt id="128">3.80061e-12</wgt>
  <wgt id="129">3.77905e-12</wgt>
  <wgt id="130">3.80045e-12</wgt>
  <wgt id="131">3.77823e-12</wgt>
  <wgt id="132">3.6664e-12</wgt>
  <wgt id="133">3.93892e-12</wgt>
  <wgt id="134">3.75124e-12</wgt>
  <wgt id="135">3.8203e-12</wgt>
  <wgt id="136">3.87487e-12</wgt>
  <wgt id="137">3.68883e-12</wgt>
  <wgt id="138">4.03528e-12</wgt>
  <wgt id="139">3.56691e-12</wgt>
  <wgt id="140">3.79073e-12</wgt>
  <wgt id="141">3.78744e-12</wgt>
  <wgt id="142">3.78685e-12</wgt>
  <wgt id="143">3.81164e-12</wgt>
  <wgt id="144">3.50802e-12</wgt>
  <wgt id="145">4.09255e-12</wgt>
  <wgt id="146">3.89468e-12</wgt>
  <wgt id="147">3.70163e-12</wgt>
  <wgt id="148">3.80422e-12</wgt>
  <wgt id="149">3.78889e-12</wgt>
  <wgt id="150">3.81912e-12</wgt>
  <wgt id="151">3.77594e-12</wgt>
  <wgt id="152">3.78799e-12</wgt>
  <wgt id="153">3.79039e-12</wgt>
  <wgt id="154">3.7412e-12</wgt>
  <wgt id="155">3.82407e-12</wgt>
  <wgt id="156">4.07093e-12</wgt>
  <wgt id="157">3.57308e-12</wgt>
  <wgt id="158">4.44896e-12</wgt>
  <wgt id="159">4.46889e-12</wgt>
  <wgt id="160">4.43293e-12</wgt>
  <wgt id="161">4.43652e-12</wgt>
  <wgt id="162">4.46276e-12</wgt>
  <wgt id="163">4.44335e-12</wgt>
  <wgt id="164">4.45743e-12</wgt>
  <wgt id="165">4.45032e-12</wgt>
  <wgt id="166">4.44805e-12</wgt>
  <wgt id="167">4.44637e-12</wgt>
  <wgt id="168">4.45252e-12</wgt>
  <wgt id="169">4.43321e-12</wgt>
  <wgt id="170">4.45886e-12</wgt>
  <wgt id="171">4.44908e-12</wgt>
  <wgt id="172">4.44916e-12</wgt>
  <wgt id="173">4.423e-12</wgt>
  <wgt id="174">4.45833e-12</wgt>
  <wgt id="175">4.30309e-12</wgt>
  <wgt id="176">4.6419e-12</wgt>
  <wgt id="177">4.45737e-12</wgt>
  <wgt id="178">4.44204e-12</wgt>
  <wgt id="179">4.78925e-12</wgt>
  <wgt id="180">3.95543e-12</wgt>
  <wgt id="181">4.24916e-12</wgt>
  <wgt id="182">4.58589e-12</wgt>
  <wgt id="183">4.32747e-12</wgt>
  <wgt id="184">4.50978e-12</wgt>
  <wgt id="185">4.37524e-12</wgt>
  <wgt id="186">4.53839e-12</wgt>
  <wgt id="187">4.36933e-12</wgt>
  <wgt id="188">4.58619e-12</wgt>
  <wgt id="189">4.39943e-12</wgt>
  <wgt id="190">4.46915e-12</wgt>
  <wgt id="191">4.47481e-12</wgt>
  <wgt id="192">4.43342e-12</wgt>
  <wgt id="193">4.5517e-12</wgt>
  <wgt id="194">4.39631e-12</wgt>
  <wgt id="195">4.15239e-12</wgt>
  <wgt id="196">4.91529e-12</wgt>
  <wgt id="197">4.47394e-12</wgt>
  <wgt id="198">4.44296e-12</wgt>
  <wgt id="199">4.44896e-12</wgt>
  <wgt id="200">4.50411e-12</wgt>
  <wgt id="201">4.48805e-12</wgt>
  <wgt id="202">4.47112e-12</wgt>
  <wgt id="203">4.45083e-12</wgt>
  <wgt id="204">4.43844e-12</wgt>
  <wgt id="205">4.4291e-12</wgt>
  <wgt id="206">4.45e-12</wgt>
  <wgt id="207">4.4783e-12</wgt>
  <wgt id="208">4.42173e-12</wgt>
  <wgt id="209">4.46315e-12</wgt>
  <wgt id="210">4.44024e-12</wgt>
  <wgt id="211">4.44844e-12</wgt>
  <wgt id="212">4.45125e-12</wgt>
  <wgt id="213">4.44947e-12</wgt>
  <wgt id="214">4.45019e-12</wgt>
  <wgt id="215">4.45348e-12</wgt>
  <wgt id="216">4.44747e-12</wgt>
  <wgt id="217">4.45486e-12</wgt>
  <wgt id="218">4.44589e-12</wgt>
  <wgt id="219">4.44344e-12</wgt>
  <wgt id="220">4.45406e-12</wgt>
  <wgt id="221">4.45886e-12</wgt>
  <wgt id="222">4.42589e-12</wgt>
  <wgt id="223">4.12984e-12</wgt>
  <wgt id="224">4.74709e-12</wgt>
  <wgt id="225">4.39118e-12</wgt>
  <wgt id="226">4.52578e-12</wgt>
  <wgt id="227">4.40378e-12</wgt>
  <wgt id="228">4.47026e-12</wgt>
  <wgt id="229">4.37458e-12</wgt>
  <wgt id="230">4.4872e-12</wgt>
  <wgt id="231">4.67262e-12</wgt>
  <wgt id="232">4.27125e-12</wgt>
  <wgt id="233">4.39767e-12</wgt>
  <wgt id="234">4.53848e-12</wgt>
  <wgt id="235">4.01936e-12</wgt>
  <wgt id="236">4.80087e-12</wgt>
  <wgt id="237">4.21867e-12</wgt>
  <wgt id="238">4.52768e-12</wgt>
  <wgt id="239">4.36033e-12</wgt>
  <wgt id="240">4.61201e-12</wgt>
  <wgt id="241">4.36922e-12</wgt>
  <wgt id="242">4.54181e-12</wgt>
  <wgt id="243">4.59829e-12</wgt>
  <wgt id="244">4.40144e-12</wgt>
  <wgt id="245">4.45216e-12</wgt>
  <wgt id="246">4.45526e-12</wgt>
  <wgt id="247">4.45e-12</wgt>
  <wgt id="248">4.51836e-12</wgt>
  <wgt id="249">4.49727e-12</wgt>
  <wgt id="250">4.46847e-12</wgt>
  <wgt id="251">4.43981e-12</wgt>
  <wgt id="252">4.42026e-12</wgt>
  <wgt id="253">4.40859e-12</wgt>
  <wgt id="254">4.15121e-12</wgt>
  <wgt id="255">4.15446e-12</wgt>
  <wgt id="256">4.14755e-12</wgt>
  <wgt id="257">4.15449e-12</wgt>
  <wgt id="258">4.14865e-12</wgt>
  <wgt id="259">4.17955e-12</wgt>
  <wgt id="260">4.12374e-12</wgt>
  <wgt id="261">4.1593e-12</wgt>
  <wgt id="262">4.14144e-12</wgt>
  <wgt id="263">4.14592e-12</wgt>
  <wgt id="264">4.15741e-12</wgt>
  <wgt id="265">4.14583e-12</wgt>
  <wgt id="266">4.16171e-12</wgt>
  <wgt id="267">4.15236e-12</wgt>
  <wgt id="268">4.14973e-12</wgt>
  <wgt id="269">4.16214e-12</wgt>
  <wgt id="270">4.14367e-12</wgt>
  <wgt id="271">4.1287e-12</wgt>
  <wgt id="272">4.17646e-12</wgt>
  <wgt id="273">4.14316e-12</wgt>
  <wgt id="274">4.15719e-12</wgt>
  <wgt id="275">4.10625e-12</wgt>
  <wgt id="276">4.19813e-12</wgt>
  <wgt id="277">4.13408e-12</wgt>
  <wgt id="278">4.16658e-12</wgt>
  <wgt id="279">4.06943e-12</wgt>
  <wgt id="280">4.255e-12</wgt>
  <wgt id="281">4.11074e-12</wgt>
  <wgt id="282">4.19266e-12</wgt>
  <wgt id="283">3.96152e-12</wgt>
  <wgt id="284">4.39721e-12</wgt>
  <wgt id="285">3.83975e-12</wgt>
  <wgt id="286">4.42853e-12</wgt>
  <wgt id="287">4.16969e-12</wgt>
  <wgt id="288">4.12788e-12</wgt>
  <wgt id="289">4.19662e-12</wgt>
  <wgt id="290">4.05723e-12</wgt>
  <wgt id="291">4.13013e-12</wgt>
  <wgt id="292">4.13685e-12</wgt>
  <wgt id="293">4.10078e-12</wgt>
  <wgt id="294">4.20167e-12</wgt>
  <wgt id="295">4.02709e-12</wgt>
  <wgt id="296">4.30316e-12</wgt>
  <wgt id="297">4.10749e-12</wgt>
  <wgt id="298">4.18861e-12</wgt>
  <wgt id="299">4.13403e-12</wgt>
  <wgt id="300">4.19686e-12</wgt>
  <wgt id="301">3.98065e-12</wgt>
  <wgt id="302">4.51883e-12</wgt>
  <wgt id="303">4.05953e-12</wgt>
  <wgt id="304">4.20146e-12</wgt>
  <wgt id="305">3.97607e-12</wgt>
  <wgt id="306">3.97919e-12</wgt>
  <wgt id="307">3.97271e-12</wgt>
  <wgt id="308">3.97955e-12</wgt>
  <wgt id="309">3.97385e-12</wgt>
  <wgt id="310">4.0035e-12</wgt>
  <wgt id="311">3.95085e-12</wgt>
  <wgt id="312">3.98539e-12</wgt>
  <wgt id="313">3.9662e-12</wgt>
  <wgt id="314">3.97009e-12</wgt>
  <wgt id="315">3.98217e-12</wgt>
  <wgt id="316">3.97033e-12</wgt>
  <wgt id="317">3.98892e-12</wgt>
  <wgt id="318">3.97891e-12</wgt>
  <wgt id="319">3.97132e-12</wgt>
  <wgt id="320">3.98857e-12</wgt>
  <wgt id="321">3.96942e-12</wgt>
  <wgt id="322">3.95529e-12</wgt>
  <wgt id="323">4.00077e-12</wgt>
  <wgt id="324">3.97373e-12</wgt>
  <wgt id="325">3.97834e-12</wgt>
  <wgt id="326">3.93836e-12</wgt>
  <wgt id="327">4.02502e-12</wgt>
  <wgt id="328">3.96773e-12</wgt>
  <wgt id="329">3.97964e-12</wgt>
  <wgt id="330">4.09091e-12</wgt>
  <wgt id="331">3.86804e-12</wgt>
  <wgt id="332">3.94116e-12</wgt>
  <wgt id="333">4.00721e-12</wgt>
  <wgt id="334">3.84396e-12</wgt>
  <wgt id="335">4.1472e-12</wgt>
  <wgt id="336">3.77085e-12</wgt>
  <wgt id="337">4.24221e-12</wgt>
  <wgt id="338">4.03838e-12</wgt>
  <wgt id="339">3.92068e-12</wgt>
  <wgt id="340">4.01197e-12</wgt>
  <wgt id="341">3.8933e-12</wgt>
  <wgt id="342">3.9657e-12</wgt>
  <wgt id="343">3.94781e-12</wgt>
  <wgt id="344">3.93613e-12</wgt>
  <wgt id="345">4.02295e-12</wgt>
  <wgt id="346">3.8565e-12</wgt>
  <wgt id="347">4.11078e-12</wgt>
  <wgt id="348">3.93141e-12</wgt>
  <wgt id="349">4.01235e-12</wgt>
  <wgt id="350">3.95645e-12</wgt>
  <wgt id="351">4.02703e-12</wgt>
  <wgt id="352">3.8218e-12</wgt>
  <wgt id="353">4.29172e-12</wgt>
  <wgt id="354">3.86025e-12</wgt>
  <wgt id="355">4.04276e-12</wgt>
  <wgt id="356">4.15121e-12</wgt>
  <wgt id="357">3.94388e-12</wgt>
  <wgt id="358">3.97607e-12</wgt>
  <wgt id="359">4.10414e-12</wgt>
  <wgt id="360">4.35655e-12</wgt>
  <wgt id="361">4.19651e-12</wgt>
  <wgt id="362">4.32323e-12</wgt>
  <wgt id="363">4.30784e-12</wgt>
  <wgt id="364">4.26625e-12</wgt>
  <wgt id="365">4.24293e-12</wgt>
  <wgt id="366">4.22224e-12</wgt>
  <wgt id="367">4.18977e-12</wgt>
  <wgt id="368">4.16213e-12</wgt>
  <wgt id="369">4.13223e-12</wgt>
  <wgt id="370">4.19651e-12</wgt>
  <wgt id="371">4.2103e-12</wgt>
  <wgt id="372">4.20208e-12</wgt>
  <wgt id="373">4.19272e-12</wgt>
  <wgt id="374">4.21554e-12</wgt>
  <wgt id="375">6.06799e-12</wgt>
  <wgt id="376">6.06799e-12</wgt>
  <wgt id="377">6.06821e-12</wgt>
  <wgt id="378">6.095e-12</wgt>
  <wgt id="379">6.04131e-12</wgt>
  <wgt id="380">6.08795e-12</wgt>
  <wgt id="381">6.06005e-12</wgt>
  <wgt id="382">6.08634e-12</wgt>
  <wgt id="383">6.05004e-12</wgt>
  <wgt id="384">6.07261e-12</wgt>
  <wgt id="385">6.06368e-12</wgt>
  <wgt id="386">6.07154e-12</wgt>
  <wgt id="387">6.06665e-12</wgt>
  <wgt id="388">6.06437e-12</wgt>
  <wgt id="389">6.07244e-12</wgt>
  <wgt id="390">6.07353e-12</wgt>
  <wgt id="391">6.06243e-12</wgt>
  <wgt id="392">5.9976e-12</wgt>
  <wgt id="393">6.108e-12</wgt>
  <wgt id="394">6.06253e-12</wgt>
  <wgt id="395">6.07546e-12</wgt>
  <wgt id="396">6.08785e-12</wgt>
  <wgt id="397">6.05406e-12</wgt>
  <wgt id="398">6.08137e-12</wgt>
  <wgt id="399">6.05554e-12</wgt>
  <wgt id="400">6.05481e-12</wgt>
  <wgt id="401">6.09941e-12</wgt>
  <wgt id="402">5.96824e-12</wgt>
  <wgt id="403">6.16849e-12</wgt>
  <wgt id="404">6.37583e-12</wgt>
  <wgt id="405">5.36384e-12</wgt>
  <wgt id="406">5.84496e-12</wgt>
  <wgt id="407">6.58144e-12</wgt>
  <wgt id="408">6.18478e-12</wgt>
  <wgt id="409">5.85974e-12</wgt>
  <wgt id="410">5.71411e-12</wgt>
  <wgt id="411">6.24638e-12</wgt>
  <wgt id="412">6.04369e-12</wgt>
  <wgt id="413">6.10191e-12</wgt>
  <wgt id="414">5.93167e-12</wgt>
  <wgt id="415">6.17441e-12</wgt>
  <wgt id="416">6.4536e-12</wgt>
  <wgt id="417">5.55648e-12</wgt>
  <wgt id="418">6.09205e-12</wgt>
  <wgt id="419">5.93903e-12</wgt>
  <wgt id="420">6.42987e-12</wgt>
  <wgt id="421">5.81115e-12</wgt>
  <wgt id="422">5.93153e-12</wgt>
  <wgt id="423">6.12783e-12</wgt>
  <wgt id="424">6.47272e-12</wgt>
  <wgt id="425">5.78252e-12</wgt>
  <wgt id="426">6.06799e-12</wgt>
  <wgt id="427">5.71533e-12</wgt>
  <wgt id="428">6.77602e-12</wgt>
  <wgt id="429">6.25148e-12</wgt>
  <wgt id="430">6.61318e-12</wgt>
  <wgt id="431">6.53142e-12</wgt>
  <wgt id="432">6.46702e-12</wgt>
  <wgt id="433">6.40368e-12</wgt>
  <wgt id="434">6.31611e-12</wgt>
  <wgt id="435">6.17257e-12</wgt>
  <wgt id="436">6.10402e-12</wgt>
  <wgt id="437">6.03302e-12</wgt>
  <wgt id="438">6.25148e-12</wgt>
  <wgt id="439">6.26702e-12</wgt>
  <wgt id="440">6.25495e-12</wgt>
  <wgt id="441">6.25083e-12</wgt>
  <wgt id="442">6.25113e-12</wgt>
  <wgt id="443">4.16327e-12</wgt>
  <wgt id="444">4.24795e-12</wgt>
  <wgt id="445">4.31512e-12</wgt>
  <wgt id="446">4.14595e-12</wgt>
  <wgt id="447">4.1381e-12</wgt>
  <wgt id="448">4.09283e-12</wgt>
  <wgt id="449">4.34613e-12</wgt>
  <wgt id="450">4.29183e-12</wgt>
  <wgt id="451">4.1525e-12</wgt>
  <wgt id="452">4.23759e-12</wgt>
  <wgt id="453">4.3454e-12</wgt>
  <wgt id="454">3.83496e-12</wgt>
  <wgt id="455">4.26334e-12</wgt>
  <wgt id="456">4.33954e-12</wgt>
  <wgt id="457">4.17236e-12</wgt>
  <wgt id="458">4.26973e-12</wgt>
  <wgt id="459">4.19771e-12</wgt>
  <wgt id="460">4.37504e-12</wgt>
  <wgt id="461">4.00743e-12</wgt>
  <wgt id="462">4.12507e-12</wgt>
  <wgt id="463">4.05994e-12</wgt>
  <wgt id="464">4.17476e-12</wgt>
  <wgt id="465">4.19791e-12</wgt>
  <wgt id="466">3.90936e-12</wgt>
  <wgt id="467">4.15172e-12</wgt>
  <wgt id="468">4.19636e-12</wgt>
  <wgt id="469">4.14155e-12</wgt>
  <wgt id="470">4.04343e-12</wgt>
  <wgt id="471">4.06646e-12</wgt>
  <wgt id="472">4.19403e-12</wgt>
  <wgt id="473">3.98379e-12</wgt>
  <wgt id="474">3.0282e-12</wgt>
  <wgt id="475">3.171e-12</wgt>
  <wgt id="476">3.28295e-12</wgt>
  <wgt id="477">3.65248e-12</wgt>
  <wgt id="478">3.46938e-12</wgt>
  <wgt id="479">2.49829e-12</wgt>
  <wgt id="480">3.38106e-12</wgt>
  <wgt id="481">3.23969e-12</wgt>
  <wgt id="482">3.82712e-12</wgt>
  <wgt id="483">3.15269e-12</wgt>
  <wgt id="484">3.62102e-12</wgt>
  <wgt id="485">2.9466e-12</wgt>
  <wgt id="486">3.31743e-12</wgt>
  <wgt id="487">2.81651e-12</wgt>
  <wgt id="488">2.41597e-12</wgt>
  <wgt id="489">1.95064e-12</wgt>
  <wgt id="490">3.35968e-12</wgt>
  <wgt id="491">3.05117e-12</wgt>
  <wgt id="492">3.10352e-12</wgt>
  <wgt id="493">2.08905e-12</wgt>
  <wgt id="494">2.14006e-12</wgt>
  <wgt id="495">3.53831e-12</wgt>
  <wgt id="496">2.10834e-12</wgt>
  <wgt id="497">2.8351e-12</wgt>
  <wgt id="498">3.08874e-12</wgt>
  <wgt id="499">3.05818e-12</wgt>
  <wgt id="500">3.67451e-12</wgt>
  <wgt id="501">3.4794e-12</wgt>
  <wgt id="502">3.82059e-12</wgt>
  <wgt id="503">2.95641e-12</wgt>
  <wgt id="504">3.17195e-12</wgt>
  <wgt id="505">3.56808e-12</wgt>
  <wgt id="506">2.42175e-12</wgt>
  <wgt id="507">2.70134e-12</wgt>
  <wgt id="508">3.1884e-12</wgt>
  <wgt id="509">3.38195e-12</wgt>
  <wgt id="510">2.58326e-12</wgt>
  <wgt id="511">2.93388e-12</wgt>
  <wgt id="512">3.20769e-12</wgt>
  <wgt id="513">3.78539e-12</wgt>
  <wgt id="514">3.49787e-12</wgt>
  <wgt id="515">3.85035e-12</wgt>
  <wgt id="516">3.6164e-12</wgt>
  <wgt id="517">3.04175e-12</wgt>
  <wgt id="518">3.58036e-12</wgt>
  <wgt id="519">3.21112e-12</wgt>
  <wgt id="520">2.32294e-12</wgt>
  <wgt id="521">2.7509e-12</wgt>
  <wgt id="522">2.86989e-12</wgt>
  <wgt id="523">3.24722e-12</wgt>
  <wgt id="524">2.76725e-12</wgt>
  <wgt id="525">3.20005e-12</wgt>
  <wgt id="526">3.33178e-12</wgt>
  <wgt id="527">3.13935e-12</wgt>
  <wgt id="528">2.39962e-12</wgt>
  <wgt id="529">1.88165e-12</wgt>
  <wgt id="530">3.45591e-12</wgt>
  <wgt id="531">2.86365e-12</wgt>
  <wgt id="532">3.09768e-12</wgt>
  <wgt id="533">3.26755e-12</wgt>
  <wgt id="534">2.44523e-12</wgt>
  <wgt id="535">3.55875e-12</wgt>
  <wgt id="536">3.60722e-12</wgt>
  <wgt id="537">2.36886e-12</wgt>
  <wgt id="538">2.88525e-12</wgt>
  <wgt id="539">3.06695e-12</wgt>
  <wgt id="540">2.65634e-12</wgt>
  <wgt id="541">3.07522e-12</wgt>
  <wgt id="542">2.31176e-12</wgt>
  <wgt id="543">2.47994e-12</wgt>
  <wgt id="544">2.77342e-12</wgt>
  <wgt id="545">2.60179e-12</wgt>
  <wgt id="546">2.69933e-12</wgt>
  <wgt id="547">2.67623e-12</wgt>
  <wgt id="548">3.63126e-12</wgt>
  <wgt id="549">2.90831e-12</wgt>
  <wgt id="550">2.11982e-12</wgt>
  <wgt id="551">2.40597e-12</wgt>
  <wgt id="552">3.69605e-12</wgt>
  <wgt id="553">2.614e-12</wgt>
  <wgt id="554">2.7828e-12</wgt>
  <wgt id="555">2.8811e-12</wgt>
  <wgt id="556">3.35968e-12</wgt>
  <wgt id="557">2.72416e-12</wgt>
  <wgt id="558">2.90329e-12</wgt>
  <wgt id="559">3.18188e-12</wgt>
  <wgt id="560">3.11384e-12</wgt>
  <wgt id="561">3.60269e-12</wgt>
  <wgt id="562">3.2624e-12</wgt>
  <wgt id="563">3.18784e-12</wgt>
  <wgt id="564">3.66423e-12</wgt>
  <wgt id="565">3.76729e-12</wgt>
  <wgt id="566">2.23626e-12</wgt>
  <wgt id="567">3.41502e-12</wgt>
  <wgt id="568">2.25904e-12</wgt>
  <wgt id="569">3.19275e-12</wgt>
  <wgt id="570">3.23084e-12</wgt>
  <wgt id="571">3.58814e-12</wgt>
  <wgt id="572">2.36318e-12</wgt>
  <wgt id="573">2.98414e-12</wgt>
  <wgt id="574">3.17451e-12</wgt>
  <wgt id="575">3.04747e-12</wgt>
  <wgt id="576">3.27872e-12</wgt>
  <wgt id="577">3.14664e-12</wgt>
  <wgt id="578">2.03226e-12</wgt>
  <wgt id="579">3.17537e-12</wgt>
  <wgt id="580">3.04698e-12</wgt>
  <wgt id="581">3.65964e-12</wgt>
  <wgt id="582">2.82715e-12</wgt>
  <wgt id="583">3.4948e-12</wgt>
  <wgt id="584">3.31481e-12</wgt>
  <wgt id="585">2.84748e-12</wgt>
  <wgt id="586">2.75121e-12</wgt>
  <wgt id="587">3.08047e-12</wgt>
  <wgt id="588">4.29198e-12</wgt>
  <wgt id="589">3.64905e-12</wgt>
  <wgt id="590">3.31081e-12</wgt>
  <wgt id="591">3.32623e-12</wgt>
  <wgt id="592">3.49777e-12</wgt>
  <wgt id="593">3.15526e-12</wgt>
  <wgt id="594">3.10556e-12</wgt>
  <wgt id="595">3.58787e-12</wgt>
  <wgt id="596">3.26828e-12</wgt>
  <wgt id="597">2.70913e-12</wgt>
  <wgt id="598">4.02751e-12</wgt>
  <wgt id="599">3.6485e-12</wgt>
  <wgt id="600">3.15747e-12</wgt>
  <wgt id="601">2.8426e-12</wgt>
  <wgt id="602">2.30037e-12</wgt>
  <wgt id="603">2.12246e-12</wgt>
  <wgt id="604">3.66804e-12</wgt>
  <wgt id="605">2.80063e-12</wgt>
  <wgt id="606">1.56305e-12</wgt>
  <wgt id="607">3.32323e-12</wgt>
  <wgt id="608">3.05037e-12</wgt>
  <wgt id="609">2.96119e-12</wgt>
  <wgt id="610">2.47531e-12</wgt>
  <wgt id="611">2.6623e-12</wgt>
  <wgt id="612">2.8384e-12</wgt>
  <wgt id="613">2.58743e-12</wgt>
  <wgt id="614">3.40588e-12</wgt>
  <wgt id="615">3.26646e-12</wgt>
  <wgt id="616">2.42033e-12</wgt>
  <wgt id="617">3.09475e-12</wgt>
  <wgt id="618">3.60515e-12</wgt>
  <wgt id="619">2.86737e-12</wgt>
  <wgt id="620">3.19854e-12</wgt>
  <wgt id="621">3.38462e-12</wgt>
  <wgt id="622">3.08047e-12</wgt>
  <wgt id="623">3.05613e-12</wgt>
  <wgt id="624">2.63856e-12</wgt>
  <wgt id="625">2.7924e-12</wgt>
  <wgt id="626">8.71906e-13</wgt>
  <wgt id="627">2.67105e-12</wgt>
  <wgt id="628">3.25198e-12</wgt>
  <wgt id="629">3.88848e-12</wgt>
  <wgt id="630">3.63589e-12</wgt>
  <wgt id="631">3.78e-12</wgt>
  <wgt id="632">2.82165e-12</wgt>
  <wgt id="633">3.07844e-12</wgt>
  <wgt id="634">2.47065e-12</wgt>
  <wgt id="635">3.01188e-12</wgt>
  <wgt id="636">2.40348e-12</wgt>
  <wgt id="637">3.00438e-12</wgt>
  <wgt id="638">2.80204e-12</wgt>
  <wgt id="639">2.45246e-12</wgt>
  <wgt id="640">2.34387e-12</wgt>
  <wgt id="641">3.69694e-12</wgt>
  <wgt id="642">2.45038e-12</wgt>
  <wgt id="643">2.96303e-12</wgt>
  <wgt id="644">3.18099e-12</wgt>
  <wgt id="645">3.58659e-12</wgt>
  <wgt id="646">2.10532e-12</wgt>
  <wgt id="647">3.62052e-12</wgt>
  <wgt id="648">3.67121e-12</wgt>
  <wgt id="649">3.64567e-12</wgt>
  <wgt id="650">3.21581e-12</wgt>
  <wgt id="651">2.96907e-12</wgt>
  <wgt id="652">2.66152e-12</wgt>
  <wgt id="653">3.06653e-12</wgt>
  <wgt id="654">3.09914e-12</wgt>
  <wgt id="655">2.28786e-12</wgt>
  <wgt id="656">3.61458e-12</wgt>
  <wgt id="657">3.69847e-12</wgt>
  <wgt id="658">2.67536e-12</wgt>
  <wgt id="659">3.34057e-12</wgt>
  <wgt id="660">2.41309e-12</wgt>
  <wgt id="661">2.79222e-12</wgt>
  <wgt id="662">3.27115e-12</wgt>
  <wgt id="663">3.46004e-12</wgt>
  <wgt id="664">3.5557e-12</wgt>
  <wgt id="665">2.6877e-12</wgt>
  <wgt id="666">2.85672e-12</wgt>
  <wgt id="667">3.02685e-12</wgt>
  <wgt id="668">3.0621e-12</wgt>
  <wgt id="669">2.6604e-12</wgt>
  <wgt id="670">3.51904e-12</wgt>
  <wgt id="671">3.05516e-12</wgt>
  <wgt id="672">3.63113e-12</wgt>
  <wgt id="673">3.56597e-12</wgt>
  <wgt id="674">3.05898e-12</wgt>
  <wgt id="675">2.73398e-12</wgt>
  <wgt id="676">4.31899e-12</wgt>
  <wgt id="677">4.22924e-12</wgt>
  <wgt id="678">5.26815e-12</wgt>
  <wgt id="679">4.53159e-12</wgt>
  <wgt id="680">4.67886e-12</wgt>
  <wgt id="681">4.13649e-12</wgt>
  <wgt id="682">5.07029e-12</wgt>
  <wgt id="683">3.84432e-12</wgt>
  <wgt id="684">5.31678e-12</wgt>
  <wgt id="685">4.71079e-12</wgt>
  <wgt id="686">4.75567e-12</wgt>
  <wgt id="687">3.75101e-12</wgt>
  <wgt id="688">4.65223e-12</wgt>
  <wgt id="689">5.86316e-12</wgt>
  <wgt id="690">5.12927e-12</wgt>
  <wgt id="691">5.09783e-12</wgt>
  <wgt id="692">3.72561e-12</wgt>
  <wgt id="693">7.48356e-12</wgt>
  <wgt id="694">5.75046e-12</wgt>
  <wgt id="695">3.03678e-12</wgt>
  <wgt id="696">2.75202e-12</wgt>
  <wgt id="697">2.91421e-12</wgt>
  <wgt id="698">2.29669e-12</wgt>
  <wgt id="699">3.59219e-12</wgt>
  <wgt id="700">2.69468e-12</wgt>
  <wgt id="701">4.65698e-12</wgt>
  <wgt id="702">3.81327e-12</wgt>
  <wgt id="703">6.98362e-12</wgt>
  <wgt id="704">5.6283e-12</wgt>
  <wgt id="705">4.33976e-12</wgt>
  <wgt id="706">2.59738e-12</wgt>
  <wgt id="707">3.55586e-12</wgt>
  <wgt id="708">3.79452e-12</wgt>
  <wgt id="709">3.50297e-12</wgt>
  <wgt id="710">9.72598e-13</wgt>
  <wgt id="711">5.16089e-12</wgt>
  <wgt id="712">4.0873e-12</wgt>
  <wgt id="713">4.87787e-12</wgt>
  <wgt id="714">2.93268e-12</wgt>
  <wgt id="715">3.05919e-12</wgt>
  <wgt id="716">3.72281e-12</wgt>
  <wgt id="717">2.37343e-12</wgt>
  <wgt id="718">4.20438e-12</wgt>
  <wgt id="719">3.62352e-12</wgt>
  <wgt id="720">3.63924e-12</wgt>
  <wgt id="721">2.85996e-12</wgt>
  <wgt id="722">6.9652e-13</wgt>
  <wgt id="723">6.31815e-12</wgt>
  <wgt id="724">5.03242e-12</wgt>
  <wgt id="725">5.03631e-12</wgt>
  <wgt id="726">4.37582e-12</wgt>
  <wgt id="727">4.55925e-12</wgt>
  <wgt id="728">5.9755e-12</wgt>
  <wgt id="729">2.47352e-12</wgt>
  <wgt id="730">5.73494e-12</wgt>
  <wgt id="731">4.24822e-12</wgt>
  <wgt id="732">5.36719e-12</wgt>
  <wgt id="733">3.7624e-12</wgt>
  <wgt id="734">4.7006e-12</wgt>
  <wgt id="735">3.38375e-12</wgt>
  <wgt id="736">3.37537e-12</wgt>
  <wgt id="737">1.75467e-12</wgt>
  <wgt id="738">3.53158e-12</wgt>
  <wgt id="739">4.45984e-12</wgt>
  <wgt id="740">6.17214e-12</wgt>
  <wgt id="741">5.45173e-12</wgt>
  <wgt id="742">3.19805e-12</wgt>
  <wgt id="743">3.86432e-12</wgt>
  <wgt id="744">3.93839e-12</wgt>
  <wgt id="745">5.71396e-12</wgt>
  <wgt id="746">6.10059e-12</wgt>
  <wgt id="747">3.23709e-12</wgt>
  <wgt id="748">4.23455e-12</wgt>
  <wgt id="749">5.62123e-12</wgt>
  <wgt id="750">5.47212e-12</wgt>
  <wgt id="751">4.83637e-12</wgt>
  <wgt id="752">3.40001e-12</wgt>
  <wgt id="753">3.38799e-12</wgt>
  <wgt id="754">4.35389e-12</wgt>
  <wgt id="755">3.49603e-12</wgt>
  <wgt id="756">3.60949e-12</wgt>
  <wgt id="757">3.45703e-12</wgt>
  <wgt id="758">4.53493e-12</wgt>
  <wgt id="759">4.53789e-12</wgt>
  <wgt id="760">3.19677e-12</wgt>
  <wgt id="761">5.77875e-12</wgt>
  <wgt id="762">5.4457e-12</wgt>
  <wgt id="763">6.5174e-12</wgt>
  <wgt id="764">5.5648e-12</wgt>
  <wgt id="765">4.98181e-12</wgt>
  <wgt id="766">5.39458e-12</wgt>
  <wgt id="767">5.155e-12</wgt>
  <wgt id="768">3.62277e-12</wgt>
  <wgt id="769">4.63072e-12</wgt>
  <wgt id="770">1.50778e-12</wgt>
  <wgt id="771">7.29959e-12</wgt>
  <wgt id="772">3.90977e-12</wgt>
  <wgt id="773">5.05494e-12</wgt>
  <wgt id="774">3.18586e-12</wgt>
  <wgt id="775">5.21147e-12</wgt>
  <wgt id="776">6.72582e-12</wgt>
  <wgt id="777">2.17692e-12</wgt>
  <wgt id="778">1.78915e-12</wgt>
  <wgt id="779">7.06426e-20</wgt>
  <wgt id="780">7.0238e-20</wgt>
  <wgt id="781">2.91446e-13</wgt>
  <wgt id="782">6.38811e-13</wgt>
  <wgt id="783">7.09335e-20</wgt>
  <wgt id="784">7.11725e-20</wgt>
  <wgt id="785">4.40645e-12</wgt>
  <wgt id="786">6.98512e-20</wgt>
  <wgt id="787">3.61145e-12</wgt>
  <wgt id="788">6.82374e-20</wgt>
  <wgt id="789">7.4315e-20</wgt>
  <wgt id="790">6.98434e-20</wgt>
  <wgt id="791">5.85899e-13</wgt>
  <wgt id="792">1.85714e-12</wgt>
  <wgt id="793">7.17701e-20</wgt>
  <wgt id="794">6.977e-20</wgt>
  <wgt id="795">3.75601e-12</wgt>
  <wgt id="796">4.41705e-12</wgt>
  <wgt id="797">3.31507e-12</wgt>
  <wgt id="798">7.02124e-20</wgt>
  <wgt id="799">3.93237e-12</wgt>
  <wgt id="800">7.18205e-20</wgt>
  <wgt id="801">2.9816e-12</wgt>
  <wgt id="802">7.12289e-20</wgt>
  <wgt id="803">2.88752e-12</wgt>
  <wgt id="804">3.96792e-12</wgt>
  <wgt id="805">3.9312e-12</wgt>
  <wgt id="806">1.02606e-12</wgt>
  <wgt id="807">1.57033e-13</wgt>
  <wgt id="808">2.64501e-12</wgt>
  <wgt id="809">7.32458e-20</wgt>
  <wgt id="810">6.63711e-12</wgt>
  <wgt id="811">2.55427e-12</wgt>
  <wgt id="812">7.09395e-20</wgt>
  <wgt id="813">7.00819e-20</wgt>
  <wgt id="814">6.83572e-20</wgt>
  <wgt id="815">7.05569e-20</wgt>
  <wgt id="816">7.14968e-20</wgt>
  <wgt id="817">2.4187e-12</wgt>
  <wgt id="818">3.57506e-12</wgt>
  <wgt id="819">7.1325e-20</wgt>
  <wgt id="820">7.24617e-20</wgt>
  <wgt id="821">3.12964e-12</wgt>
  <wgt id="822">7.24486e-20</wgt>
  <wgt id="823">4.14542e-12</wgt>
  <wgt id="824">2.75079e-12</wgt>
  <wgt id="825">6.97345e-20</wgt>
  <wgt id="826">4.02882e-12</wgt>
  <wgt id="827">7.02717e-20</wgt>
  <wgt id="828">2.54835e-12</wgt>
  <wgt id="829">2.06502e-12</wgt>
  <wgt id="830">7.0002e-20</wgt>
  <wgt id="831">3.22618e-12</wgt>
  <wgt id="832">6.17496e-12</wgt>
  <wgt id="833">7.25161e-20</wgt>
  <wgt id="834">6.48186e-12</wgt>
  <wgt id="835">7.11514e-20</wgt>
  <wgt id="836">7.4581e-20</wgt>
  <wgt id="837">3.20132e-12</wgt>
  <wgt id="838">7.11763e-20</wgt>
  <wgt id="839">4.27079e-12</wgt>
  <wgt id="840">5.11746e-13</wgt>
  <wgt id="841">3.65023e-12</wgt>
  <wgt id="842">7.32215e-20</wgt>
  <wgt id="843">4.92954e-13</wgt>
  <wgt id="844">3.20124e-12</wgt>
  <wgt id="845">5.67016e-12</wgt>
  <wgt id="846">7.41741e-20</wgt>
  <wgt id="847">2.71754e-12</wgt>
  <wgt id="848">7.19286e-20</wgt>
  <wgt id="849">3.26982e-12</wgt>
  <wgt id="850">5.12155e-12</wgt>
  <wgt id="851">3.18757e-12</wgt>
  <wgt id="852">7.10729e-20</wgt>
  <wgt id="853">3.33737e-12</wgt>
  <wgt id="854">4.57547e-12</wgt>
  <wgt id="855">1.75678e-12</wgt>
  <wgt id="856">6.97948e-20</wgt>
  <wgt id="857">7.24645e-20</wgt>
  <wgt id="858">2.71747e-12</wgt>
  <wgt id="859">1.82076e-13</wgt>
  <wgt id="860">7.42676e-13</wgt>
  <wgt id="861">7.30267e-20</wgt>
  <wgt id="862">2.43106e-12</wgt>
  <wgt id="863">3.45522e-12</wgt>
  <wgt id="864">1.29008e-12</wgt>
  <wgt id="865">5.07172e-12</wgt>
  <wgt id="866">5.51877e-12</wgt>
  <wgt id="867">2.24112e-12</wgt>
  <wgt id="868">3.18687e-12</wgt>
  <wgt id="869">7.03157e-20</wgt>
  <wgt id="870">7.11493e-20</wgt>
  <wgt id="871">7.12403e-20</wgt>
  <wgt id="872">5.65808e-12</wgt>
  <wgt id="873">7.17185e-20</wgt>
  <wgt id="874">3.08091e-12</wgt>
  <wgt id="875">7.04617e-20</wgt>
  <wgt id="876">5.07453e-12</wgt>
  <wgt id="877">3.08212e-12</wgt>
  <wgt id="878">7.19687e-20</wgt>
  <wgt id="879">4.31899e-12</wgt>
  <wgt id="880">4.22924e-12</wgt>
  <wgt id="881">5.26815e-12</wgt>
  <wgt id="882">4.53159e-12</wgt>
  <wgt id="883">4.67886e-12</wgt>
  <wgt id="884">4.13649e-12</wgt>
  <wgt id="885">5.07029e-12</wgt>
  <wgt id="886">3.84432e-12</wgt>
  <wgt id="887">5.31678e-12</wgt>
  <wgt id="888">4.71079e-12</wgt>
  <wgt id="889">4.75567e-12</wgt>
  <wgt id="890">3.75101e-12</wgt>
  <wgt id="891">4.65223e-12</wgt>
  <wgt id="892">5.86316e-12</wgt>
  <wgt id="893">5.12927e-12</wgt>
  <wgt id="894">5.09783e-12</wgt>
  <wgt id="895">3.72561e-12</wgt>
  <wgt id="896">7.48356e-12</wgt>
  <wgt id="897">5.75046e-12</wgt>
  <wgt id="898">3.03678e-12</wgt>
  <wgt id="899">2.75202e-12</wgt>
  <wgt id="900">2.91421e-12</wgt>
  <wgt id="901">2.29669e-12</wgt>
  <wgt id="902">3.59219e-12</wgt>
  <wgt id="903">2.69468e-12</wgt>
  <wgt id="904">4.65698e-12</wgt>
  <wgt id="905">3.81327e-12</wgt>
  <wgt id="906">6.98362e-12</wgt>
  <wgt id="907">5.6283e-12</wgt>
  <wgt id="908">4.33976e-12</wgt>
  <wgt id="909">2.59738e-12</wgt>
  <wgt id="910">3.55586e-12</wgt>
  <wgt id="911">3.79452e-12</wgt>
  <wgt id="912">3.50297e-12</wgt>
  <wgt id="913">9.72598e-13</wgt>
  <wgt id="914">5.16089e-12</wgt>
  <wgt id="915">4.0873e-12</wgt>
  <wgt id="916">4.87787e-12</wgt>
  <wgt id="917">2.93268e-12</wgt>
  <wgt id="918">3.05919e-12</wgt>
  <wgt id="919">3.72281e-12</wgt>
  <wgt id="920">2.37343e-12</wgt>
  <wgt id="921">4.20438e-12</wgt>
  <wgt id="922">3.62352e-12</wgt>
  <wgt id="923">3.63924e-12</wgt>
  <wgt id="924">2.85996e-12</wgt>
  <wgt id="925">6.9652e-13</wgt>
  <wgt id="926">6.31815e-12</wgt>
  <wgt id="927">5.03242e-12</wgt>
  <wgt id="928">5.03631e-12</wgt>
  <wgt id="929">4.37582e-12</wgt>
  <wgt id="930">4.55925e-12</wgt>
  <wgt id="931">5.9755e-12</wgt>
  <wgt id="932">2.47352e-12</wgt>
  <wgt id="933">5.73494e-12</wgt>
  <wgt id="934">4.24822e-12</wgt>
  <wgt id="935">5.36719e-12</wgt>
  <wgt id="936">3.7624e-12</wgt>
  <wgt id="937">4.7006e-12</wgt>
  <wgt id="938">3.38375e-12</wgt>
  <wgt id="939">3.37537e-12</wgt>
  <wgt id="940">1.75467e-12</wgt>
  <wgt id="941">3.53158e-12</wgt>
  <wgt id="942">4.45984e-12</wgt>
  <wgt id="943">6.17214e-12</wgt>
  <wgt id="944">5.45173e-12</wgt>
  <wgt id="945">3.19805e-12</wgt>
  <wgt id="946">3.86432e-12</wgt>
  <wgt id="947">3.93839e-12</wgt>
  <wgt id="948">5.71396e-12</wgt>
  <wgt id="949">6.10059e-12</wgt>
  <wgt id="950">3.23709e-12</wgt>
  <wgt id="951">4.23455e-12</wgt>
  <wgt id="952">5.62123e-12</wgt>
  <wgt id="953">5.47212e-12</wgt>
  <wgt id="954">4.83637e-12</wgt>
  <wgt id="955">3.40001e-12</wgt>
  <wgt id="956">3.38799e-12</wgt>
  <wgt id="957">4.35389e-12</wgt>
  <wgt id="958">3.49603e-12</wgt>
  <wgt id="959">3.60949e-12</wgt>
  <wgt id="960">3.45703e-12</wgt>
  <wgt id="961">4.53493e-12</wgt>
  <wgt id="962">4.53789e-12</wgt>
  <wgt id="963">3.19677e-12</wgt>
  <wgt id="964">5.77875e-12</wgt>
  <wgt id="965">5.4457e-12</wgt>
  <wgt id="966">6.5174e-12</wgt>
  <wgt id="967">5.5648e-12</wgt>
  <wgt id="968">4.98181e-12</wgt>
  <wgt id="969">5.39458e-12</wgt>
  <wgt id="970">5.155e-12</wgt>
  <wgt id="971">3.62277e-12</wgt>
  <wgt id="972">4.63072e-12</wgt>
  <wgt id="973">1.50778e-12</wgt>
  <wgt id="974">7.29959e-12</wgt>
  <wgt id="975">3.90977e-12</wgt>
  <wgt id="976">5.05494e-12</wgt>
  <wgt id="977">3.18586e-12</wgt>
  <wgt id="978">5.21147e-12</wgt>
  <wgt id="979">6.72582e-12</wgt>
  <wgt id="980">4.23359e-12</wgt>
  <wgt id="981">4.90636e-12</wgt>
  <wgt id="982">4.57853e-12</wgt>
</rwgt>
</event>
<event>
 5   1  0.3028200E-11  0.3500099E+04  0.7818608E-02  0.7382818E-01
       21   -1    0    0  502  501  0.00000000000E+00  0.00000000000E+00  0.10706709875E+04  0.10706709875E+04  0.00000000000E+00 0.  1.
       21   -1    0    0  501  502 -0.00000000000E+00 -0.00000000000E+00 -0.28605183500E+04  0.28605183500E+04  0.00000000000E+00 0. -1.
       39    2    1    2    0    0  0.00000000000E+00  0.00000000000E+00 -0.17898473625E+04  0.39311893375E+04  0.35000994309E+04 0.  0.
       25    1    3    3    0    0  0.76617046385E+03  0.10802556528E+04  0.38226835288E+03  0.13840966544E+04  0.12500000000E+03 0.  0.
       25    1    3    3    0    0 -0.76617046385E+03 -0.10802556528E+04 -0.21721157154E+04  0.25470926831E+04  0.12500000000E+03 0.  0.
<mgrwt>
<rscale>  0 0.35000994E+04</rscale>
<asrwt>0</asrwt>
<pdfrwt beam="1">  1       21 0.16471861E+00 0.35000994E+04</pdfrwt>
<pdfrwt beam="2">  1       21 0.44007975E+00 0.35000994E+04</pdfrwt>
<totfact> 0.24996234E-01</totfact>
</mgrwt>
<rwgt>
  <wgt id="1">3.0282e-12</wgt>
  <wgt id="2">2.53373e-12</wgt>
  <wgt id="3">3.67611e-12</wgt>
  <wgt id="4">3.0282e-12</wgt>
  <wgt id="5">2.53373e-12</wgt>
  <wgt id="6">3.67611e-12</wgt>
  <wgt id="7">3.0282e-12</wgt>
  <wgt id="8">2.53373e-12</wgt>
  <wgt id="9">3.67611e-12</wgt>
  <wgt id="10">3.3506e-12</wgt>
  <wgt id="11">3.35491e-12</wgt>
  <wgt id="12">3.33809e-12</wgt>
  <wgt id="13">3.34988e-12</wgt>
  <wgt id="14">3.34294e-12</wgt>
  <wgt id="15">3.34935e-12</wgt>
  <wgt id="16">3.33046e-12</wgt>
  <wgt id="17">3.38226e-12</wgt>
  <wgt id="18">3.34908e-12</wgt>
  <wgt id="19">3.37086e-12</wgt>
  <wgt id="20">3.35724e-12</wgt>
  <wgt id="21">3.3018e-12</wgt>
  <wgt id="22">3.31836e-12</wgt>
  <wgt id="23">3.28954e-12</wgt>
  <wgt id="24">3.32534e-12</wgt>
  <wgt id="25">3.34975e-12</wgt>
  <wgt id="26">3.36132e-12</wgt>
  <wgt id="27">3.34861e-12</wgt>
  <wgt id="28">3.33077e-12</wgt>
  <wgt id="29">3.3507e-12</wgt>
  <wgt id="30">3.32353e-12</wgt>
  <wgt id="31">3.36238e-12</wgt>
  <wgt id="32">3.31127e-12</wgt>
  <wgt id="33">3.35544e-12</wgt>
  <wgt id="34">3.31915e-12</wgt>
  <wgt id="35">3.31041e-12</wgt>
  <wgt id="36">3.36904e-12</wgt>
  <wgt id="37">3.33974e-12</wgt>
  <wgt id="38">3.328e-12</wgt>
  <wgt id="39">3.43222e-12</wgt>
  <wgt id="40">3.37239e-12</wgt>
  <wgt id="41">3.34066e-12</wgt>
  <wgt id="42">3.35039e-12</wgt>
  <wgt id="43">3.35545e-12</wgt>
  <wgt id="44">3.36723e-12</wgt>
  <wgt id="45">3.36757e-12</wgt>
  <wgt id="46">3.3222e-12</wgt>
  <wgt id="47">3.41496e-12</wgt>
  <wgt id="48">3.40455e-12</wgt>
  <wgt id="49">3.35504e-12</wgt>
  <wgt id="50">3.31432e-12</wgt>
  <wgt id="51">3.32748e-12</wgt>
  <wgt id="52">3.35085e-12</wgt>
  <wgt id="53">3.45224e-12</wgt>
  <wgt id="54">3.37866e-12</wgt>
  <wgt id="55">3.33299e-12</wgt>
  <wgt id="56">3.25582e-12</wgt>
  <wgt id="57">3.28064e-12</wgt>
  <wgt id="58">3.34067e-12</wgt>
  <wgt id="59">3.37342e-12</wgt>
  <wgt id="60">3.27599e-12</wgt>
  <wgt id="61">3.37454e-12</wgt>
  <wgt id="62">3.39809e-12</wgt>
  <wgt id="63">3.33713e-12</wgt>
  <wgt id="64">3.34616e-12</wgt>
  <wgt id="65">3.3256e-12</wgt>
  <wgt id="66">3.40254e-12</wgt>
  <wgt id="67">3.42412e-12</wgt>
  <wgt id="68">3.35027e-12</wgt>
  <wgt id="69">3.35119e-12</wgt>
  <wgt id="70">3.29483e-12</wgt>
  <wgt id="71">3.39972e-12</wgt>
  <wgt id="72">3.40983e-12</wgt>
  <wgt id="73">3.3001e-12</wgt>
  <wgt id="74">3.38696e-12</wgt>
  <wgt id="75">3.25866e-12</wgt>
  <wgt id="76">3.37229e-12</wgt>
  <wgt id="77">3.33132e-12</wgt>
  <wgt id="78">3.34219e-12</wgt>
  <wgt id="79">3.3516e-12</wgt>
  <wgt id="80">3.33906e-12</wgt>
  <wgt id="81">3.34504e-12</wgt>
  <wgt id="82">3.34534e-12</wgt>
  <wgt id="83">3.31661e-12</wgt>
  <wgt id="84">3.3123e-12</wgt>
  <wgt id="85">3.3073e-12</wgt>
  <wgt id="86">3.40656e-12</wgt>
  <wgt id="87">3.28132e-12</wgt>
  <wgt id="88">3.36362e-12</wgt>
  <wgt id="89">3.36338e-12</wgt>
  <wgt id="90">3.39373e-12</wgt>
  <wgt id="91">3.34875e-12</wgt>
  <wgt id="92">3.36958e-12</wgt>
  <wgt id="93">3.36601e-12</wgt>
  <wgt id="94">3.31819e-12</wgt>
  <wgt id="95">3.40476e-12</wgt>
  <wgt id="96">3.39537e-12</wgt>
  <wgt id="97">3.30005e-12</wgt>
  <wgt id="98">3.35033e-12</wgt>
  <wgt id="99">3.32987e-12</wgt>
  <wgt id="100">3.37262e-12</wgt>
  <wgt id="101">3.32671e-12</wgt>
  <wgt id="102">3.34049e-12</wgt>
  <wgt id="103">3.3927e-12</wgt>
  <wgt id="104">3.34079e-12</wgt>
  <wgt id="105">3.38966e-12</wgt>
  <wgt id="106">3.31542e-12</wgt>
  <wgt id="107">3.41817e-12</wgt>
  <wgt id="108">3.33285e-12</wgt>
  <wgt id="109">3.35086e-12</wgt>
  <wgt id="110">3.34698e-12</wgt>
  <wgt id="111">3.29389e-12</wgt>
  <wgt id="112">3.42884e-12</wgt>
  <wgt id="113">5.88486e-12</wgt>
  <wgt id="114">4.46981e-12</wgt>
  <wgt id="115">4.40136e-12</wgt>
  <wgt id="116">6.8771e-12</wgt>
  <wgt id="117">3.9297e-12</wgt>
  <wgt id="118">3.95194e-12</wgt>
  <wgt id="119">3.9172e-12</wgt>
  <wgt id="120">3.92911e-12</wgt>
  <wgt id="121">3.92995e-12</wgt>
  <wgt id="122">3.92552e-12</wgt>
  <wgt id="123">3.93574e-12</wgt>
  <wgt id="124">3.92592e-12</wgt>
  <wgt id="125">3.93224e-12</wgt>
  <wgt id="126">3.93733e-12</wgt>
  <wgt id="127">3.92467e-12</wgt>
  <wgt id="128">3.94105e-12</wgt>
  <wgt id="129">3.91844e-12</wgt>
  <wgt id="130">3.94658e-12</wgt>
  <wgt id="131">3.91223e-12</wgt>
  <wgt id="132">3.79579e-12</wgt>
  <wgt id="133">4.09327e-12</wgt>
  <wgt id="134">3.88094e-12</wgt>
  <wgt id="135">3.96871e-12</wgt>
  <wgt id="136">4.01766e-12</wgt>
  <wgt id="137">3.82547e-12</wgt>
  <wgt id="138">4.18496e-12</wgt>
  <wgt id="139">3.69672e-12</wgt>
  <wgt id="140">3.92478e-12</wgt>
  <wgt id="141">3.93246e-12</wgt>
  <wgt id="142">3.92713e-12</wgt>
  <wgt id="143">3.95253e-12</wgt>
  <wgt id="144">3.64314e-12</wgt>
  <wgt id="145">4.2314e-12</wgt>
  <wgt id="146">4.03208e-12</wgt>
  <wgt id="147">3.84524e-12</wgt>
  <wgt id="148">3.94778e-12</wgt>
  <wgt id="149">3.92861e-12</wgt>
  <wgt id="150">3.96531e-12</wgt>
  <wgt id="151">3.91318e-12</wgt>
  <wgt id="152">3.93023e-12</wgt>
  <wgt id="153">3.92954e-12</wgt>
  <wgt id="154">3.89692e-12</wgt>
  <wgt id="155">3.95063e-12</wgt>
  <wgt id="156">4.20163e-12</wgt>
  <wgt id="157">3.7158e-12</wgt>
  <wgt id="158">4.63961e-12</wgt>
  <wgt id="159">4.66019e-12</wgt>
  <wgt id="160">4.62333e-12</wgt>
  <wgt id="161">4.62268e-12</wgt>
  <wgt id="162">4.65867e-12</wgt>
  <wgt id="163">4.63183e-12</wgt>
  <wgt id="164">4.6512e-12</wgt>
  <wgt id="165">4.64074e-12</wgt>
  <wgt id="166">4.63867e-12</wgt>
  <wgt id="167">4.63708e-12</wgt>
  <wgt id="168">4.64321e-12</wgt>
  <wgt id="169">4.62456e-12</wgt>
  <wgt id="170">4.64925e-12</wgt>
  <wgt id="171">4.6357e-12</wgt>
  <wgt id="172">4.64517e-12</wgt>
  <wgt id="173">4.61725e-12</wgt>
  <wgt id="174">4.64761e-12</wgt>
  <wgt id="175">4.46851e-12</wgt>
  <wgt id="176">4.86765e-12</wgt>
  <wgt id="177">4.66159e-12</wgt>
  <wgt id="178">4.62071e-12</wgt>
  <wgt id="179">4.99362e-12</wgt>
  <wgt id="180">4.12125e-12</wgt>
  <wgt id="181">4.42385e-12</wgt>
  <wgt id="182">4.78674e-12</wgt>
  <wgt id="183">4.50909e-12</wgt>
  <wgt id="184">4.70526e-12</wgt>
  <wgt id="185">4.56494e-12</wgt>
  <wgt id="186">4.73429e-12</wgt>
  <wgt id="187">4.5659e-12</wgt>
  <wgt id="188">4.76954e-12</wgt>
  <wgt id="189">4.58654e-12</wgt>
  <wgt id="190">4.66111e-12</wgt>
  <wgt id="191">4.66447e-12</wgt>
  <wgt id="192">4.62492e-12</wgt>
  <wgt id="193">4.75383e-12</wgt>
  <wgt id="194">4.58244e-12</wgt>
  <wgt id="195">4.32063e-12</wgt>
  <wgt id="196">5.13984e-12</wgt>
  <wgt id="197">4.6713e-12</wgt>
  <wgt id="198">4.63207e-12</wgt>
  <wgt id="199">4.63961e-12</wgt>
  <wgt id="200">4.69918e-12</wgt>
  <wgt id="201">4.68112e-12</wgt>
  <wgt id="202">4.66255e-12</wgt>
  <wgt id="203">4.63731e-12</wgt>
  <wgt id="204">4.62451e-12</wgt>
  <wgt id="205">4.61342e-12</wgt>
  <wgt id="206">4.52514e-12</wgt>
  <wgt id="207">4.55485e-12</wgt>
  <wgt id="208">4.49581e-12</wgt>
  <wgt id="209">4.54756e-12</wgt>
  <wgt id="210">4.50895e-12</wgt>
  <wgt id="211">4.52218e-12</wgt>
  <wgt id="212">4.52767e-12</wgt>
  <wgt id="213">4.52483e-12</wgt>
  <wgt id="214">4.52565e-12</wgt>
  <wgt id="215">4.53093e-12</wgt>
  <wgt id="216">4.52108e-12</wgt>
  <wgt id="217">4.53594e-12</wgt>
  <wgt id="218">4.51678e-12</wgt>
  <wgt id="219">4.52576e-12</wgt>
  <wgt id="220">4.5249e-12</wgt>
  <wgt id="221">4.53105e-12</wgt>
  <wgt id="222">4.50913e-12</wgt>
  <wgt id="223">4.1839e-12</wgt>
  <wgt id="224">4.84386e-12</wgt>
  <wgt id="225">4.45385e-12</wgt>
  <wgt id="226">4.61714e-12</wgt>
  <wgt id="227">4.47206e-12</wgt>
  <wgt id="228">4.54859e-12</wgt>
  <wgt id="229">4.44241e-12</wgt>
  <wgt id="230">4.56654e-12</wgt>
  <wgt id="231">4.74619e-12</wgt>
  <wgt id="232">4.34799e-12</wgt>
  <wgt id="233">4.47938e-12</wgt>
  <wgt id="234">4.60509e-12</wgt>
  <wgt id="235">4.14192e-12</wgt>
  <wgt id="236">4.83357e-12</wgt>
  <wgt id="237">4.31487e-12</wgt>
  <wgt id="238">4.59555e-12</wgt>
  <wgt id="239">4.44364e-12</wgt>
  <wgt id="240">4.67234e-12</wgt>
  <wgt id="241">4.44359e-12</wgt>
  <wgt id="242">4.62192e-12</wgt>
  <wgt id="243">4.68847e-12</wgt>
  <wgt id="244">4.4857e-12</wgt>
  <wgt id="245">4.52704e-12</wgt>
  <wgt id="246">4.53956e-12</wgt>
  <wgt id="247">4.52514e-12</wgt>
  <wgt id="248">4.59329e-12</wgt>
  <wgt id="249">4.57143e-12</wgt>
  <wgt id="250">4.54498e-12</wgt>
  <wgt id="251">4.51437e-12</wgt>
  <wgt id="252">4.49657e-12</wgt>
  <wgt id="253">4.48493e-12</wgt>
  <wgt id="254">4.28769e-12</wgt>
  <wgt id="255">4.29169e-12</wgt>
  <wgt id="256">4.28328e-12</wgt>
  <wgt id="257">4.29058e-12</wgt>
  <wgt id="258">4.28562e-12</wgt>
  <wgt id="259">4.3177e-12</wgt>
  <wgt id="260">4.2587e-12</wgt>
  <wgt id="261">4.30269e-12</wgt>
  <wgt id="262">4.26978e-12</wgt>
  <wgt id="263">4.28164e-12</wgt>
  <wgt id="264">4.29517e-12</wgt>
  <wgt id="265">4.27982e-12</wgt>
  <wgt id="266">4.30386e-12</wgt>
  <wgt id="267">4.28962e-12</wgt>
  <wgt id="268">4.28516e-12</wgt>
  <wgt id="269">4.30595e-12</wgt>
  <wgt id="270">4.27541e-12</wgt>
  <wgt id="271">4.26945e-12</wgt>
  <wgt id="272">4.30822e-12</wgt>
  <wgt id="273">4.27479e-12</wgt>
  <wgt id="274">4.29772e-12</wgt>
  <wgt id="275">4.24348e-12</wgt>
  <wgt id="276">4.33391e-12</wgt>
  <wgt id="277">4.26349e-12</wgt>
  <wgt id="278">4.30928e-12</wgt>
  <wgt id="279">4.18397e-12</wgt>
  <wgt id="280">4.41958e-12</wgt>
  <wgt id="281">4.24978e-12</wgt>
  <wgt id="282">4.31566e-12</wgt>
  <wgt id="283">4.087e-12</wgt>
  <wgt id="284">4.54591e-12</wgt>
  <wgt id="285">3.96586e-12</wgt>
  <wgt id="286">4.57226e-12</wgt>
  <wgt id="287">4.30697e-12</wgt>
  <wgt id="288">4.26363e-12</wgt>
  <wgt id="289">4.3359e-12</wgt>
  <wgt id="290">4.18658e-12</wgt>
  <wgt id="291">4.26334e-12</wgt>
  <wgt id="292">4.2789e-12</wgt>
  <wgt id="293">4.23482e-12</wgt>
  <wgt id="294">4.34069e-12</wgt>
  <wgt id="295">4.16128e-12</wgt>
  <wgt id="296">4.44369e-12</wgt>
  <wgt id="297">4.24899e-12</wgt>
  <wgt id="298">4.3292e-12</wgt>
  <wgt id="299">4.26782e-12</wgt>
  <wgt id="300">4.34128e-12</wgt>
  <wgt id="301">4.10872e-12</wgt>
  <wgt id="302">4.67398e-12</wgt>
  <wgt id="303">4.19495e-12</wgt>
  <wgt id="304">4.33891e-12</wgt>
  <wgt id="305">4.15006e-12</wgt>
  <wgt id="306">4.15401e-12</wgt>
  <wgt id="307">4.14572e-12</wgt>
  <wgt id="308">4.15292e-12</wgt>
  <wgt id="309">4.14817e-12</wgt>
  <wgt id="310">4.17957e-12</wgt>
  <wgt id="311">4.12277e-12</wgt>
  <wgt id="312">4.16533e-12</wgt>
  <wgt id="313">4.13326e-12</wgt>
  <wgt id="314">4.14343e-12</wgt>
  <wgt id="315">4.15628e-12</wgt>
  <wgt id="316">4.14181e-12</wgt>
  <wgt id="317">4.16822e-12</wgt>
  <wgt id="318">4.15422e-12</wgt>
  <wgt id="319">4.14243e-12</wgt>
  <wgt id="320">4.17008e-12</wgt>
  <wgt id="321">4.13898e-12</wgt>
  <wgt id="322">4.13237e-12</wgt>
  <wgt id="323">4.17054e-12</wgt>
  <wgt id="324">4.14154e-12</wgt>
  <wgt id="325">4.1574e-12</wgt>
  <wgt id="326">4.11354e-12</wgt>
  <wgt id="327">4.19698e-12</wgt>
  <wgt id="328">4.13469e-12</wgt>
  <wgt id="329">4.1571e-12</wgt>
  <wgt id="330">4.29541e-12</wgt>
  <wgt id="331">4.01338e-12</wgt>
  <wgt id="332">4.1179e-12</wgt>
  <wgt id="333">4.17008e-12</wgt>
  <wgt id="334">4.00499e-12</wgt>
  <wgt id="335">4.33622e-12</wgt>
  <wgt id="336">3.93168e-12</wgt>
  <wgt id="337">4.43126e-12</wgt>
  <wgt id="338">4.21686e-12</wgt>
  <wgt id="339">4.08998e-12</wgt>
  <wgt id="340">4.19003e-12</wgt>
  <wgt id="341">4.05611e-12</wgt>
  <wgt id="342">4.13438e-12</wgt>
  <wgt id="343">4.12699e-12</wgt>
  <wgt id="344">4.10662e-12</wgt>
  <wgt id="345">4.20081e-12</wgt>
  <wgt id="346">4.02506e-12</wgt>
  <wgt id="347">4.29246e-12</wgt>
  <wgt id="348">4.1095e-12</wgt>
  <wgt id="349">4.1903e-12</wgt>
  <wgt id="350">4.12674e-12</wgt>
  <wgt id="351">4.20998e-12</wgt>
  <wgt id="352">3.97695e-12</wgt>
  <wgt id="353">4.50121e-12</wgt>
  <wgt id="354">4.02553e-12</wgt>
  <wgt id="355">4.22205e-12</wgt>
  <wgt id="356">4.28769e-12</wgt>
  <wgt id="357">4.12804e-12</wgt>
  <wgt id="358">4.15006e-12</wgt>
  <wgt id="359">4.25516e-12</wgt>
  <wgt id="360">4.46353e-12</wgt>
  <wgt id="361">4.33004e-12</wgt>
  <wgt id="362">4.46268e-12</wgt>
  <wgt id="363">4.44506e-12</wgt>
  <wgt id="364">4.406e-12</wgt>
  <wgt id="365">4.38065e-12</wgt>
  <wgt id="366">4.35731e-12</wgt>
  <wgt id="367">4.31838e-12</wgt>
  <wgt id="368">4.28959e-12</wgt>
  <wgt id="369">4.25879e-12</wgt>
  <wgt id="370">4.33004e-12</wgt>
  <wgt id="371">4.34798e-12</wgt>
  <wgt id="372">4.33801e-12</wgt>
  <wgt id="373">4.32432e-12</wgt>
  <wgt id="374">4.3427e-12</wgt>
  <wgt id="375">5.81395e-12</wgt>
  <wgt id="376">5.81497e-12</wgt>
  <wgt id="377">5.81287e-12</wgt>
  <wgt id="378">5.8395e-12</wgt>
  <wgt id="379">5.78891e-12</wgt>
  <wgt id="380">5.83119e-12</wgt>
  <wgt id="381">5.80728e-12</wgt>
  <wgt id="382">5.84586e-12</wgt>
  <wgt id="383">5.78241e-12</wgt>
  <wgt id="384">5.81859e-12</wgt>
  <wgt id="385">5.80992e-12</wgt>
  <wgt id="386">5.83339e-12</wgt>
  <wgt id="387">5.80572e-12</wgt>
  <wgt id="388">5.80832e-12</wgt>
  <wgt id="389">5.82125e-12</wgt>
  <wgt id="390">5.82693e-12</wgt>
  <wgt id="391">5.80045e-12</wgt>
  <wgt id="392">5.73274e-12</wgt>
  <wgt id="393">5.86033e-12</wgt>
  <wgt id="394">5.81378e-12</wgt>
  <wgt id="395">5.81437e-12</wgt>
  <wgt id="396">5.83628e-12</wgt>
  <wgt id="397">5.79824e-12</wgt>
  <wgt id="398">5.80352e-12</wgt>
  <wgt id="399">5.82412e-12</wgt>
  <wgt id="400">5.79725e-12</wgt>
  <wgt id="401">5.85439e-12</wgt>
  <wgt id="402">5.7204e-12</wgt>
  <wgt id="403">5.89603e-12</wgt>
  <wgt id="404">6.09509e-12</wgt>
  <wgt id="405">5.16932e-12</wgt>
  <wgt id="406">5.61553e-12</wgt>
  <wgt id="407">6.26975e-12</wgt>
  <wgt id="408">5.91982e-12</wgt>
  <wgt id="409">5.62497e-12</wgt>
  <wgt id="410">5.49807e-12</wgt>
  <wgt id="411">5.97314e-12</wgt>
  <wgt id="412">5.79291e-12</wgt>
  <wgt id="413">5.84657e-12</wgt>
  <wgt id="414">5.69001e-12</wgt>
  <wgt id="415">5.91101e-12</wgt>
  <wgt id="416">6.16675e-12</wgt>
  <wgt id="417">5.34614e-12</wgt>
  <wgt id="418">5.83412e-12</wgt>
  <wgt id="419">5.70736e-12</wgt>
  <wgt id="420">6.14374e-12</wgt>
  <wgt id="421">5.58624e-12</wgt>
  <wgt id="422">5.70226e-12</wgt>
  <wgt id="423">5.86395e-12</wgt>
  <wgt id="424">6.17775e-12</wgt>
  <wgt id="425">5.56382e-12</wgt>
  <wgt id="426">5.81395e-12</wgt>
  <wgt id="427">5.53759e-12</wgt>
  <wgt id="428">6.40288e-12</wgt>
  <wgt id="429">5.97504e-12</wgt>
  <wgt id="430">6.30097e-12</wgt>
  <wgt id="431">6.22874e-12</wgt>
  <wgt id="432">6.17069e-12</wgt>
  <wgt id="433">6.11278e-12</wgt>
  <wgt id="434">6.03463e-12</wgt>
  <wgt id="435">5.90153e-12</wgt>
  <wgt id="436">5.83704e-12</wgt>
  <wgt id="437">5.77146e-12</wgt>
  <wgt id="438">5.97504e-12</wgt>
  <wgt id="439">5.99273e-12</wgt>
  <wgt id="440">5.98032e-12</wgt>
  <wgt id="441">5.97249e-12</wgt>
  <wgt id="442">5.97223e-12</wgt>
  <wgt id="443">4.43574e-12</wgt>
  <wgt id="444">4.5199e-12</wgt>
  <wgt id="445">4.53632e-12</wgt>
  <wgt id="446">4.412e-12</wgt>
  <wgt id="447">4.41184e-12</wgt>
  <wgt id="448">4.31967e-12</wgt>
  <wgt id="449">4.60931e-12</wgt>
  <wgt id="450">4.53609e-12</wgt>
  <wgt id="451">4.42116e-12</wgt>
  <wgt id="452">4.55378e-12</wgt>
  <wgt id="453">4.58684e-12</wgt>
  <wgt id="454">4.09572e-12</wgt>
  <wgt id="455">4.51259e-12</wgt>
  <wgt id="456">4.5919e-12</wgt>
  <wgt id="457">4.45864e-12</wgt>
  <wgt id="458">4.53825e-12</wgt>
  <wgt id="459">4.47613e-12</wgt>
  <wgt id="460">4.60612e-12</wgt>
  <wgt id="461">4.26673e-12</wgt>
  <wgt id="462">4.37542e-12</wgt>
  <wgt id="463">4.33195e-12</wgt>
  <wgt id="464">4.41369e-12</wgt>
  <wgt id="465">4.49542e-12</wgt>
  <wgt id="466">4.20412e-12</wgt>
  <wgt id="467">4.4002e-12</wgt>
  <wgt id="468">4.45146e-12</wgt>
  <wgt id="469">4.40242e-12</wgt>
  <wgt id="470">4.31947e-12</wgt>
  <wgt id="471">4.33269e-12</wgt>
  <wgt id="472">4.48708e-12</wgt>
  <wgt id="473">4.19524e-12</wgt>
  <wgt id="474">3.0282e-12</wgt>
  <wgt id="475">3.17496e-12</wgt>
  <wgt id="476">3.16368e-12</wgt>
  <wgt id="477">3.38214e-12</wgt>
  <wgt id="478">3.28759e-12</wgt>
  <wgt id="479">2.56603e-12</wgt>
  <wgt id="480">3.34729e-12</wgt>
  <wgt id="481">3.10455e-12</wgt>
  <wgt id="482">3.36674e-12</wgt>
  <wgt id="483">3.40639e-12</wgt>
  <wgt id="484">3.43356e-12</wgt>
  <wgt id="485">2.75611e-12</wgt>
  <wgt id="486">3.21017e-12</wgt>
  <wgt id="487">2.85261e-12</wgt>
  <wgt id="488">2.76833e-12</wgt>
  <wgt id="489">2.28037e-12</wgt>
  <wgt id="490">3.14736e-12</wgt>
  <wgt id="491">2.94889e-12</wgt>
  <wgt id="492">2.96962e-12</wgt>
  <wgt id="493">2.40326e-12</wgt>
  <wgt id="494">2.39122e-12</wgt>
  <wgt id="495">3.36847e-12</wgt>
  <wgt id="496">2.49715e-12</wgt>
  <wgt id="497">2.75586e-12</wgt>
  <wgt id="498">3.0743e-12</wgt>
  <wgt id="499">3.10308e-12</wgt>
  <wgt id="500">3.36308e-12</wgt>
  <wgt id="501">3.42174e-12</wgt>
  <wgt id="502">3.55492e-12</wgt>
  <wgt id="503">2.90206e-12</wgt>
  <wgt id="504">3.16174e-12</wgt>
  <wgt id="505">3.43454e-12</wgt>
  <wgt id="506">2.45095e-12</wgt>
  <wgt id="507">2.71758e-12</wgt>
  <wgt id="508">3.18499e-12</wgt>
  <wgt id="509">3.20989e-12</wgt>
  <wgt id="510">2.85548e-12</wgt>
  <wgt id="511">2.86893e-12</wgt>
  <wgt id="512">3.33649e-12</wgt>
  <wgt id="513">3.56639e-12</wgt>
  <wgt id="514">3.48381e-12</wgt>
  <wgt id="515">3.53762e-12</wgt>
  <wgt id="516">3.5592e-12</wgt>
  <wgt id="517">3.08412e-12</wgt>
  <wgt id="518">3.40681e-12</wgt>
  <wgt id="519">2.9913e-12</wgt>
  <wgt id="520">2.70096e-12</wgt>
  <wgt id="521">2.7651e-12</wgt>
  <wgt id="522">2.96957e-12</wgt>
  <wgt id="523">3.07223e-12</wgt>
  <wgt id="524">3.14482e-12</wgt>
  <wgt id="525">3.03145e-12</wgt>
  <wgt id="526">3.3875e-12</wgt>
  <wgt id="527">3.05768e-12</wgt>
  <wgt id="528">2.7321e-12</wgt>
  <wgt id="529">2.31138e-12</wgt>
  <wgt id="530">3.38063e-12</wgt>
  <wgt id="531">2.83443e-12</wgt>
  <wgt id="532">3.23833e-12</wgt>
  <wgt id="533">3.16945e-12</wgt>
  <wgt id="534">2.62524e-12</wgt>
  <wgt id="535">3.37328e-12</wgt>
  <wgt id="536">3.38749e-12</wgt>
  <wgt id="537">2.58631e-12</wgt>
  <wgt id="538">2.94719e-12</wgt>
  <wgt id="539">2.97552e-12</wgt>
  <wgt id="540">2.78758e-12</wgt>
  <wgt id="541">3.00059e-12</wgt>
  <wgt id="542">2.61527e-12</wgt>
  <wgt id="543">2.63457e-12</wgt>
  <wgt id="544">2.93545e-12</wgt>
  <wgt id="545">2.67636e-12</wgt>
  <wgt id="546">2.70758e-12</wgt>
  <wgt id="547">2.7147e-12</wgt>
  <wgt id="548">3.25392e-12</wgt>
  <wgt id="549">2.92661e-12</wgt>
  <wgt id="550">2.42181e-12</wgt>
  <wgt id="551">2.74389e-12</wgt>
  <wgt id="552">3.33082e-12</wgt>
  <wgt id="553">2.58435e-12</wgt>
  <wgt id="554">3.03043e-12</wgt>
  <wgt id="555">2.97394e-12</wgt>
  <wgt id="556">3.14736e-12</wgt>
  <wgt id="557">2.84579e-12</wgt>
  <wgt id="558">2.94856e-12</wgt>
  <wgt id="559">3.27044e-12</wgt>
  <wgt id="560">3.30367e-12</wgt>
  <wgt id="561">3.46245e-12</wgt>
  <wgt id="562">3.17655e-12</wgt>
  <wgt id="563">3.12321e-12</wgt>
  <wgt id="564">3.39298e-12</wgt>
  <wgt id="565">3.523e-12</wgt>
  <wgt id="566">2.47686e-12</wgt>
  <wgt id="567">3.22219e-12</wgt>
  <wgt id="568">2.53951e-12</wgt>
  <wgt id="569">3.11831e-12</wgt>
  <wgt id="570">3.2871e-12</wgt>
  <wgt id="571">3.58972e-12</wgt>
  <wgt id="572">2.59294e-12</wgt>
  <wgt id="573">2.92614e-12</wgt>
  <wgt id="574">3.04211e-12</wgt>
  <wgt id="575">3.28409e-12</wgt>
  <wgt id="576">3.68077e-12</wgt>
  <wgt id="577">3.23211e-12</wgt>
  <wgt id="578">2.78981e-12</wgt>
  <wgt id="579">3.42161e-12</wgt>
  <wgt id="580">3.29204e-12</wgt>
  <wgt id="581">3.70927e-12</wgt>
  <wgt id="582">3.41658e-12</wgt>
  <wgt id="583">3.6187e-12</wgt>
  <wgt id="584">3.39361e-12</wgt>
  <wgt id="585">2.9694e-12</wgt>
  <wgt id="586">3.01638e-12</wgt>
  <wgt id="587">3.36136e-12</wgt>
  <wgt id="588">4.21692e-12</wgt>
  <wgt id="589">3.92407e-12</wgt>
  <wgt id="590">3.49545e-12</wgt>
  <wgt id="591">3.47519e-12</wgt>
  <wgt id="592">3.45442e-12</wgt>
  <wgt id="593">3.21188e-12</wgt>
  <wgt id="594">3.10248e-12</wgt>
  <wgt id="595">3.8109e-12</wgt>
  <wgt id="596">3.54829e-12</wgt>
  <wgt id="597">3.22887e-12</wgt>
  <wgt id="598">3.80078e-12</wgt>
  <wgt id="599">3.8027e-12</wgt>
  <wgt id="600">3.88207e-12</wgt>
  <wgt id="601">3.08257e-12</wgt>
  <wgt id="602">2.8292e-12</wgt>
  <wgt id="603">2.69482e-12</wgt>
  <wgt id="604">3.71765e-12</wgt>
  <wgt id="605">3.12845e-12</wgt>
  <wgt id="606">2.68088e-12</wgt>
  <wgt id="607">3.56657e-12</wgt>
  <wgt id="608">3.34601e-12</wgt>
  <wgt id="609">3.05694e-12</wgt>
  <wgt id="610">2.89872e-12</wgt>
  <wgt id="611">2.95787e-12</wgt>
  <wgt id="612">3.21639e-12</wgt>
  <wgt id="613">2.91448e-12</wgt>
  <wgt id="614">3.45922e-12</wgt>
  <wgt id="615">3.59361e-12</wgt>
  <wgt id="616">2.67888e-12</wgt>
  <wgt id="617">3.49594e-12</wgt>
  <wgt id="618">3.66291e-12</wgt>
  <wgt id="619">3.17785e-12</wgt>
  <wgt id="620">3.37365e-12</wgt>
  <wgt id="621">3.37041e-12</wgt>
  <wgt id="622">3.36136e-12</wgt>
  <wgt id="623">3.21638e-12</wgt>
  <wgt id="624">3.08901e-12</wgt>
  <wgt id="625">3.04202e-12</wgt>
  <wgt id="626">1.92177e-12</wgt>
  <wgt id="627">2.76745e-12</wgt>
  <wgt id="628">3.4606e-12</wgt>
  <wgt id="629">4.1089e-12</wgt>
  <wgt id="630">3.50909e-12</wgt>
  <wgt id="631">3.76846e-12</wgt>
  <wgt id="632">2.95422e-12</wgt>
  <wgt id="633">3.25339e-12</wgt>
  <wgt id="634">2.91246e-12</wgt>
  <wgt id="635">3.12257e-12</wgt>
  <wgt id="636">2.96434e-12</wgt>
  <wgt id="637">3.48099e-12</wgt>
  <wgt id="638">2.98614e-12</wgt>
  <wgt id="639">2.84171e-12</wgt>
  <wgt id="640">2.86346e-12</wgt>
  <wgt id="641">3.67283e-12</wgt>
  <wgt id="642">2.67927e-12</wgt>
  <wgt id="643">3.13065e-12</wgt>
  <wgt id="644">3.18475e-12</wgt>
  <wgt id="645">3.51285e-12</wgt>
  <wgt id="646">2.55411e-12</wgt>
  <wgt id="647">3.71155e-12</wgt>
  <wgt id="648">3.7521e-12</wgt>
  <wgt id="649">3.57343e-12</wgt>
  <wgt id="650">3.38386e-12</wgt>
  <wgt id="651">3.30681e-12</wgt>
  <wgt id="652">3.00356e-12</wgt>
  <wgt id="653">3.16166e-12</wgt>
  <wgt id="654">3.26739e-12</wgt>
  <wgt id="655">2.71456e-12</wgt>
  <wgt id="656">3.56187e-12</wgt>
  <wgt id="657">3.76684e-12</wgt>
  <wgt id="658">3.10687e-12</wgt>
  <wgt id="659">3.29095e-12</wgt>
  <wgt id="660">2.80936e-12</wgt>
  <wgt id="661">3.04813e-12</wgt>
  <wgt id="662">3.34894e-12</wgt>
  <wgt id="663">3.53306e-12</wgt>
  <wgt id="664">3.64736e-12</wgt>
  <wgt id="665">3.04232e-12</wgt>
  <wgt id="666">3.11574e-12</wgt>
  <wgt id="667">3.39658e-12</wgt>
  <wgt id="668">3.20236e-12</wgt>
  <wgt id="669">3.04608e-12</wgt>
  <wgt id="670">3.63557e-12</wgt>
  <wgt id="671">3.36626e-12</wgt>
  <wgt id="672">3.66125e-12</wgt>
  <wgt id="673">3.76147e-12</wgt>
  <wgt id="674">3.14064e-12</wgt>
  <wgt id="675">2.9413e-12</wgt>
  <wgt id="676">4.62862e-12</wgt>
  <wgt id="677">4.51233e-12</wgt>
  <wgt id="678">5.53729e-12</wgt>
  <wgt id="679">5.16234e-12</wgt>
  <wgt id="680">4.81828e-12</wgt>
  <wgt id="681">4.37322e-12</wgt>
  <wgt id="682">5.16386e-12</wgt>
  <wgt id="683">3.9837e-12</wgt>
  <wgt id="684">5.439e-12</wgt>
  <wgt id="685">4.77977e-12</wgt>
  <wgt id="686">5.04197e-12</wgt>
  <wgt id="687">4.56656e-12</wgt>
  <wgt id="688">4.66257e-12</wgt>
  <wgt id="689">5.75952e-12</wgt>
  <wgt id="690">5.19032e-12</wgt>
  <wgt id="691">5.05749e-12</wgt>
  <wgt id="692">4.19985e-12</wgt>
  <wgt id="693">8.01791e-12</wgt>
  <wgt id="694">5.71259e-12</wgt>
  <wgt id="695">3.6648e-12</wgt>
  <wgt id="696">3.58202e-12</wgt>
  <wgt id="697">3.41158e-12</wgt>
  <wgt id="698">2.94329e-12</wgt>
  <wgt id="699">3.65848e-12</wgt>
  <wgt id="700">3.47523e-12</wgt>
  <wgt id="701">4.78493e-12</wgt>
  <wgt id="702">4.02178e-12</wgt>
  <wgt id="703">7.3319e-12</wgt>
  <wgt id="704">5.74861e-12</wgt>
  <wgt id="705">4.98474e-12</wgt>
  <wgt id="706">3.42059e-12</wgt>
  <wgt id="707">3.98957e-12</wgt>
  <wgt id="708">4.07019e-12</wgt>
  <wgt id="709">4.10057e-12</wgt>
  <wgt id="710">2.14794e-12</wgt>
  <wgt id="711">5.40738e-12</wgt>
  <wgt id="712">4.26701e-12</wgt>
  <wgt id="713">5.17556e-12</wgt>
  <wgt id="714">3.50582e-12</wgt>
  <wgt id="715">3.84432e-12</wgt>
  <wgt id="716">4.18986e-12</wgt>
  <wgt id="717">3.09785e-12</wgt>
  <wgt id="718">4.64597e-12</wgt>
  <wgt id="719">4.12837e-12</wgt>
  <wgt id="720">4.64342e-12</wgt>
  <wgt id="721">3.53197e-12</wgt>
  <wgt id="722">2.05103e-12</wgt>
  <wgt id="723">6.23949e-12</wgt>
  <wgt id="724">5.38381e-12</wgt>
  <wgt id="725">5.20486e-12</wgt>
  <wgt id="726">4.61712e-12</wgt>
  <wgt id="727">4.81468e-12</wgt>
  <wgt id="728">5.49072e-12</wgt>
  <wgt id="729">3.00175e-12</wgt>
  <wgt id="730">5.90505e-12</wgt>
  <wgt id="731">4.63193e-12</wgt>
  <wgt id="732">5.84292e-12</wgt>
  <wgt id="733">4.0456e-12</wgt>
  <wgt id="734">4.99913e-12</wgt>
  <wgt id="735">3.97367e-12</wgt>
  <wgt id="736">3.86474e-12</wgt>
  <wgt id="737">2.74159e-12</wgt>
  <wgt id="738">4.01281e-12</wgt>
  <wgt id="739">4.70638e-12</wgt>
  <wgt id="740">6.57853e-12</wgt>
  <wgt id="741">5.45335e-12</wgt>
  <wgt id="742">3.58398e-12</wgt>
  <wgt id="743">3.946e-12</wgt>
  <wgt id="744">4.24717e-12</wgt>
  <wgt id="745">5.92491e-12</wgt>
  <wgt id="746">6.21207e-12</wgt>
  <wgt id="747">3.42956e-12</wgt>
  <wgt id="748">4.28736e-12</wgt>
  <wgt id="749">5.48832e-12</wgt>
  <wgt id="750">5.34168e-12</wgt>
  <wgt id="751">4.97323e-12</wgt>
  <wgt id="752">3.78023e-12</wgt>
  <wgt id="753">3.73882e-12</wgt>
  <wgt id="754">4.88534e-12</wgt>
  <wgt id="755">4.14035e-12</wgt>
  <wgt id="756">4.1967e-12</wgt>
  <wgt id="757">3.59895e-12</wgt>
  <wgt id="758">4.65754e-12</wgt>
  <wgt id="759">4.81777e-12</wgt>
  <wgt id="760">3.89966e-12</wgt>
  <wgt id="761">5.86755e-12</wgt>
  <wgt id="762">5.94741e-12</wgt>
  <wgt id="763">5.89346e-12</wgt>
  <wgt id="764">5.66014e-12</wgt>
  <wgt id="765">4.95041e-12</wgt>
  <wgt id="766">5.22758e-12</wgt>
  <wgt id="767">5.1293e-12</wgt>
  <wgt id="768">3.8567e-12</wgt>
  <wgt id="769">4.87441e-12</wgt>
  <wgt id="770">2.96088e-12</wgt>
  <wgt id="771">7.20037e-12</wgt>
  <wgt id="772">4.18196e-12</wgt>
  <wgt id="773">5.0635e-12</wgt>
  <wgt id="774">3.30265e-12</wgt>
  <wgt id="775">5.25851e-12</wgt>
  <wgt id="776">6.90144e-12</wgt>
  <wgt id="777">2.80214e-12</wgt>
  <wgt id="778">2.01244e-12</wgt>
  <wgt id="779">3.73653e-20</wgt>
  <wgt id="780">3.4645e-20</wgt>
  <wgt id="781">1.53226e-12</wgt>
  <wgt id="782">2.12028e-12</wgt>
  <wgt id="783">3.77148e-20</wgt>
  <wgt id="784">3.80604e-20</wgt>
  <wgt id="785">4.52342e-12</wgt>
  <wgt id="786">3.57637e-20</wgt>
  <wgt id="787">3.84999e-12</wgt>
  <wgt id="788">3.33779e-20</wgt>
  <wgt id="789">3.61415e-20</wgt>
  <wgt id="790">3.5755e-20</wgt>
  <wgt id="791">1.7475e-12</wgt>
  <wgt id="792">2.83514e-12</wgt>
  <wgt id="793">7.59542e-14</wgt>
  <wgt id="794">3.61822e-20</wgt>
  <wgt id="795">4.27591e-12</wgt>
  <wgt id="796">4.41779e-12</wgt>
  <wgt id="797">3.49828e-12</wgt>
  <wgt id="798">8.41904e-14</wgt>
  <wgt id="799">4.26065e-12</wgt>
  <wgt id="800">3.64601e-20</wgt>
  <wgt id="801">3.28682e-12</wgt>
  <wgt id="802">3.63438e-20</wgt>
  <wgt id="803">3.84827e-12</wgt>
  <wgt id="804">4.2645e-12</wgt>
  <wgt id="805">4.38162e-12</wgt>
  <wgt id="806">2.63433e-12</wgt>
  <wgt id="807">1.64646e-12</wgt>
  <wgt id="808">2.63506e-12</wgt>
  <wgt id="809">7.66127e-13</wgt>
  <wgt id="810">5.88291e-12</wgt>
  <wgt id="811">2.71624e-12</wgt>
  <wgt id="812">3.60337e-20</wgt>
  <wgt id="813">3.62384e-20</wgt>
  <wgt id="814">2.95774e-13</wgt>
  <wgt id="815">3.74116e-20</wgt>
  <wgt id="816">3.53977e-20</wgt>
  <wgt id="817">2.64735e-12</wgt>
  <wgt id="818">3.71858e-12</wgt>
  <wgt id="819">3.74367e-20</wgt>
  <wgt id="820">1.06118e-12</wgt>
  <wgt id="821">3.49099e-12</wgt>
  <wgt id="822">3.76531e-20</wgt>
  <wgt id="823">4.2e-12</wgt>
  <wgt id="824">3.72839e-12</wgt>
  <wgt id="825">3.55272e-20</wgt>
  <wgt id="826">4.31327e-12</wgt>
  <wgt id="827">3.27997e-20</wgt>
  <wgt id="828">3.15528e-12</wgt>
  <wgt id="829">2.39697e-12</wgt>
  <wgt id="830">3.46788e-20</wgt>
  <wgt id="831">3.49241e-12</wgt>
  <wgt id="832">6.26086e-12</wgt>
  <wgt id="833">5.59885e-13</wgt>
  <wgt id="834">6.29107e-12</wgt>
  <wgt id="835">3.65368e-20</wgt>
  <wgt id="836">4.0408e-20</wgt>
  <wgt id="837">3.44652e-12</wgt>
  <wgt id="838">3.94387e-20</wgt>
  <wgt id="839">4.02226e-12</wgt>
  <wgt id="840">1.29296e-12</wgt>
  <wgt id="841">4.06714e-12</wgt>
  <wgt id="842">1.447e-12</wgt>
  <wgt id="843">1.61101e-12</wgt>
  <wgt id="844">3.30387e-12</wgt>
  <wgt id="845">5.829e-12</wgt>
  <wgt id="846">5.60814e-14</wgt>
  <wgt id="847">2.82013e-12</wgt>
  <wgt id="848">3.81083e-20</wgt>
  <wgt id="849">3.29694e-12</wgt>
  <wgt id="850">5.68865e-12</wgt>
  <wgt id="851">3.42467e-12</wgt>
  <wgt id="852">3.79453e-20</wgt>
  <wgt id="853">3.55974e-12</wgt>
  <wgt id="854">4.86775e-12</wgt>
  <wgt id="855">3.10126e-12</wgt>
  <wgt id="856">3.51008e-20</wgt>
  <wgt id="857">1.49999e-13</wgt>
  <wgt id="858">2.76168e-12</wgt>
  <wgt id="859">1.50326e-12</wgt>
  <wgt id="860">2.11872e-12</wgt>
  <wgt id="861">9.42284e-14</wgt>
  <wgt id="862">2.68782e-12</wgt>
  <wgt id="863">3.50242e-12</wgt>
  <wgt id="864">1.99726e-12</wgt>
  <wgt id="865">5.85522e-12</wgt>
  <wgt id="866">5.94208e-12</wgt>
  <wgt id="867">2.28142e-12</wgt>
  <wgt id="868">3.27892e-12</wgt>
  <wgt id="869">3.61755e-20</wgt>
  <wgt id="870">3.70829e-20</wgt>
  <wgt id="871">7.72112e-13</wgt>
  <wgt id="872">5.68526e-12</wgt>
  <wgt id="873">4.02429e-13</wgt>
  <wgt id="874">3.20221e-12</wgt>
  <wgt id="875">3.77192e-20</wgt>
  <wgt id="876">5.1542e-12</wgt>
  <wgt id="877">3.35919e-12</wgt>
  <wgt id="878">3.79392e-20</wgt>
  <wgt id="879">4.62862e-12</wgt>
  <wgt id="880">4.51233e-12</wgt>
  <wgt id="881">5.53729e-12</wgt>
  <wgt id="882">5.16234e-12</wgt>
  <wgt id="883">4.81828e-12</wgt>
  <wgt id="884">4.37322e-12</wgt>
  <wgt id="885">5.16386e-12</wgt>
  <wgt id="886">3.9837e-12</wgt>
  <wgt id="887">5.439e-12</wgt>
  <wgt id="888">4.77977e-12</wgt>
  <wgt id="889">5.04197e-12</wgt>
  <wgt id="890">4.56656e-12</wgt>
  <wgt id="891">4.66257e-12</wgt>
  <wgt id="892">5.75952e-12</wgt>
  <wgt id="893">5.19032e-12</wgt>
  <wgt id="894">5.05749e-12</wgt>
  <wgt id="895">4.19985e-12</wgt>
  <wgt id="896">8.01791e-12</wgt>
  <wgt id="897">5.71259e-12</wgt>
  <wgt id="898">3.6648e-12</wgt>
  <wgt id="899">3.58202e-12</wgt>
  <wgt id="900">3.41158e-12</wgt>
  <wgt id="901">2.94329e-12</wgt>
  <wgt id="902">3.65848e-12</wgt>
  <wgt id="903">3.47523e-12</wgt>
  <wgt id="904">4.78493e-12</wgt>
  <wgt id="905">4.02178e-12</wgt>
  <wgt id="906">7.3319e-12</wgt>
  <wgt id="907">5.74861e-12</wgt>
  <wgt id="908">4.98474e-12</wgt>
  <wgt id="909">3.42059e-12</wgt>
  <wgt id="910">3.98957e-12</wgt>
  <wgt id="911">4.07019e-12</wgt>
  <wgt id="912">4.10057e-12</wgt>
  <wgt id="913">2.14794e-12</wgt>
  <wgt id="914">5.40738e-12</wgt>
  <wgt id="915">4.26701e-12</wgt>
  <wgt id="916">5.17556e-12</wgt>
  <wgt id="917">3.50582e-12</wgt>
  <wgt id="918">3.84432e-12</wgt>
  <wgt id="919">4.18986e-12</wgt>
  <wgt id="920">3.09785e-12</wgt>
  <wgt id="921">4.64597e-12</wgt>
  <wgt id="922">4.12837e-12</wgt>
  <wgt id="923">4.64342e-12</wgt>
  <wgt id="924">3.53197e-12</wgt>
  <wgt id="925">2.05103e-12</wgt>
  <wgt id="926">6.23949e-12</wgt>
  <wgt id="927">5.38381e-12</wgt>
  <wgt id="928">5.20486e-12</wgt>
  <wgt id="929">4.61712e-12</wgt>
  <wgt id="930">4.81468e-12</wgt>
  <wgt id="931">5.49072e-12</wgt>
  <wgt id="932">3.00175e-12</wgt>
  <wgt id="933">5.90505e-12</wgt>
  <wgt id="934">4.63193e-12</wgt>
  <wgt id="935">5.84292e-12</wgt>
  <wgt id="936">4.0456e-12</wgt>
  <wgt id="937">4.99913e-12</wgt>
  <wgt id="938">3.97367e-12</wgt>
  <wgt id="939">3.86474e-12</wgt>
  <wgt id="940">2.74159e-12</wgt>
  <wgt id="941">4.01281e-12</wgt>
  <wgt id="942">4.70638e-12</wgt>
  <wgt id="943">6.57853e-12</wgt>
  <wgt id="944">5.45335e-12</wgt>
  <wgt id="945">3.58398e-12</wgt>
  <wgt id="946">3.946e-12</wgt>
  <wgt id="947">4.24717e-12</wgt>
  <wgt id="948">5.92491e-12</wgt>
  <wgt id="949">6.21207e-12</wgt>
  <wgt id="950">3.42956e-12</wgt>
  <wgt id="951">4.28736e-12</wgt>
  <wgt id="952">5.48832e-12</wgt>
  <wgt id="953">5.34168e-12</wgt>
  <wgt id="954">4.97323e-12</wgt>
  <wgt id="955">3.78023e-12</wgt>
  <wgt id="956">3.73882e-12</wgt>
  <wgt id="957">4.88534e-12</wgt>
  <wgt id="958">4.14035e-12</wgt>
  <wgt id="959">4.1967e-12</wgt>
  <wgt id="960">3.59895e-12</wgt>
  <wgt id="961">4.65754e-12</wgt>
  <wgt id="962">4.81777e-12</wgt>
  <wgt id="963">3.89966e-12</wgt>
  <wgt id="964">5.86755e-12</wgt>
  <wgt id="965">5.94741e-12</wgt>
  <wgt id="966">5.89346e-12</wgt>
  <wgt id="967">5.66014e-12</wgt>
  <wgt id="968">4.95041e-12</wgt>
  <wgt id="969">5.22758e-12</wgt>
  <wgt id="970">5.1293e-12</wgt>
  <wgt id="971">3.8567e-12</wgt>
  <wgt id="972">4.87441e-12</wgt>
  <wgt id="973">2.96088e-12</wgt>
  <wgt id="974">7.20037e-12</wgt>
  <wgt id="975">4.18196e-12</wgt>
  <wgt id="976">5.0635e-12</wgt>
  <wgt id="977">3.30265e-12</wgt>
  <wgt id="978">5.25851e-12</wgt>
  <wgt id="979">6.90144e-12</wgt>
  <wgt id="980">4.55994e-12</wgt>
  <wgt id="981">5.04339e-12</wgt>
  <wgt id="982">4.67749e-12</wgt>
</rwgt>
</event>
<event>
 5   1  0.3028200E-11  0.2537908E+04  0.7818608E-02  0.7632350E-01
       21   -1    0    0  502  501  0.00000000000E+00  0.00000000000E+00  0.12934607522E+04  0.12934607522E+04  0.00000000000E+00 0.  1.
       21   -1    0    0  501  502 -0.00000000000E+00 -0.00000000000E+00 -0.12449119063E+04  0.12449119063E+04  0.00000000000E+00 0. -1.
       39    2    1    2    0    0  0.00000000000E+00  0.00000000000E+00  0.48548845883E+02  0.25383726585E+04  0.25379083441E+04 0.  0.
       25    1    3    3    0    0 -0.48601180510E+03 -0.90673241009E+03  0.75669833405E+03  0.12831946489E+04  0.12500000000E+03 0.  0.
       25    1    3    3    0    0  0.48601180510E+03  0.90673241009E+03 -0.70814948817E+03  0.12551780096E+04  0.12500000000E+03 0.  0.
<mgrwt>
<rscale>  0 0.25379083E+04</rscale>
<asrwt>0</asrwt>
<pdfrwt beam="1">  1       21 0.19899396E+00 0.25379083E+04</pdfrwt>
<pdfrwt beam="2">  1       21 0.19152491E+00 0.25379083E+04</pdfrwt>
<totfact> 0.69991839E+00</totfact>
</mgrwt>
<rwgt>
  <wgt id="1">3.0282e-12</wgt>
  <wgt id="2">2.62421e-12</wgt>
  <wgt id="3">3.53252e-12</wgt>
  <wgt id="4">3.0282e-12</wgt>
  <wgt id="5">2.62421e-12</wgt>
  <wgt id="6">3.53252e-12</wgt>
  <wgt id="7">3.0282e-12</wgt>
  <wgt id="8">2.62421e-12</wgt>
  <wgt id="9">3.53252e-12</wgt>
  <wgt id="10">3.15636e-12</wgt>
  <wgt id="11">3.15283e-12</wgt>
  <wgt id="12">3.15005e-12</wgt>
  <wgt id="13">3.14512e-12</wgt>
  <wgt id="14">3.16845e-12</wgt>
  <wgt id="15">3.16139e-12</wgt>
  <wgt id="16">3.15055e-12</wgt>
  <wgt id="17">3.16121e-12</wgt>
  <wgt id="18">3.14901e-12</wgt>
  <wgt id="19">3.16426e-12</wgt>
  <wgt id="20">3.14606e-12</wgt>
  <wgt id="21">3.137e-12</wgt>
  <wgt id="22">3.1452e-12</wgt>
  <wgt id="23">3.12777e-12</wgt>
  <wgt id="24">3.14248e-12</wgt>
  <wgt id="25">3.14959e-12</wgt>
  <wgt id="26">3.17051e-12</wgt>
  <wgt id="27">3.15702e-12</wgt>
  <wgt id="28">3.14255e-12</wgt>
  <wgt id="29">3.15889e-12</wgt>
  <wgt id="30">3.15074e-12</wgt>
  <wgt id="31">3.16402e-12</wgt>
  <wgt id="32">3.15454e-12</wgt>
  <wgt id="33">3.16562e-12</wgt>
  <wgt id="34">3.14683e-12</wgt>
  <wgt id="35">3.15797e-12</wgt>
  <wgt id="36">3.16893e-12</wgt>
  <wgt id="37">3.14836e-12</wgt>
  <wgt id="38">3.14535e-12</wgt>
  <wgt id="39">3.1869e-12</wgt>
  <wgt id="40">3.16244e-12</wgt>
  <wgt id="41">3.15609e-12</wgt>
  <wgt id="42">3.16047e-12</wgt>
  <wgt id="43">3.15504e-12</wgt>
  <wgt id="44">3.14867e-12</wgt>
  <wgt id="45">3.16583e-12</wgt>
  <wgt id="46">3.16431e-12</wgt>
  <wgt id="47">3.14361e-12</wgt>
  <wgt id="48">3.15499e-12</wgt>
  <wgt id="49">3.15881e-12</wgt>
  <wgt id="50">3.17499e-12</wgt>
  <wgt id="51">3.17367e-12</wgt>
  <wgt id="52">3.15885e-12</wgt>
  <wgt id="53">3.12586e-12</wgt>
  <wgt id="54">3.14744e-12</wgt>
  <wgt id="55">3.15659e-12</wgt>
  <wgt id="56">3.1695e-12</wgt>
  <wgt id="57">3.16755e-12</wgt>
  <wgt id="58">3.13239e-12</wgt>
  <wgt id="59">3.14327e-12</wgt>
  <wgt id="60">3.15812e-12</wgt>
  <wgt id="61">3.14504e-12</wgt>
  <wgt id="62">3.15368e-12</wgt>
  <wgt id="63">3.15857e-12</wgt>
  <wgt id="64">3.1602e-12</wgt>
  <wgt id="65">3.16093e-12</wgt>
  <wgt id="66">3.15116e-12</wgt>
  <wgt id="67">3.14814e-12</wgt>
  <wgt id="68">3.1525e-12</wgt>
  <wgt id="69">3.15686e-12</wgt>
  <wgt id="70">3.15362e-12</wgt>
  <wgt id="71">3.15745e-12</wgt>
  <wgt id="72">3.15274e-12</wgt>
  <wgt id="73">3.15763e-12</wgt>
  <wgt id="74">3.15926e-12</wgt>
  <wgt id="75">3.15183e-12</wgt>
  <wgt id="76">3.16591e-12</wgt>
  <wgt id="77">3.15601e-12</wgt>
  <wgt id="78">3.15727e-12</wgt>
  <wgt id="79">3.16293e-12</wgt>
  <wgt id="80">3.14202e-12</wgt>
  <wgt id="81">3.15187e-12</wgt>
  <wgt id="82">3.15627e-12</wgt>
  <wgt id="83">3.14217e-12</wgt>
  <wgt id="84">3.1488e-12</wgt>
  <wgt id="85">3.14908e-12</wgt>
  <wgt id="86">3.16561e-12</wgt>
  <wgt id="87">3.13748e-12</wgt>
  <wgt id="88">3.16101e-12</wgt>
  <wgt id="89">3.15989e-12</wgt>
  <wgt id="90">3.16141e-12</wgt>
  <wgt id="91">3.15889e-12</wgt>
  <wgt id="92">3.16305e-12</wgt>
  <wgt id="93">3.1556e-12</wgt>
  <wgt id="94">3.15267e-12</wgt>
  <wgt id="95">3.15842e-12</wgt>
  <wgt id="96">3.15889e-12</wgt>
  <wgt id="97">3.15164e-12</wgt>
  <wgt id="98">3.15764e-12</wgt>
  <wgt id="99">3.15532e-12</wgt>
  <wgt id="100">3.15902e-12</wgt>
  <wgt id="101">3.15443e-12</wgt>
  <wgt id="102">3.15212e-12</wgt>
  <wgt id="103">3.16167e-12</wgt>
  <wgt id="104">3.15369e-12</wgt>
  <wgt id="105">3.15973e-12</wgt>
  <wgt id="106">3.1517e-12</wgt>
  <wgt id="107">3.16547e-12</wgt>
  <wgt id="108">3.15328e-12</wgt>
  <wgt id="109">3.15671e-12</wgt>
  <wgt id="110">3.15623e-12</wgt>
  <wgt id="111">3.18156e-12</wgt>
  <wgt id="112">3.15899e-12</wgt>
  <wgt id="113">4.34763e-12</wgt>
  <wgt id="114">4.45587e-12</wgt>
  <wgt id="115">4.39417e-12</wgt>
  <wgt id="116">6.35088e-12</wgt>
  <wgt id="117">3.56706e-12</wgt>
  <wgt id="118">3.58083e-12</wgt>
  <wgt id="119">3.55948e-12</wgt>
  <wgt id="120">3.5674e-12</wgt>
  <wgt id="121">3.56701e-12</wgt>
  <wgt id="122">3.5612e-12</wgt>
  <wgt id="123">3.57541e-12</wgt>
  <wgt id="124">3.56207e-12</wgt>
  <wgt id="125">3.5704e-12</wgt>
  <wgt id="126">3.57431e-12</wgt>
  <wgt id="127">3.56232e-12</wgt>
  <wgt id="128">3.57834e-12</wgt>
  <wgt id="129">3.55609e-12</wgt>
  <wgt id="130">3.58825e-12</wgt>
  <wgt id="131">3.54545e-12</wgt>
  <wgt id="132">3.47108e-12</wgt>
  <wgt id="133">3.68134e-12</wgt>
  <wgt id="134">3.52686e-12</wgt>
  <wgt id="135">3.59866e-12</wgt>
  <wgt id="136">3.61584e-12</wgt>
  <wgt id="137">3.50834e-12</wgt>
  <wgt id="138">3.71412e-12</wgt>
  <wgt id="139">3.426e-12</wgt>
  <wgt id="140">3.5442e-12</wgt>
  <wgt id="141">3.58491e-12</wgt>
  <wgt id="142">3.56751e-12</wgt>
  <wgt id="143">3.5731e-12</wgt>
  <wgt id="144">3.45259e-12</wgt>
  <wgt id="145">3.67485e-12</wgt>
  <wgt id="146">3.60395e-12</wgt>
  <wgt id="147">3.5377e-12</wgt>
  <wgt id="148">3.579e-12</wgt>
  <wgt id="149">3.56625e-12</wgt>
  <wgt id="150">3.59907e-12</wgt>
  <wgt id="151">3.55209e-12</wgt>
  <wgt id="152">3.5691e-12</wgt>
  <wgt id="153">3.56654e-12</wgt>
  <wgt id="154">3.59296e-12</wgt>
  <wgt id="155">3.53579e-12</wgt>
  <wgt id="156">3.65103e-12</wgt>
  <wgt id="157">3.4827e-12</wgt>
  <wgt id="158">4.28971e-12</wgt>
  <wgt id="159">4.30769e-12</wgt>
  <wgt id="160">4.27504e-12</wgt>
  <wgt id="161">4.27781e-12</wgt>
  <wgt id="162">4.30259e-12</wgt>
  <wgt id="163">4.2846e-12</wgt>
  <wgt id="164">4.29715e-12</wgt>
  <wgt id="165">4.29113e-12</wgt>
  <wgt id="166">4.28837e-12</wgt>
  <wgt id="167">4.28657e-12</wgt>
  <wgt id="168">4.29383e-12</wgt>
  <wgt id="169">4.2716e-12</wgt>
  <wgt id="170">4.30107e-12</wgt>
  <wgt id="171">4.28452e-12</wgt>
  <wgt id="172">4.29681e-12</wgt>
  <wgt id="173">4.28839e-12</wgt>
  <wgt id="174">4.29e-12</wgt>
  <wgt id="175">4.1635e-12</wgt>
  <wgt id="176">4.45481e-12</wgt>
  <wgt id="177">4.31434e-12</wgt>
  <wgt id="178">4.26692e-12</wgt>
  <wgt id="179">4.48199e-12</wgt>
  <wgt id="180">3.9875e-12</wgt>
  <wgt id="181">4.15682e-12</wgt>
  <wgt id="182">4.37752e-12</wgt>
  <wgt id="183">4.20859e-12</wgt>
  <wgt id="184">4.32981e-12</wgt>
  <wgt id="185">4.25315e-12</wgt>
  <wgt id="186">4.33519e-12</wgt>
  <wgt id="187">4.24948e-12</wgt>
  <wgt id="188">4.36247e-12</wgt>
  <wgt id="189">4.26e-12</wgt>
  <wgt id="190">4.30183e-12</wgt>
  <wgt id="191">4.30228e-12</wgt>
  <wgt id="192">4.28213e-12</wgt>
  <wgt id="193">4.35555e-12</wgt>
  <wgt id="194">4.25728e-12</wgt>
  <wgt id="195">4.16362e-12</wgt>
  <wgt id="196">4.50426e-12</wgt>
  <wgt id="197">4.31247e-12</wgt>
  <wgt id="198">4.28427e-12</wgt>
  <wgt id="199">4.28971e-12</wgt>
  <wgt id="200">4.32814e-12</wgt>
  <wgt id="201">4.3143e-12</wgt>
  <wgt id="202">4.30065e-12</wgt>
  <wgt id="203">4.28036e-12</wgt>
  <wgt id="204">4.27079e-12</wgt>
  <wgt id="205">4.26296e-12</wgt>
  <wgt id="206">4.14143e-12</wgt>
  <wgt id="207">4.16596e-12</wgt>
  <wgt id="208">4.1171e-12</wgt>
  <wgt id="209">4.15583e-12</wgt>
  <wgt id="210">4.1307e-12</wgt>
  <wgt id="211">4.13966e-12</wgt>
  <wgt id="212">4.14279e-12</wgt>
  <wgt id="213">4.14098e-12</wgt>
  <wgt id="214">4.14191e-12</wgt>
  <wgt id="215">4.14466e-12</wgt>
  <wgt id="216">4.13875e-12</wgt>
  <wgt id="217">4.15389e-12</wgt>
  <wgt id="218">4.13155e-12</wgt>
  <wgt id="219">4.13836e-12</wgt>
  <wgt id="220">4.14317e-12</wgt>
  <wgt id="221">4.13955e-12</wgt>
  <wgt id="222">4.14514e-12</wgt>
  <wgt id="223">3.91314e-12</wgt>
  <wgt id="224">4.34974e-12</wgt>
  <wgt id="225">4.08853e-12</wgt>
  <wgt id="226">4.20776e-12</wgt>
  <wgt id="227">4.10045e-12</wgt>
  <wgt id="228">4.15933e-12</wgt>
  <wgt id="229">4.08151e-12</wgt>
  <wgt id="230">4.17109e-12</wgt>
  <wgt id="231">4.26543e-12</wgt>
  <wgt id="232">4.03957e-12</wgt>
  <wgt id="233">4.1184e-12</wgt>
  <wgt id="234">4.1781e-12</wgt>
  <wgt id="235">4.04011e-12</wgt>
  <wgt id="236">4.2314e-12</wgt>
  <wgt id="237">4.07573e-12</wgt>
  <wgt id="238">4.16368e-12</wgt>
  <wgt id="239">4.11327e-12</wgt>
  <wgt id="240">4.19179e-12</wgt>
  <wgt id="241">4.09681e-12</wgt>
  <wgt id="242">4.19545e-12</wgt>
  <wgt id="243">4.20416e-12</wgt>
  <wgt id="244">4.15709e-12</wgt>
  <wgt id="245">4.13906e-12</wgt>
  <wgt id="246">4.1699e-12</wgt>
  <wgt id="247">4.14143e-12</wgt>
  <wgt id="248">4.17843e-12</wgt>
  <wgt id="249">4.16431e-12</wgt>
  <wgt id="250">4.15133e-12</wgt>
  <wgt id="251">4.13143e-12</wgt>
  <wgt id="252">4.12248e-12</wgt>
  <wgt id="253">4.11568e-12</wgt>
  <wgt id="254">4.0584e-12</wgt>
  <wgt id="255">4.06206e-12</wgt>
  <wgt id="256">4.05388e-12</wgt>
  <wgt id="257">4.06118e-12</wgt>
  <wgt id="258">4.0561e-12</wgt>
  <wgt id="259">4.0855e-12</wgt>
  <wgt id="260">4.03189e-12</wgt>
  <wgt id="261">4.06543e-12</wgt>
  <wgt id="262">4.04963e-12</wgt>
  <wgt id="263">4.05614e-12</wgt>
  <wgt id="264">4.06072e-12</wgt>
  <wgt id="265">4.053e-12</wgt>
  <wgt id="266">4.06868e-12</wgt>
  <wgt id="267">4.05977e-12</wgt>
  <wgt id="268">4.0562e-12</wgt>
  <wgt id="269">4.07267e-12</wgt>
  <wgt id="270">4.04864e-12</wgt>
  <wgt id="271">4.05116e-12</wgt>
  <wgt id="272">4.06618e-12</wgt>
  <wgt id="273">4.04501e-12</wgt>
  <wgt id="274">4.06825e-12</wgt>
  <wgt id="275">4.0401e-12</wgt>
  <wgt id="276">4.0771e-12</wgt>
  <wgt id="277">4.0342e-12</wgt>
  <wgt id="278">4.08038e-12</wgt>
  <wgt id="279">3.97621e-12</wgt>
  <wgt id="280">4.1611e-12</wgt>
  <wgt id="281">4.03895e-12</wgt>
  <wgt id="282">4.05951e-12</wgt>
  <wgt id="283">3.93627e-12</wgt>
  <wgt id="284">4.20872e-12</wgt>
  <wgt id="285">3.85679e-12</wgt>
  <wgt id="286">4.22565e-12</wgt>
  <wgt id="287">4.07152e-12</wgt>
  <wgt id="288">4.0413e-12</wgt>
  <wgt id="289">4.08791e-12</wgt>
  <wgt id="290">3.98963e-12</wgt>
  <wgt id="291">4.04621e-12</wgt>
  <wgt id="292">4.06098e-12</wgt>
  <wgt id="293">4.02552e-12</wgt>
  <wgt id="294">4.09063e-12</wgt>
  <wgt id="295">3.97841e-12</wgt>
  <wgt id="296">4.15565e-12</wgt>
  <wgt id="297">4.05614e-12</wgt>
  <wgt id="298">4.07575e-12</wgt>
  <wgt id="299">4.04427e-12</wgt>
  <wgt id="300">4.09466e-12</wgt>
  <wgt id="301">3.99165e-12</wgt>
  <wgt id="302">4.21863e-12</wgt>
  <wgt id="303">4.02297e-12</wgt>
  <wgt id="304">4.07827e-12</wgt>
  <wgt id="305">4.06492e-12</wgt>
  <wgt id="306">4.06936e-12</wgt>
  <wgt id="307">4.06044e-12</wgt>
  <wgt id="308">4.06818e-12</wgt>
  <wgt id="309">4.06297e-12</wgt>
  <wgt id="310">4.09331e-12</wgt>
  <wgt id="311">4.03888e-12</wgt>
  <wgt id="312">4.07136e-12</wgt>
  <wgt id="313">4.05838e-12</wgt>
  <wgt id="314">4.06305e-12</wgt>
  <wgt id="315">4.06715e-12</wgt>
  <wgt id="316">4.05997e-12</wgt>
  <wgt id="317">4.07603e-12</wgt>
  <wgt id="318">4.06841e-12</wgt>
  <wgt id="319">4.05954e-12</wgt>
  <wgt id="320">4.08006e-12</wgt>
  <wgt id="321">4.05685e-12</wgt>
  <wgt id="322">4.0561e-12</wgt>
  <wgt id="323">4.07574e-12</wgt>
  <wgt id="324">4.05413e-12</wgt>
  <wgt id="325">4.07478e-12</wgt>
  <wgt id="326">4.05056e-12</wgt>
  <wgt id="327">4.08363e-12</wgt>
  <wgt id="328">4.04376e-12</wgt>
  <wgt id="329">4.0772e-12</wgt>
  <wgt id="330">4.18999e-12</wgt>
  <wgt id="331">3.946e-12</wgt>
  <wgt id="332">4.04893e-12</wgt>
  <wgt id="333">4.06558e-12</wgt>
  <wgt id="334">3.96949e-12</wgt>
  <wgt id="335">4.1841e-12</wgt>
  <wgt id="336">3.91873e-12</wgt>
  <wgt id="337">4.24332e-12</wgt>
  <wgt id="338">4.11174e-12</wgt>
  <wgt id="339">4.0219e-12</wgt>
  <wgt id="340">4.09316e-12</wgt>
  <wgt id="341">3.99345e-12</wgt>
  <wgt id="342">4.05621e-12</wgt>
  <wgt id="343">4.06103e-12</wgt>
  <wgt id="344">4.03548e-12</wgt>
  <wgt id="345">4.09938e-12</wgt>
  <wgt id="346">3.98217e-12</wgt>
  <wgt id="347">4.16055e-12</wgt>
  <wgt id="348">4.06414e-12</wgt>
  <wgt id="349">4.07998e-12</wgt>
  <wgt id="350">4.04767e-12</wgt>
  <wgt id="351">4.10886e-12</wgt>
  <wgt id="352">3.99163e-12</wgt>
  <wgt id="353">4.23192e-12</wgt>
  <wgt id="354">4.01126e-12</wgt>
  <wgt id="355">4.09747e-12</wgt>
  <wgt id="356">4.0584e-12</wgt>
  <wgt id="357">4.0802e-12</wgt>
  <wgt id="358">4.06492e-12</wgt>
  <wgt id="359">4.07095e-12</wgt>
  <wgt id="360">4.09158e-12</wgt>
  <wgt id="361">4.07261e-12</wgt>
  <wgt id="362">4.14715e-12</wgt>
  <wgt id="363">4.13634e-12</wgt>
  <wgt id="364">4.12132e-12</wgt>
  <wgt id="365">4.10653e-12</wgt>
  <wgt id="366">4.09044e-12</wgt>
  <wgt id="367">4.0573e-12</wgt>
  <wgt id="368">4.03913e-12</wgt>
  <wgt id="369">4.01956e-12</wgt>
  <wgt id="370">4.07261e-12</wgt>
  <wgt id="371">4.09113e-12</wgt>
  <wgt id="372">4.08081e-12</wgt>
  <wgt id="373">4.06578e-12</wgt>
  <wgt id="374">4.06498e-12</wgt>
  <wgt id="375">4.37735e-12</wgt>
  <wgt id="376">4.37784e-12</wgt>
  <wgt id="377">4.37646e-12</wgt>
  <wgt id="378">4.39317e-12</wgt>
  <wgt id="379">4.3612e-12</wgt>
  <wgt id="380">4.38866e-12</wgt>
  <wgt id="381">4.37259e-12</wgt>
  <wgt id="382">4.4015e-12</wgt>
  <wgt id="383">4.35325e-12</wgt>
  <wgt id="384">4.38013e-12</wgt>
  <wgt id="385">4.37457e-12</wgt>
  <wgt id="386">4.3961e-12</wgt>
  <wgt id="387">4.36896e-12</wgt>
  <wgt id="388">4.37273e-12</wgt>
  <wgt id="389">4.38245e-12</wgt>
  <wgt id="390">4.38995e-12</wgt>
  <wgt id="391">4.36383e-12</wgt>
  <wgt id="392">4.34028e-12</wgt>
  <wgt id="393">4.39818e-12</wgt>
  <wgt id="394">4.38345e-12</wgt>
  <wgt id="395">4.36872e-12</wgt>
  <wgt id="396">4.38148e-12</wgt>
  <wgt id="397">4.37435e-12</wgt>
  <wgt id="398">4.35638e-12</wgt>
  <wgt id="399">4.39748e-12</wgt>
  <wgt id="400">4.36903e-12</wgt>
  <wgt id="401">4.39552e-12</wgt>
  <wgt id="402">4.33927e-12</wgt>
  <wgt id="403">4.39478e-12</wgt>
  <wgt id="404">4.48457e-12</wgt>
  <wgt id="405">4.11968e-12</wgt>
  <wgt id="406">4.30072e-12</wgt>
  <wgt id="407">4.54396e-12</wgt>
  <wgt id="408">4.41658e-12</wgt>
  <wgt id="409">4.30223e-12</wgt>
  <wgt id="410">4.25202e-12</wgt>
  <wgt id="411">4.43565e-12</wgt>
  <wgt id="412">4.3691e-12</wgt>
  <wgt id="413">4.38986e-12</wgt>
  <wgt id="414">4.32701e-12</wgt>
  <wgt id="415">4.41614e-12</wgt>
  <wgt id="416">4.50235e-12</wgt>
  <wgt id="417">4.20466e-12</wgt>
  <wgt id="418">4.38362e-12</wgt>
  <wgt id="419">4.34413e-12</wgt>
  <wgt id="420">4.45495e-12</wgt>
  <wgt id="421">4.3308e-12</wgt>
  <wgt id="422">4.36597e-12</wgt>
  <wgt id="423">4.38322e-12</wgt>
  <wgt id="424">4.47761e-12</wgt>
  <wgt id="425">4.31316e-12</wgt>
  <wgt id="426">4.37735e-12</wgt>
  <wgt id="427">4.33266e-12</wgt>
  <wgt id="428">4.50598e-12</wgt>
  <wgt id="429">4.42134e-12</wgt>
  <wgt id="430">4.55089e-12</wgt>
  <wgt id="431">4.52484e-12</wgt>
  <wgt id="432">4.50059e-12</wgt>
  <wgt id="433">4.47672e-12</wgt>
  <wgt id="434">4.44766e-12</wgt>
  <wgt id="435">4.38811e-12</wgt>
  <wgt id="436">4.35772e-12</wgt>
  <wgt id="437">4.32852e-12</wgt>
  <wgt id="438">4.42134e-12</wgt>
  <wgt id="439">4.43597e-12</wgt>
  <wgt id="440">4.42711e-12</wgt>
  <wgt id="441">4.41701e-12</wgt>
  <wgt id="442">4.41319e-12</wgt>
  <wgt id="443">4.25491e-12</wgt>
  <wgt id="444">4.28168e-12</wgt>
  <wgt id="445">4.23406e-12</wgt>
  <wgt id="446">4.22666e-12</wgt>
  <wgt id="447">4.23801e-12</wgt>
  <wgt id="448">4.13587e-12</wgt>
  <wgt id="449">4.3244e-12</wgt>
  <wgt id="450">4.23865e-12</wgt>
  <wgt id="451">4.24729e-12</wgt>
  <wgt id="452">4.35824e-12</wgt>
  <wgt id="453">4.30152e-12</wgt>
  <wgt id="454">4.08096e-12</wgt>
  <wgt id="455">4.25934e-12</wgt>
  <wgt id="456">4.2239e-12</wgt>
  <wgt id="457">4.27475e-12</wgt>
  <wgt id="458">4.30551e-12</wgt>
  <wgt id="459">4.28456e-12</wgt>
  <wgt id="460">4.27758e-12</wgt>
  <wgt id="461">4.16892e-12</wgt>
  <wgt id="462">4.21528e-12</wgt>
  <wgt id="463">4.20548e-12</wgt>
  <wgt id="464">4.22689e-12</wgt>
  <wgt id="465">4.30479e-12</wgt>
  <wgt id="466">4.20239e-12</wgt>
  <wgt id="467">4.20893e-12</wgt>
  <wgt id="468">4.24192e-12</wgt>
  <wgt id="469">4.24058e-12</wgt>
  <wgt id="470">4.21571e-12</wgt>
  <wgt id="471">4.21341e-12</wgt>
  <wgt id="472">4.27693e-12</wgt>
  <wgt id="473">4.10131e-12</wgt>
  <wgt id="474">3.0282e-12</wgt>
  <wgt id="475">3.21913e-12</wgt>
  <wgt id="476">2.9498e-12</wgt>
  <wgt id="477">2.88776e-12</wgt>
  <wgt id="478">3.0408e-12</wgt>
  <wgt id="479">2.95482e-12</wgt>
  <wgt id="480">3.15217e-12</wgt>
  <wgt id="481">2.97239e-12</wgt>
  <wgt id="482">2.92048e-12</wgt>
  <wgt id="483">2.94451e-12</wgt>
  <wgt id="484">3.22966e-12</wgt>
  <wgt id="485">3.02451e-12</wgt>
  <wgt id="486">3.13098e-12</wgt>
  <wgt id="487">3.10408e-12</wgt>
  <wgt id="488">3.07755e-12</wgt>
  <wgt id="489">2.93793e-12</wgt>
  <wgt id="490">2.93131e-12</wgt>
  <wgt id="491">2.99264e-12</wgt>
  <wgt id="492">2.93427e-12</wgt>
  <wgt id="493">2.90869e-12</wgt>
  <wgt id="494">2.93714e-12</wgt>
  <wgt id="495">3.10698e-12</wgt>
  <wgt id="496">2.92998e-12</wgt>
  <wgt id="497">2.90116e-12</wgt>
  <wgt id="498">3.07734e-12</wgt>
  <wgt id="499">2.95247e-12</wgt>
  <wgt id="500">2.98604e-12</wgt>
  <wgt id="501">3.17713e-12</wgt>
  <wgt id="502">2.95386e-12</wgt>
  <wgt id="503">3.03161e-12</wgt>
  <wgt id="504">3.06843e-12</wgt>
  <wgt id="505">2.96179e-12</wgt>
  <wgt id="506">3.13533e-12</wgt>
  <wgt id="507">3.0033e-12</wgt>
  <wgt id="508">3.06553e-12</wgt>
  <wgt id="509">2.93209e-12</wgt>
  <wgt id="510">3.11999e-12</wgt>
  <wgt id="511">2.97269e-12</wgt>
  <wgt id="512">3.08045e-12</wgt>
  <wgt id="513">3.18624e-12</wgt>
  <wgt id="514">3.00549e-12</wgt>
  <wgt id="515">2.98326e-12</wgt>
  <wgt id="516">3.11569e-12</wgt>
  <wgt id="517">3.08741e-12</wgt>
  <wgt id="518">3.09102e-12</wgt>
  <wgt id="519">2.92833e-12</wgt>
  <wgt id="520">3.06875e-12</wgt>
  <wgt id="521">3.13074e-12</wgt>
  <wgt id="522">3.14769e-12</wgt>
  <wgt id="523">3.11305e-12</wgt>
  <wgt id="524">3.06811e-12</wgt>
  <wgt id="525">3.14211e-12</wgt>
  <wgt id="526">3.04893e-12</wgt>
  <wgt id="527">3.06789e-12</wgt>
  <wgt id="528">3.05746e-12</wgt>
  <wgt id="529">2.96215e-12</wgt>
  <wgt id="530">3.06619e-12</wgt>
  <wgt id="531">3.00374e-12</wgt>
  <wgt id="532">3.20811e-12</wgt>
  <wgt id="533">2.84554e-12</wgt>
  <wgt id="534">3.05164e-12</wgt>
  <wgt id="535">3.10346e-12</wgt>
  <wgt id="536">2.99944e-12</wgt>
  <wgt id="537">3.04137e-12</wgt>
  <wgt id="538">3.05233e-12</wgt>
  <wgt id="539">2.98111e-12</wgt>
  <wgt id="540">2.94427e-12</wgt>
  <wgt id="541">2.92236e-12</wgt>
  <wgt id="542">2.98676e-12</wgt>
  <wgt id="543">3.02589e-12</wgt>
  <wgt id="544">3.18148e-12</wgt>
  <wgt id="545">2.99221e-12</wgt>
  <wgt id="546">2.98742e-12</wgt>
  <wgt id="547">2.93275e-12</wgt>
  <wgt id="548">2.90353e-12</wgt>
  <wgt id="549">2.96907e-12</wgt>
  <wgt id="550">2.98892e-12</wgt>
  <wgt id="551">3.05155e-12</wgt>
  <wgt id="552">3.00611e-12</wgt>
  <wgt id="553">3.02103e-12</wgt>
  <wgt id="554">3.25016e-12</wgt>
  <wgt id="555">3.09856e-12</wgt>
  <wgt id="556">2.93131e-12</wgt>
  <wgt id="557">3.08089e-12</wgt>
  <wgt id="558">2.92843e-12</wgt>
  <wgt id="559">2.98649e-12</wgt>
  <wgt id="560">3.29156e-12</wgt>
  <wgt id="561">2.9749e-12</wgt>
  <wgt id="562">3.08336e-12</wgt>
  <wgt id="563">2.92211e-12</wgt>
  <wgt id="564">3.0288e-12</wgt>
  <wgt id="565">2.89678e-12</wgt>
  <wgt id="566">3.09295e-12</wgt>
  <wgt id="567">2.98756e-12</wgt>
  <wgt id="568">3.00758e-12</wgt>
  <wgt id="569">3.11344e-12</wgt>
  <wgt id="570">2.91777e-12</wgt>
  <wgt id="571">3.36336e-12</wgt>
  <wgt id="572">2.95372e-12</wgt>
  <wgt id="573">2.89215e-12</wgt>
  <wgt id="574">2.91776e-12</wgt>
  <wgt id="575">3.34811e-12</wgt>
  <wgt id="576">3.33159e-12</wgt>
  <wgt id="577">3.41956e-12</wgt>
  <wgt id="578">3.45706e-12</wgt>
  <wgt id="579">3.42204e-12</wgt>
  <wgt id="580">3.42067e-12</wgt>
  <wgt id="581">3.57661e-12</wgt>
  <wgt id="582">3.32569e-12</wgt>
  <wgt id="583">3.38883e-12</wgt>
  <wgt id="584">3.35584e-12</wgt>
  <wgt id="585">3.37813e-12</wgt>
  <wgt id="586">3.2773e-12</wgt>
  <wgt id="587">3.40422e-12</wgt>
  <wgt id="588">3.32938e-12</wgt>
  <wgt id="589">3.42952e-12</wgt>
  <wgt id="590">3.41289e-12</wgt>
  <wgt id="591">3.47096e-12</wgt>
  <wgt id="592">3.27397e-12</wgt>
  <wgt id="593">3.33697e-12</wgt>
  <wgt id="594">3.42784e-12</wgt>
  <wgt id="595">3.34005e-12</wgt>
  <wgt id="596">3.35674e-12</wgt>
  <wgt id="597">3.25794e-12</wgt>
  <wgt id="598">3.21799e-12</wgt>
  <wgt id="599">3.53557e-12</wgt>
  <wgt id="600">3.31109e-12</wgt>
  <wgt id="601">3.25681e-12</wgt>
  <wgt id="602">3.27146e-12</wgt>
  <wgt id="603">3.27372e-12</wgt>
  <wgt id="604">3.40232e-12</wgt>
  <wgt id="605">3.48583e-12</wgt>
  <wgt id="606">3.27521e-12</wgt>
  <wgt id="607">3.30595e-12</wgt>
  <wgt id="608">3.39636e-12</wgt>
  <wgt id="609">3.17317e-12</wgt>
  <wgt id="610">3.2249e-12</wgt>
  <wgt id="611">3.36955e-12</wgt>
  <wgt id="612">3.55982e-12</wgt>
  <wgt id="613">3.33719e-12</wgt>
  <wgt id="614">3.39857e-12</wgt>
  <wgt id="615">3.27674e-12</wgt>
  <wgt id="616">3.52196e-12</wgt>
  <wgt id="617">3.47656e-12</wgt>
  <wgt id="618">3.44901e-12</wgt>
  <wgt id="619">3.2951e-12</wgt>
  <wgt id="620">3.51859e-12</wgt>
  <wgt id="621">3.39783e-12</wgt>
  <wgt id="622">3.40422e-12</wgt>
  <wgt id="623">3.45513e-12</wgt>
  <wgt id="624">3.3432e-12</wgt>
  <wgt id="625">3.31184e-12</wgt>
  <wgt id="626">3.26193e-12</wgt>
  <wgt id="627">3.20864e-12</wgt>
  <wgt id="628">3.55686e-12</wgt>
  <wgt id="629">3.26407e-12</wgt>
  <wgt id="630">3.19346e-12</wgt>
  <wgt id="631">3.37554e-12</wgt>
  <wgt id="632">3.21987e-12</wgt>
  <wgt id="633">3.31422e-12</wgt>
  <wgt id="634">3.32653e-12</wgt>
  <wgt id="635">3.25675e-12</wgt>
  <wgt id="636">3.36607e-12</wgt>
  <wgt id="637">3.31996e-12</wgt>
  <wgt id="638">3.20902e-12</wgt>
  <wgt id="639">3.29752e-12</wgt>
  <wgt id="640">3.34668e-12</wgt>
  <wgt id="641">3.37628e-12</wgt>
  <wgt id="642">3.13325e-12</wgt>
  <wgt id="643">3.32346e-12</wgt>
  <wgt id="644">3.21119e-12</wgt>
  <wgt id="645">3.38937e-12</wgt>
  <wgt id="646">3.38817e-12</wgt>
  <wgt id="647">3.31372e-12</wgt>
  <wgt id="648">3.3686e-12</wgt>
  <wgt id="649">3.40131e-12</wgt>
  <wgt id="650">3.28689e-12</wgt>
  <wgt id="651">3.34258e-12</wgt>
  <wgt id="652">3.31491e-12</wgt>
  <wgt id="653">3.24897e-12</wgt>
  <wgt id="654">3.32672e-12</wgt>
  <wgt id="655">3.30925e-12</wgt>
  <wgt id="656">3.38889e-12</wgt>
  <wgt id="657">3.5001e-12</wgt>
  <wgt id="658">3.32784e-12</wgt>
  <wgt id="659">3.20729e-12</wgt>
  <wgt id="660">3.41938e-12</wgt>
  <wgt id="661">3.28769e-12</wgt>
  <wgt id="662">3.36242e-12</wgt>
  <wgt id="663">3.35398e-12</wgt>
  <wgt id="664">3.30161e-12</wgt>
  <wgt id="665">3.33899e-12</wgt>
  <wgt id="666">3.30875e-12</wgt>
  <wgt id="667">3.45117e-12</wgt>
  <wgt id="668">3.35308e-12</wgt>
  <wgt id="669">3.42943e-12</wgt>
  <wgt id="670">3.43112e-12</wgt>
  <wgt id="671">3.33308e-12</wgt>
  <wgt id="672">3.20856e-12</wgt>
  <wgt id="673">3.36605e-12</wgt>
  <wgt id="674">3.28859e-12</wgt>
  <wgt id="675">3.32076e-12</wgt>
  <wgt id="676">4.26729e-12</wgt>
  <wgt id="677">4.30621e-12</wgt>
  <wgt id="678">4.47443e-12</wgt>
  <wgt id="679">3.94364e-12</wgt>
  <wgt id="680">4.18864e-12</wgt>
  <wgt id="681">4.35025e-12</wgt>
  <wgt id="682">4.43389e-12</wgt>
  <wgt id="683">4.19914e-12</wgt>
  <wgt id="684">4.4697e-12</wgt>
  <wgt id="685">4.03118e-12</wgt>
  <wgt id="686">4.13652e-12</wgt>
  <wgt id="687">4.49918e-12</wgt>
  <wgt id="688">4.27096e-12</wgt>
  <wgt id="689">4.66101e-12</wgt>
  <wgt id="690">4.47756e-12</wgt>
  <wgt id="691">4.56828e-12</wgt>
  <wgt id="692">4.19989e-12</wgt>
  <wgt id="693">5.06388e-12</wgt>
  <wgt id="694">4.52742e-12</wgt>
  <wgt id="695">4.14125e-12</wgt>
  <wgt id="696">4.01394e-12</wgt>
  <wgt id="697">4.1803e-12</wgt>
  <wgt id="698">3.87243e-12</wgt>
  <wgt id="699">3.85176e-12</wgt>
  <wgt id="700">3.673e-12</wgt>
  <wgt id="701">4.28823e-12</wgt>
  <wgt id="702">4.14343e-12</wgt>
  <wgt id="703">4.93852e-12</wgt>
  <wgt id="704">4.70492e-12</wgt>
  <wgt id="705">4.4625e-12</wgt>
  <wgt id="706">3.96372e-12</wgt>
  <wgt id="707">4.09118e-12</wgt>
  <wgt id="708">4.20933e-12</wgt>
  <wgt id="709">4.18956e-12</wgt>
  <wgt id="710">3.82487e-12</wgt>
  <wgt id="711">4.22587e-12</wgt>
  <wgt id="712">4.18818e-12</wgt>
  <wgt id="713">4.67006e-12</wgt>
  <wgt id="714">4.17971e-12</wgt>
  <wgt id="715">4.22958e-12</wgt>
  <wgt id="716">4.09037e-12</wgt>
  <wgt id="717">4.05818e-12</wgt>
  <wgt id="718">4.28916e-12</wgt>
  <wgt id="719">3.84877e-12</wgt>
  <wgt id="720">3.98242e-12</wgt>
  <wgt id="721">3.86706e-12</wgt>
  <wgt id="722">3.74238e-12</wgt>
  <wgt id="723">4.57634e-12</wgt>
  <wgt id="724">4.48881e-12</wgt>
  <wgt id="725">4.50476e-12</wgt>
  <wgt id="726">4.30768e-12</wgt>
  <wgt id="727">4.16101e-12</wgt>
  <wgt id="728">4.14647e-12</wgt>
  <wgt id="729">3.85364e-12</wgt>
  <wgt id="730">4.66157e-12</wgt>
  <wgt id="731">4.20829e-12</wgt>
  <wgt id="732">4.71065e-12</wgt>
  <wgt id="733">4.27432e-12</wgt>
  <wgt id="734">4.37488e-12</wgt>
  <wgt id="735">4.24596e-12</wgt>
  <wgt id="736">4.17386e-12</wgt>
  <wgt id="737">4.3451e-12</wgt>
  <wgt id="738">4.01057e-12</wgt>
  <wgt id="739">4.36201e-12</wgt>
  <wgt id="740">4.75871e-12</wgt>
  <wgt id="741">3.7847e-12</wgt>
  <wgt id="742">4.19152e-12</wgt>
  <wgt id="743">4.03527e-12</wgt>
  <wgt id="744">4.17705e-12</wgt>
  <wgt id="745">4.48807e-12</wgt>
  <wgt id="746">4.57431e-12</wgt>
  <wgt id="747">3.82318e-12</wgt>
  <wgt id="748">4.22776e-12</wgt>
  <wgt id="749">4.49037e-12</wgt>
  <wgt id="750">4.38546e-12</wgt>
  <wgt id="751">4.39984e-12</wgt>
  <wgt id="752">3.88363e-12</wgt>
  <wgt id="753">4.06119e-12</wgt>
  <wgt id="754">4.53297e-12</wgt>
  <wgt id="755">4.27805e-12</wgt>
  <wgt id="756">4.30656e-12</wgt>
  <wgt id="757">3.89654e-12</wgt>
  <wgt id="758">4.29979e-12</wgt>
  <wgt id="759">4.39663e-12</wgt>
  <wgt id="760">4.3076e-12</wgt>
  <wgt id="761">4.49461e-12</wgt>
  <wgt id="762">4.5422e-12</wgt>
  <wgt id="763">4.23145e-12</wgt>
  <wgt id="764">4.45275e-12</wgt>
  <wgt id="765">4.39144e-12</wgt>
  <wgt id="766">4.26499e-12</wgt>
  <wgt id="767">4.39256e-12</wgt>
  <wgt id="768">4.00248e-12</wgt>
  <wgt id="769">4.54431e-12</wgt>
  <wgt id="770">4.13063e-12</wgt>
  <wgt id="771">5.09806e-12</wgt>
  <wgt id="772">4.02599e-12</wgt>
  <wgt id="773">4.2238e-12</wgt>
  <wgt id="774">3.75832e-12</wgt>
  <wgt id="775">4.54367e-12</wgt>
  <wgt id="776">4.66511e-12</wgt>
  <wgt id="777">4.00348e-12</wgt>
  <wgt id="778">3.09527e-12</wgt>
  <wgt id="779">2.52367e-12</wgt>
  <wgt id="780">1.98578e-12</wgt>
  <wgt id="781">3.17707e-12</wgt>
  <wgt id="782">3.27838e-12</wgt>
  <wgt id="783">2.53984e-12</wgt>
  <wgt id="784">2.66163e-12</wgt>
  <wgt id="785">3.81134e-12</wgt>
  <wgt id="786">2.35162e-12</wgt>
  <wgt id="787">3.59036e-12</wgt>
  <wgt id="788">1.84378e-12</wgt>
  <wgt id="789">2.43777e-12</wgt>
  <wgt id="790">2.30343e-12</wgt>
  <wgt id="791">2.90049e-12</wgt>
  <wgt id="792">4.10093e-12</wgt>
  <wgt id="793">3.04366e-12</wgt>
  <wgt id="794">2.27983e-12</wgt>
  <wgt id="795">3.72972e-12</wgt>
  <wgt id="796">4.14567e-12</wgt>
  <wgt id="797">3.66047e-12</wgt>
  <wgt id="798">2.81828e-12</wgt>
  <wgt id="799">3.58058e-12</wgt>
  <wgt id="800">2.46113e-12</wgt>
  <wgt id="801">2.85454e-12</wgt>
  <wgt id="802">2.29174e-12</wgt>
  <wgt id="803">3.97755e-12</wgt>
  <wgt id="804">3.69502e-12</wgt>
  <wgt id="805">3.76664e-12</wgt>
  <wgt id="806">3.45504e-12</wgt>
  <wgt id="807">2.91832e-12</wgt>
  <wgt id="808">3.00178e-12</wgt>
  <wgt id="809">2.83778e-12</wgt>
  <wgt id="810">3.52785e-12</wgt>
  <wgt id="811">3.41457e-12</wgt>
  <wgt id="812">2.25871e-12</wgt>
  <wgt id="813">2.32924e-12</wgt>
  <wgt id="814">2.6792e-12</wgt>
  <wgt id="815">2.52726e-12</wgt>
  <wgt id="816">2.17696e-12</wgt>
  <wgt id="817">3.24841e-12</wgt>
  <wgt id="818">3.10654e-12</wgt>
  <wgt id="819">2.51095e-12</wgt>
  <wgt id="820">3.09699e-12</wgt>
  <wgt id="821">3.64042e-12</wgt>
  <wgt id="822">2.47155e-12</wgt>
  <wgt id="823">3.67577e-12</wgt>
  <wgt id="824">4.22094e-12</wgt>
  <wgt id="825">2.20543e-12</wgt>
  <wgt id="826">3.33294e-12</wgt>
  <wgt id="827">1.77378e-12</wgt>
  <wgt id="828">3.99263e-12</wgt>
  <wgt id="829">3.26002e-12</wgt>
  <wgt id="830">2.08447e-12</wgt>
  <wgt id="831">3.37808e-12</wgt>
  <wgt id="832">5.25375e-12</wgt>
  <wgt id="833">2.83639e-12</wgt>
  <wgt id="834">4.88175e-12</wgt>
  <wgt id="835">2.47284e-12</wgt>
  <wgt id="836">3.05343e-12</wgt>
  <wgt id="837">3.59184e-12</wgt>
  <wgt id="838">2.9452e-12</wgt>
  <wgt id="839">3.34786e-12</wgt>
  <wgt id="840">2.84884e-12</wgt>
  <wgt id="841">3.93867e-12</wgt>
  <wgt id="842">2.7489e-12</wgt>
  <wgt id="843">3.07277e-12</wgt>
  <wgt id="844">3.27294e-12</wgt>
  <wgt id="845">4.50879e-12</wgt>
  <wgt id="846">2.86206e-12</wgt>
  <wgt id="847">3.20052e-12</wgt>
  <wgt id="848">2.60251e-12</wgt>
  <wgt id="849">3.19103e-12</wgt>
  <wgt id="850">4.17387e-12</wgt>
  <wgt id="851">3.4299e-12</wgt>
  <wgt id="852">2.5982e-12</wgt>
  <wgt id="853">3.44761e-12</wgt>
  <wgt id="854">3.84903e-12</wgt>
  <wgt id="855">3.70204e-12</wgt>
  <wgt id="856">2.14449e-12</wgt>
  <wgt id="857">3.08126e-12</wgt>
  <wgt id="858">3.08632e-12</wgt>
  <wgt id="859">2.85482e-12</wgt>
  <wgt id="860">3.40755e-12</wgt>
  <wgt id="861">2.64524e-12</wgt>
  <wgt id="862">3.17628e-12</wgt>
  <wgt id="863">3.32724e-12</wgt>
  <wgt id="864">3.35249e-12</wgt>
  <wgt id="865">4.62016e-12</wgt>
  <wgt id="866">5.05268e-12</wgt>
  <wgt id="867">3.21054e-12</wgt>
  <wgt id="868">3.10317e-12</wgt>
  <wgt id="869">2.33514e-12</wgt>
  <wgt id="870">2.45276e-12</wgt>
  <wgt id="871">2.37361e-12</wgt>
  <wgt id="872">3.80896e-12</wgt>
  <wgt id="873">2.48034e-12</wgt>
  <wgt id="874">3.30364e-12</wgt>
  <wgt id="875">2.66639e-12</wgt>
  <wgt id="876">3.82622e-12</wgt>
  <wgt id="877">3.64741e-12</wgt>
  <wgt id="878">2.58388e-12</wgt>
  <wgt id="879">4.26729e-12</wgt>
  <wgt id="880">4.30621e-12</wgt>
  <wgt id="881">4.47443e-12</wgt>
  <wgt id="882">3.94364e-12</wgt>
  <wgt id="883">4.18864e-12</wgt>
  <wgt id="884">4.35025e-12</wgt>
  <wgt id="885">4.43389e-12</wgt>
  <wgt id="886">4.19914e-12</wgt>
  <wgt id="887">4.4697e-12</wgt>
  <wgt id="888">4.03118e-12</wgt>
  <wgt id="889">4.13652e-12</wgt>
  <wgt id="890">4.49918e-12</wgt>
  <wgt id="891">4.27096e-12</wgt>
  <wgt id="892">4.66101e-12</wgt>
  <wgt id="893">4.47756e-12</wgt>
  <wgt id="894">4.56828e-12</wgt>
  <wgt id="895">4.19989e-12</wgt>
  <wgt id="896">5.06388e-12</wgt>
  <wgt id="897">4.52742e-12</wgt>
  <wgt id="898">4.14125e-12</wgt>
  <wgt id="899">4.01394e-12</wgt>
  <wgt id="900">4.1803e-12</wgt>
  <wgt id="901">3.87243e-12</wgt>
  <wgt id="902">3.85176e-12</wgt>
  <wgt id="903">3.673e-12</wgt>
  <wgt id="904">4.28823e-12</wgt>
  <wgt id="905">4.14343e-12</wgt>
  <wgt id="906">4.93852e-12</wgt>
  <wgt id="907">4.70492e-12</wgt>
  <wgt id="908">4.4625e-12</wgt>
  <wgt id="909">3.96372e-12</wgt>
  <wgt id="910">4.09118e-12</wgt>
  <wgt id="911">4.20933e-12</wgt>
  <wgt id="912">4.18956e-12</wgt>
  <wgt id="913">3.82487e-12</wgt>
  <wgt id="914">4.22587e-12</wgt>
  <wgt id="915">4.18818e-12</wgt>
  <wgt id="916">4.67006e-12</wgt>
  <wgt id="917">4.17971e-12</wgt>
  <wgt id="918">4.22958e-12</wgt>
  <wgt id="919">4.09037e-12</wgt>
  <wgt id="920">4.05818e-12</wgt>
  <wgt id="921">4.28916e-12</wgt>
  <wgt id="922">3.84877e-12</wgt>
  <wgt id="923">3.98242e-12</wgt>
  <wgt id="924">3.86706e-12</wgt>
  <wgt id="925">3.74238e-12</wgt>
  <wgt id="926">4.57634e-12</wgt>
  <wgt id="927">4.48881e-12</wgt>
  <wgt id="928">4.50476e-12</wgt>
  <wgt id="929">4.30768e-12</wgt>
  <wgt id="930">4.16101e-12</wgt>
  <wgt id="931">4.14647e-12</wgt>
  <wgt id="932">3.85364e-12</wgt>
  <wgt id="933">4.66157e-12</wgt>
  <wgt id="934">4.20829e-12</wgt>
  <wgt id="935">4.71065e-12</wgt>
  <wgt id="936">4.27432e-12</wgt>
  <wgt id="937">4.37488e-12</wgt>
  <wgt id="938">4.24596e-12</wgt>
  <wgt id="939">4.17386e-12</wgt>
  <wgt id="940">4.3451e-12</wgt>
  <wgt id="941">4.01057e-12</wgt>
  <wgt id="942">4.36201e-12</wgt>
  <wgt id="943">4.75871e-12</wgt>
  <wgt id="944">3.7847e-12</wgt>
  <wgt id="945">4.19152e-12</wgt>
  <wgt id="946">4.03527e-12</wgt>
  <wgt id="947">4.17705e-12</wgt>
  <wgt id="948">4.48807e-12</wgt>
  <wgt id="949">4.57431e-12</wgt>
  <wgt id="950">3.82318e-12</wgt>
  <wgt id="951">4.22776e-12</wgt>
  <wgt id="952">4.49037e-12</wgt>
  <wgt id="953">4.38546e-12</wgt>
  <wgt id="954">4.39984e-12</wgt>
  <wgt id="955">3.88363e-12</wgt>
  <wgt id="956">4.06119e-12</wgt>
  <wgt id="957">4.53297e-12</wgt>
  <wgt id="958">4.27805e-12</wgt>
  <wgt id="959">4.30656e-12</wgt>
  <wgt id="960">3.89654e-12</wgt>
  <wgt id="961">4.29979e-12</wgt>
  <wgt id="962">4.39663e-12</wgt>
  <wgt id="963">4.3076e-12</wgt>
  <wgt id="964">4.49461e-12</wgt>
  <wgt id="965">4.5422e-12</wgt>
  <wgt id="966">4.23145e-12</wgt>
  <wgt id="967">4.45275e-12</wgt>
  <wgt id="968">4.39144e-12</wgt>
  <wgt id="969">4.26499e-12</wgt>
  <wgt id="970">4.39256e-12</wgt>
  <wgt id="971">4.00248e-12</wgt>
  <wgt id="972">4.54431e-12</wgt>
  <wgt id="973">4.13063e-12</wgt>
  <wgt id="974">5.09806e-12</wgt>
  <wgt id="975">4.02599e-12</wgt>
  <wgt id="976">4.2238e-12</wgt>
  <wgt id="977">3.75832e-12</wgt>
  <wgt id="978">4.54367e-12</wgt>
  <wgt id="979">4.66511e-12</wgt>
  <wgt id="980">4.25971e-12</wgt>
  <wgt id="981">4.29947e-12</wgt>
  <wgt id="982">4.14075e-12</wgt>
</rwgt>
</event>
<event>
 5   1  0.3028200E-11  0.2307549E+04  0.7818608E-02  0.7709532E-01
       21   -1    0    0  502  501  0.00000000000E+00  0.00000000000E+00  0.13831589479E+04  0.13831589479E+04  0.00000000000E+00 0.  1.
       21   -1    0    0  501  502 -0.00000000000E+00 -0.00000000000E+00 -0.96243138699E+03  0.96243138699E+03  0.00000000000E+00 0. -1.
       39    2    1    2    0    0  0.00000000000E+00  0.00000000000E+00  0.42072756095E+03  0.23455903349E+04  0.23075489895E+04 0.  0.
       25    1    3    3    0    0  0.62056895625E+03 -0.94860770929E+03  0.32527687034E+02  0.11408967815E+04  0.12500000000E+03 0.  0.
       25    1    3    3    0    0 -0.62056895625E+03  0.94860770929E+03  0.38819987391E+03  0.12046935534E+04  0.12500000000E+03 0.  0.
<mgrwt>
<rscale>  0 0.23075490E+04</rscale>
<asrwt>0</asrwt>
<pdfrwt beam="1">  1       21 0.21279368E+00 0.23075490E+04</pdfrwt>
<pdfrwt beam="2">  1       21 0.14806637E+00 0.23075490E+04</pdfrwt>
<totfact> 0.13042478E+01</totfact>
</mgrwt>
<rwgt>
  <wgt id="1">3.0282e-12</wgt>
  <wgt id="2">2.6365e-12</wgt>
  <wgt id="3">3.51442e-12</wgt>
  <wgt id="4">3.0282e-12</wgt>
  <wgt id="5">2.6365e-12</wgt>
  <wgt id="6">3.51442e-12</wgt>
  <wgt id="7">3.0282e-12</wgt>
  <wgt id="8">2.6365e-12</wgt>
  <wgt id="9">3.51442e-12</wgt>
  <wgt id="10">3.13303e-12</wgt>
  <wgt id="11">3.13009e-12</wgt>
  <wgt id="12">3.12704e-12</wgt>
  <wgt id="13">3.12234e-12</wgt>
  <wgt id="14">3.14444e-12</wgt>
  <wgt id="15">3.13784e-12</wgt>
  <wgt id="16">3.12693e-12</wgt>
  <wgt id="17">3.13894e-12</wgt>
  <wgt id="18">3.12768e-12</wgt>
  <wgt id="19">3.13996e-12</wgt>
  <wgt id="20">3.12381e-12</wgt>
  <wgt id="21">3.11457e-12</wgt>
  <wgt id="22">3.12183e-12</wgt>
  <wgt id="23">3.10486e-12</wgt>
  <wgt id="24">3.11877e-12</wgt>
  <wgt id="25">3.12552e-12</wgt>
  <wgt id="26">3.14574e-12</wgt>
  <wgt id="27">3.13273e-12</wgt>
  <wgt id="28">3.11849e-12</wgt>
  <wgt id="29">3.13586e-12</wgt>
  <wgt id="30">3.12474e-12</wgt>
  <wgt id="31">3.14183e-12</wgt>
  <wgt id="32">3.12747e-12</wgt>
  <wgt id="33">3.14051e-12</wgt>
  <wgt id="34">3.12301e-12</wgt>
  <wgt id="35">3.13026e-12</wgt>
  <wgt id="36">3.1426e-12</wgt>
  <wgt id="37">3.12494e-12</wgt>
  <wgt id="38">3.12416e-12</wgt>
  <wgt id="39">3.16563e-12</wgt>
  <wgt id="40">3.13953e-12</wgt>
  <wgt id="41">3.13221e-12</wgt>
  <wgt id="42">3.14024e-12</wgt>
  <wgt id="43">3.13388e-12</wgt>
  <wgt id="44">3.12342e-12</wgt>
  <wgt id="45">3.13947e-12</wgt>
  <wgt id="46">3.1373e-12</wgt>
  <wgt id="47">3.12194e-12</wgt>
  <wgt id="48">3.13298e-12</wgt>
  <wgt id="49">3.13873e-12</wgt>
  <wgt id="50">3.14933e-12</wgt>
  <wgt id="51">3.14535e-12</wgt>
  <wgt id="52">3.1289e-12</wgt>
  <wgt id="53">3.11199e-12</wgt>
  <wgt id="54">3.12672e-12</wgt>
  <wgt id="55">3.13262e-12</wgt>
  <wgt id="56">3.14418e-12</wgt>
  <wgt id="57">3.14312e-12</wgt>
  <wgt id="58">3.11252e-12</wgt>
  <wgt id="59">3.12241e-12</wgt>
  <wgt id="60">3.13446e-12</wgt>
  <wgt id="61">3.12462e-12</wgt>
  <wgt id="62">3.1304e-12</wgt>
  <wgt id="63">3.13489e-12</wgt>
  <wgt id="64">3.13621e-12</wgt>
  <wgt id="65">3.13681e-12</wgt>
  <wgt id="66">3.12882e-12</wgt>
  <wgt id="67">3.12562e-12</wgt>
  <wgt id="68">3.13004e-12</wgt>
  <wgt id="69">3.13287e-12</wgt>
  <wgt id="70">3.13147e-12</wgt>
  <wgt id="71">3.1322e-12</wgt>
  <wgt id="72">3.12863e-12</wgt>
  <wgt id="73">3.13528e-12</wgt>
  <wgt id="74">3.13476e-12</wgt>
  <wgt id="75">3.13057e-12</wgt>
  <wgt id="76">3.14095e-12</wgt>
  <wgt id="77">3.13241e-12</wgt>
  <wgt id="78">3.13355e-12</wgt>
  <wgt id="79">3.13919e-12</wgt>
  <wgt id="80">3.12054e-12</wgt>
  <wgt id="81">3.12965e-12</wgt>
  <wgt id="82">3.13311e-12</wgt>
  <wgt id="83">3.12131e-12</wgt>
  <wgt id="84">3.12738e-12</wgt>
  <wgt id="85">3.12691e-12</wgt>
  <wgt id="86">3.141e-12</wgt>
  <wgt id="87">3.11733e-12</wgt>
  <wgt id="88">3.13649e-12</wgt>
  <wgt id="89">3.13591e-12</wgt>
  <wgt id="90">3.13812e-12</wgt>
  <wgt id="91">3.13559e-12</wgt>
  <wgt id="92">3.13884e-12</wgt>
  <wgt id="93">3.13332e-12</wgt>
  <wgt id="94">3.13021e-12</wgt>
  <wgt id="95">3.13589e-12</wgt>
  <wgt id="96">3.13511e-12</wgt>
  <wgt id="97">3.12842e-12</wgt>
  <wgt id="98">3.13444e-12</wgt>
  <wgt id="99">3.13037e-12</wgt>
  <wgt id="100">3.13599e-12</wgt>
  <wgt id="101">3.13258e-12</wgt>
  <wgt id="102">3.13013e-12</wgt>
  <wgt id="103">3.13717e-12</wgt>
  <wgt id="104">3.13132e-12</wgt>
  <wgt id="105">3.13648e-12</wgt>
  <wgt id="106">3.12879e-12</wgt>
  <wgt id="107">3.14142e-12</wgt>
  <wgt id="108">3.12991e-12</wgt>
  <wgt id="109">3.13356e-12</wgt>
  <wgt id="110">3.13301e-12</wgt>
  <wgt id="111">3.16437e-12</wgt>
  <wgt id="112">3.13268e-12</wgt>
  <wgt id="113">4.2104e-12</wgt>
  <wgt id="114">4.33879e-12</wgt>
  <wgt id="115">4.27801e-12</wgt>
  <wgt id="116">5.96849e-12</wgt>
  <wgt id="117">3.48424e-12</wgt>
  <wgt id="118">3.49637e-12</wgt>
  <wgt id="119">3.47737e-12</wgt>
  <wgt id="120">3.4846e-12</wgt>
  <wgt id="121">3.48415e-12</wgt>
  <wgt id="122">3.47805e-12</wgt>
  <wgt id="123">3.49261e-12</wgt>
  <wgt id="124">3.47918e-12</wgt>
  <wgt id="125">3.48744e-12</wgt>
  <wgt id="126">3.49047e-12</wgt>
  <wgt id="127">3.48016e-12</wgt>
  <wgt id="128">3.49514e-12</wgt>
  <wgt id="129">3.4735e-12</wgt>
  <wgt id="130">3.50446e-12</wgt>
  <wgt id="131">3.46364e-12</wgt>
  <wgt id="132">3.39402e-12</wgt>
  <wgt id="133">3.59103e-12</wgt>
  <wgt id="134">3.44707e-12</wgt>
  <wgt id="135">3.51333e-12</wgt>
  <wgt id="136">3.52864e-12</wgt>
  <wgt id="137">3.43052e-12</wgt>
  <wgt id="138">3.61848e-12</wgt>
  <wgt id="139">3.35455e-12</wgt>
  <wgt id="140">3.46122e-12</wgt>
  <wgt id="141">3.50216e-12</wgt>
  <wgt id="142">3.48469e-12</wgt>
  <wgt id="143">3.48922e-12</wgt>
  <wgt id="144">3.38756e-12</wgt>
  <wgt id="145">3.57396e-12</wgt>
  <wgt id="146">3.51506e-12</wgt>
  <wgt id="147">3.45984e-12</wgt>
  <wgt id="148">3.49484e-12</wgt>
  <wgt id="149">3.48342e-12</wgt>
  <wgt id="150">3.51426e-12</wgt>
  <wgt id="151">3.47026e-12</wgt>
  <wgt id="152">3.48587e-12</wgt>
  <wgt id="153">3.48367e-12</wgt>
  <wgt id="154">3.51213e-12</wgt>
  <wgt id="155">3.45087e-12</wgt>
  <wgt id="156">3.55238e-12</wgt>
  <wgt id="157">3.41225e-12</wgt>
  <wgt id="158">4.19151e-12</wgt>
  <wgt id="159">4.2091e-12</wgt>
  <wgt id="160">4.17747e-12</wgt>
  <wgt id="161">4.18112e-12</wgt>
  <wgt id="162">4.2032e-12</wgt>
  <wgt id="163">4.18701e-12</wgt>
  <wgt id="164">4.19829e-12</wgt>
  <wgt id="165">4.19316e-12</wgt>
  <wgt id="166">4.19024e-12</wgt>
  <wgt id="167">4.18847e-12</wgt>
  <wgt id="168">4.19593e-12</wgt>
  <wgt id="169">4.17361e-12</wgt>
  <wgt id="170">4.20273e-12</wgt>
  <wgt id="171">4.18705e-12</wgt>
  <wgt id="172">4.19797e-12</wgt>
  <wgt id="173">4.19124e-12</wgt>
  <wgt id="174">4.19158e-12</wgt>
  <wgt id="175">4.07461e-12</wgt>
  <wgt id="176">4.34408e-12</wgt>
  <wgt id="177">4.21368e-12</wgt>
  <wgt id="178">4.17118e-12</wgt>
  <wgt id="179">4.36597e-12</wgt>
  <wgt id="180">3.91611e-12</wgt>
  <wgt id="181">4.07031e-12</wgt>
  <wgt id="182">4.27155e-12</wgt>
  <wgt id="183">4.11747e-12</wgt>
  <wgt id="184">4.22824e-12</wgt>
  <wgt id="185">4.15767e-12</wgt>
  <wgt id="186">4.23243e-12</wgt>
  <wgt id="187">4.15388e-12</wgt>
  <wgt id="188">4.25934e-12</wgt>
  <wgt id="189">4.16477e-12</wgt>
  <wgt id="190">4.2025e-12</wgt>
  <wgt id="191">4.20289e-12</wgt>
  <wgt id="192">4.18481e-12</wgt>
  <wgt id="193">4.25073e-12</wgt>
  <wgt id="194">4.1623e-12</wgt>
  <wgt id="195">4.09007e-12</wgt>
  <wgt id="196">4.37337e-12</wgt>
  <wgt id="197">4.21231e-12</wgt>
  <wgt id="198">4.18661e-12</wgt>
  <wgt id="199">4.19151e-12</wgt>
  <wgt id="200">4.22714e-12</wgt>
  <wgt id="201">4.21421e-12</wgt>
  <wgt id="202">4.20146e-12</wgt>
  <wgt id="203">4.18242e-12</wgt>
  <wgt id="204">4.17339e-12</wgt>
  <wgt id="205">4.16602e-12</wgt>
  <wgt id="206">4.06927e-12</wgt>
  <wgt id="207">4.09302e-12</wgt>
  <wgt id="208">4.04584e-12</wgt>
  <wgt id="209">4.08166e-12</wgt>
  <wgt id="210">4.06038e-12</wgt>
  <wgt id="211">4.06792e-12</wgt>
  <wgt id="212">4.07037e-12</wgt>
  <wgt id="213">4.06903e-12</wgt>
  <wgt id="214">4.06987e-12</wgt>
  <wgt id="215">4.07223e-12</wgt>
  <wgt id="216">4.06719e-12</wgt>
  <wgt id="217">4.08072e-12</wgt>
  <wgt id="218">4.06039e-12</wgt>
  <wgt id="219">4.06502e-12</wgt>
  <wgt id="220">4.07203e-12</wgt>
  <wgt id="221">4.06761e-12</wgt>
  <wgt id="222">4.07341e-12</wgt>
  <wgt id="223">3.85604e-12</wgt>
  <wgt id="224">4.26333e-12</wgt>
  <wgt id="225">4.0211e-12</wgt>
  <wgt id="226">4.12987e-12</wgt>
  <wgt id="227">4.03127e-12</wgt>
  <wgt id="228">4.08604e-12</wgt>
  <wgt id="229">4.01334e-12</wgt>
  <wgt id="230">4.09721e-12</wgt>
  <wgt id="231">4.18459e-12</wgt>
  <wgt id="232">3.97454e-12</wgt>
  <wgt id="233">4.04841e-12</wgt>
  <wgt id="234">4.10217e-12</wgt>
  <wgt id="235">3.98778e-12</wgt>
  <wgt id="236">4.14565e-12</wgt>
  <wgt id="237">4.01392e-12</wgt>
  <wgt id="238">4.08824e-12</wgt>
  <wgt id="239">4.04524e-12</wgt>
  <wgt id="240">4.11299e-12</wgt>
  <wgt id="241">4.02842e-12</wgt>
  <wgt id="242">4.11854e-12</wgt>
  <wgt id="243">4.11777e-12</wgt>
  <wgt id="244">4.09101e-12</wgt>
  <wgt id="245">4.06637e-12</wgt>
  <wgt id="246">4.09934e-12</wgt>
  <wgt id="247">4.06927e-12</wgt>
  <wgt id="248">4.10429e-12</wgt>
  <wgt id="249">4.09087e-12</wgt>
  <wgt id="250">4.07844e-12</wgt>
  <wgt id="251">4.0598e-12</wgt>
  <wgt id="252">4.05102e-12</wgt>
  <wgt id="253">4.04473e-12</wgt>
  <wgt id="254">3.98468e-12</wgt>
  <wgt id="255">3.98843e-12</wgt>
  <wgt id="256">3.98053e-12</wgt>
  <wgt id="257">3.9877e-12</wgt>
  <wgt id="258">3.98249e-12</wgt>
  <wgt id="259">4.0112e-12</wgt>
  <wgt id="260">3.95905e-12</wgt>
  <wgt id="261">3.99007e-12</wgt>
  <wgt id="262">3.97814e-12</wgt>
  <wgt id="263">3.98284e-12</wgt>
  <wgt id="264">3.9866e-12</wgt>
  <wgt id="265">3.98015e-12</wgt>
  <wgt id="266">3.99375e-12</wgt>
  <wgt id="267">3.98588e-12</wgt>
  <wgt id="268">3.98283e-12</wgt>
  <wgt id="269">3.99728e-12</wgt>
  <wgt id="270">3.9761e-12</wgt>
  <wgt id="271">3.97785e-12</wgt>
  <wgt id="272">3.99225e-12</wgt>
  <wgt id="273">3.97244e-12</wgt>
  <wgt id="274">3.99396e-12</wgt>
  <wgt id="275">3.96851e-12</wgt>
  <wgt id="276">4.00138e-12</wgt>
  <wgt id="277">3.96219e-12</wgt>
  <wgt id="278">4.00539e-12</wgt>
  <wgt id="279">3.90915e-12</wgt>
  <wgt id="280">4.07928e-12</wgt>
  <wgt id="281">3.96741e-12</wgt>
  <wgt id="282">3.98547e-12</wgt>
  <wgt id="283">3.87257e-12</wgt>
  <wgt id="284">4.12246e-12</wgt>
  <wgt id="285">3.79858e-12</wgt>
  <wgt id="286">4.13827e-12</wgt>
  <wgt id="287">3.99702e-12</wgt>
  <wgt id="288">3.96902e-12</wgt>
  <wgt id="289">4.01205e-12</wgt>
  <wgt id="290">3.92082e-12</wgt>
  <wgt id="291">3.97416e-12</wgt>
  <wgt id="292">3.98715e-12</wgt>
  <wgt id="293">3.95469e-12</wgt>
  <wgt id="294">4.01439e-12</wgt>
  <wgt id="295">3.91077e-12</wgt>
  <wgt id="296">4.07466e-12</wgt>
  <wgt id="297">3.98477e-12</wgt>
  <wgt id="298">3.99891e-12</wgt>
  <wgt id="299">3.97214e-12</wgt>
  <wgt id="300">4.01781e-12</wgt>
  <wgt id="301">3.93227e-12</wgt>
  <wgt id="302">4.11884e-12</wgt>
  <wgt id="303">3.95558e-12</wgt>
  <wgt id="304">4.00131e-12</wgt>
  <wgt id="305">3.9985e-12</wgt>
  <wgt id="306">4.00266e-12</wgt>
  <wgt id="307">3.99405e-12</wgt>
  <wgt id="308">4.00189e-12</wgt>
  <wgt id="309">3.99632e-12</wgt>
  <wgt id="310">4.0262e-12</wgt>
  <wgt id="311">3.9728e-12</wgt>
  <wgt id="312">4.00283e-12</wgt>
  <wgt id="313">3.99414e-12</wgt>
  <wgt id="314">3.99676e-12</wgt>
  <wgt id="315">4.00018e-12</wgt>
  <wgt id="316">3.99418e-12</wgt>
  <wgt id="317">4.00794e-12</wgt>
  <wgt id="318">4.00143e-12</wgt>
  <wgt id="319">3.99357e-12</wgt>
  <wgt id="320">4.01175e-12</wgt>
  <wgt id="321">3.99123e-12</wgt>
  <wgt id="322">3.98971e-12</wgt>
  <wgt id="323">4.00887e-12</wgt>
  <wgt id="324">3.98833e-12</wgt>
  <wgt id="325">4.00742e-12</wgt>
  <wgt id="326">3.98547e-12</wgt>
  <wgt id="327">4.01524e-12</wgt>
  <wgt id="328">3.97814e-12</wgt>
  <wgt id="329">4.0101e-12</wgt>
  <wgt id="330">4.11499e-12</wgt>
  <wgt id="331">3.8874e-12</wgt>
  <wgt id="332">3.98412e-12</wgt>
  <wgt id="333">3.99868e-12</wgt>
  <wgt id="334">3.91042e-12</wgt>
  <wgt id="335">4.10785e-12</wgt>
  <wgt id="336">3.86311e-12</wgt>
  <wgt id="337">4.16291e-12</wgt>
  <wgt id="338">4.04191e-12</wgt>
  <wgt id="339">3.95823e-12</wgt>
  <wgt id="340">4.02438e-12</wgt>
  <wgt id="341">3.93159e-12</wgt>
  <wgt id="342">3.99117e-12</wgt>
  <wgt id="343">3.99464e-12</wgt>
  <wgt id="344">3.97116e-12</wgt>
  <wgt id="345">4.0301e-12</wgt>
  <wgt id="346">3.92163e-12</wgt>
  <wgt id="347">4.08687e-12</wgt>
  <wgt id="348">4.00037e-12</wgt>
  <wgt id="349">4.01023e-12</wgt>
  <wgt id="350">3.98262e-12</wgt>
  <wgt id="351">4.03858e-12</wgt>
  <wgt id="352">3.9404e-12</wgt>
  <wgt id="353">4.13927e-12</wgt>
  <wgt id="354">3.95413e-12</wgt>
  <wgt id="355">4.02574e-12</wgt>
  <wgt id="356">3.98468e-12</wgt>
  <wgt id="357">4.01532e-12</wgt>
  <wgt id="358">3.9985e-12</wgt>
  <wgt id="359">3.99907e-12</wgt>
  <wgt id="360">4.00977e-12</wgt>
  <wgt id="361">3.99685e-12</wgt>
  <wgt id="362">4.06484e-12</wgt>
  <wgt id="363">4.05532e-12</wgt>
  <wgt id="364">4.04179e-12</wgt>
  <wgt id="365">4.02847e-12</wgt>
  <wgt id="366">4.01343e-12</wgt>
  <wgt id="367">3.98258e-12</wgt>
  <wgt id="368">3.96555e-12</wgt>
  <wgt id="369">3.94723e-12</wgt>
  <wgt id="370">3.99685e-12</wgt>
  <wgt id="371">4.01473e-12</wgt>
  <wgt id="372">4.00491e-12</wgt>
  <wgt id="373">3.99026e-12</wgt>
  <wgt id="374">3.98882e-12</wgt>
  <wgt id="375">4.25835e-12</wgt>
  <wgt id="376">4.25885e-12</wgt>
  <wgt id="377">4.25757e-12</wgt>
  <wgt id="378">4.2738e-12</wgt>
  <wgt id="379">4.24291e-12</wgt>
  <wgt id="380">4.2697e-12</wgt>
  <wgt id="381">4.25382e-12</wgt>
  <wgt id="382">4.28009e-12</wgt>
  <wgt id="383">4.23678e-12</wgt>
  <wgt id="384">4.26114e-12</wgt>
  <wgt id="385">4.25568e-12</wgt>
  <wgt id="386">4.27509e-12</wgt>
  <wgt id="387">4.25103e-12</wgt>
  <wgt id="388">4.25429e-12</wgt>
  <wgt id="389">4.26314e-12</wgt>
  <wgt id="390">4.26969e-12</wgt>
  <wgt id="391">4.24638e-12</wgt>
  <wgt id="392">4.22658e-12</wgt>
  <wgt id="393">4.27644e-12</wgt>
  <wgt id="394">4.26439e-12</wgt>
  <wgt id="395">4.2502e-12</wgt>
  <wgt id="396">4.26087e-12</wgt>
  <wgt id="397">4.25663e-12</wgt>
  <wgt id="398">4.24038e-12</wgt>
  <wgt id="399">4.27572e-12</wgt>
  <wgt id="400">4.2513e-12</wgt>
  <wgt id="401">4.27408e-12</wgt>
  <wgt id="402">4.22433e-12</wgt>
  <wgt id="403">4.27316e-12</wgt>
  <wgt id="404">4.35464e-12</wgt>
  <wgt id="405">4.02598e-12</wgt>
  <wgt id="406">4.18909e-12</wgt>
  <wgt id="407">4.40822e-12</wgt>
  <wgt id="408">4.29385e-12</wgt>
  <wgt id="409">4.19033e-12</wgt>
  <wgt id="410">4.14478e-12</wgt>
  <wgt id="411">4.31079e-12</wgt>
  <wgt id="412">4.25096e-12</wgt>
  <wgt id="413">4.26908e-12</wgt>
  <wgt id="414">4.21295e-12</wgt>
  <wgt id="415">4.29364e-12</wgt>
  <wgt id="416">4.36776e-12</wgt>
  <wgt id="417">4.10708e-12</wgt>
  <wgt id="418">4.26396e-12</wgt>
  <wgt id="419">4.22828e-12</wgt>
  <wgt id="420">4.3185e-12</wgt>
  <wgt id="421">4.22462e-12</wgt>
  <wgt id="422">4.25279e-12</wgt>
  <wgt id="423">4.26189e-12</wgt>
  <wgt id="424">4.34106e-12</wgt>
  <wgt id="425">4.20664e-12</wgt>
  <wgt id="426">4.25835e-12</wgt>
  <wgt id="427">4.22218e-12</wgt>
  <wgt id="428">4.36517e-12</wgt>
  <wgt id="429">4.2953e-12</wgt>
  <wgt id="430">4.41304e-12</wgt>
  <wgt id="431">4.38945e-12</wgt>
  <wgt id="432">4.36725e-12</wgt>
  <wgt id="433">4.34574e-12</wgt>
  <wgt id="434">4.31964e-12</wgt>
  <wgt id="435">4.26496e-12</wgt>
  <wgt id="436">4.23686e-12</wgt>
  <wgt id="437">4.20997e-12</wgt>
  <wgt id="438">4.2953e-12</wgt>
  <wgt id="439">4.30949e-12</wgt>
  <wgt id="440">4.30111e-12</wgt>
  <wgt id="441">4.2909e-12</wgt>
  <wgt id="442">4.28725e-12</wgt>
  <wgt id="443">4.16343e-12</wgt>
  <wgt id="444">4.18573e-12</wgt>
  <wgt id="445">4.14881e-12</wgt>
  <wgt id="446">4.13716e-12</wgt>
  <wgt id="447">4.14962e-12</wgt>
  <wgt id="448">4.05625e-12</wgt>
  <wgt id="449">4.22633e-12</wgt>
  <wgt id="450">4.15e-12</wgt>
  <wgt id="451">4.15681e-12</wgt>
  <wgt id="452">4.25411e-12</wgt>
  <wgt id="453">4.20082e-12</wgt>
  <wgt id="454">3.99968e-12</wgt>
  <wgt id="455">4.16936e-12</wgt>
  <wgt id="456">4.12204e-12</wgt>
  <wgt id="457">4.17969e-12</wgt>
  <wgt id="458">4.21046e-12</wgt>
  <wgt id="459">4.19085e-12</wgt>
  <wgt id="460">4.188e-12</wgt>
  <wgt id="461">4.08947e-12</wgt>
  <wgt id="462">4.13119e-12</wgt>
  <wgt id="463">4.11929e-12</wgt>
  <wgt id="464">4.14123e-12</wgt>
  <wgt id="465">4.20523e-12</wgt>
  <wgt id="466">4.11665e-12</wgt>
  <wgt id="467">4.12494e-12</wgt>
  <wgt id="468">4.15263e-12</wgt>
  <wgt id="469">4.15258e-12</wgt>
  <wgt id="470">4.12685e-12</wgt>
  <wgt id="471">4.12808e-12</wgt>
  <wgt id="472">4.18187e-12</wgt>
  <wgt id="473">4.03521e-12</wgt>
  <wgt id="474">3.0282e-12</wgt>
  <wgt id="475">3.20342e-12</wgt>
  <wgt id="476">2.96581e-12</wgt>
  <wgt id="477">2.9376e-12</wgt>
  <wgt id="478">3.04557e-12</wgt>
  <wgt id="479">2.97545e-12</wgt>
  <wgt id="480">3.13498e-12</wgt>
  <wgt id="481">2.96935e-12</wgt>
  <wgt id="482">2.92281e-12</wgt>
  <wgt id="483">2.95044e-12</wgt>
  <wgt id="484">3.21689e-12</wgt>
  <wgt id="485">3.02085e-12</wgt>
  <wgt id="486">3.10722e-12</wgt>
  <wgt id="487">3.07699e-12</wgt>
  <wgt id="488">3.07252e-12</wgt>
  <wgt id="489">2.91745e-12</wgt>
  <wgt id="490">2.9299e-12</wgt>
  <wgt id="491">2.99816e-12</wgt>
  <wgt id="492">2.94085e-12</wgt>
  <wgt id="493">2.91711e-12</wgt>
  <wgt id="494">2.93698e-12</wgt>
  <wgt id="495">3.0828e-12</wgt>
  <wgt id="496">2.9287e-12</wgt>
  <wgt id="497">2.91225e-12</wgt>
  <wgt id="498">3.07552e-12</wgt>
  <wgt id="499">2.95897e-12</wgt>
  <wgt id="500">2.97678e-12</wgt>
  <wgt id="501">3.16276e-12</wgt>
  <wgt id="502">2.95889e-12</wgt>
  <wgt id="503">3.02488e-12</wgt>
  <wgt id="504">3.05221e-12</wgt>
  <wgt id="505">3.01527e-12</wgt>
  <wgt id="506">3.07465e-12</wgt>
  <wgt id="507">3.00383e-12</wgt>
  <wgt id="508">3.08191e-12</wgt>
  <wgt id="509">2.95017e-12</wgt>
  <wgt id="510">3.10655e-12</wgt>
  <wgt id="511">2.96254e-12</wgt>
  <wgt id="512">3.07808e-12</wgt>
  <wgt id="513">3.15286e-12</wgt>
  <wgt id="514">3.01461e-12</wgt>
  <wgt id="515">2.99355e-12</wgt>
  <wgt id="516">3.1234e-12</wgt>
  <wgt id="517">3.09408e-12</wgt>
  <wgt id="518">3.10307e-12</wgt>
  <wgt id="519">2.9468e-12</wgt>
  <wgt id="520">3.05878e-12</wgt>
  <wgt id="521">3.12958e-12</wgt>
  <wgt id="522">3.14699e-12</wgt>
  <wgt id="523">3.08157e-12</wgt>
  <wgt id="524">3.06784e-12</wgt>
  <wgt id="525">3.11644e-12</wgt>
  <wgt id="526">3.04086e-12</wgt>
  <wgt id="527">3.07373e-12</wgt>
  <wgt id="528">3.03983e-12</wgt>
  <wgt id="529">2.98209e-12</wgt>
  <wgt id="530">3.06201e-12</wgt>
  <wgt id="531">2.99151e-12</wgt>
  <wgt id="532">3.19878e-12</wgt>
  <wgt id="533">2.8565e-12</wgt>
  <wgt id="534">3.03512e-12</wgt>
  <wgt id="535">3.07721e-12</wgt>
  <wgt id="536">3.01535e-12</wgt>
  <wgt id="537">3.03574e-12</wgt>
  <wgt id="538">3.0677e-12</wgt>
  <wgt id="539">2.96907e-12</wgt>
  <wgt id="540">2.98332e-12</wgt>
  <wgt id="541">2.95109e-12</wgt>
  <wgt id="542">2.97594e-12</wgt>
  <wgt id="543">3.02201e-12</wgt>
  <wgt id="544">3.17355e-12</wgt>
  <wgt id="545">2.98577e-12</wgt>
  <wgt id="546">2.98419e-12</wgt>
  <wgt id="547">2.94052e-12</wgt>
  <wgt id="548">2.90548e-12</wgt>
  <wgt id="549">2.97808e-12</wgt>
  <wgt id="550">3.00557e-12</wgt>
  <wgt id="551">3.06241e-12</wgt>
  <wgt id="552">2.98923e-12</wgt>
  <wgt id="553">3.01615e-12</wgt>
  <wgt id="554">3.25028e-12</wgt>
  <wgt id="555">3.10855e-12</wgt>
  <wgt id="556">2.9299e-12</wgt>
  <wgt id="557">3.08204e-12</wgt>
  <wgt id="558">2.93522e-12</wgt>
  <wgt id="559">2.98477e-12</wgt>
  <wgt id="560">3.28509e-12</wgt>
  <wgt id="561">2.97063e-12</wgt>
  <wgt id="562">3.0806e-12</wgt>
  <wgt id="563">2.9579e-12</wgt>
  <wgt id="564">3.04135e-12</wgt>
  <wgt id="565">2.92679e-12</wgt>
  <wgt id="566">3.07072e-12</wgt>
  <wgt id="567">2.98805e-12</wgt>
  <wgt id="568">3.02019e-12</wgt>
  <wgt id="569">3.07347e-12</wgt>
  <wgt id="570">2.93504e-12</wgt>
  <wgt id="571">3.35314e-12</wgt>
  <wgt id="572">2.96254e-12</wgt>
  <wgt id="573">2.8993e-12</wgt>
  <wgt id="574">2.92434e-12</wgt>
  <wgt id="575">3.33049e-12</wgt>
  <wgt id="576">3.30772e-12</wgt>
  <wgt id="577">3.42893e-12</wgt>
  <wgt id="578">3.41275e-12</wgt>
  <wgt id="579">3.3848e-12</wgt>
  <wgt id="580">3.39868e-12</wgt>
  <wgt id="581">3.54644e-12</wgt>
  <wgt id="582">3.29995e-12</wgt>
  <wgt id="583">3.36423e-12</wgt>
  <wgt id="584">3.33193e-12</wgt>
  <wgt id="585">3.33872e-12</wgt>
  <wgt id="586">3.25015e-12</wgt>
  <wgt id="587">3.37502e-12</wgt>
  <wgt id="588">3.31753e-12</wgt>
  <wgt id="589">3.39537e-12</wgt>
  <wgt id="590">3.37839e-12</wgt>
  <wgt id="591">3.45704e-12</wgt>
  <wgt id="592">3.24657e-12</wgt>
  <wgt id="593">3.31276e-12</wgt>
  <wgt id="594">3.43621e-12</wgt>
  <wgt id="595">3.32012e-12</wgt>
  <wgt id="596">3.37636e-12</wgt>
  <wgt id="597">3.23102e-12</wgt>
  <wgt id="598">3.24829e-12</wgt>
  <wgt id="599">3.48615e-12</wgt>
  <wgt id="600">3.30473e-12</wgt>
  <wgt id="601">3.23588e-12</wgt>
  <wgt id="602">3.25695e-12</wgt>
  <wgt id="603">3.269e-12</wgt>
  <wgt id="604">3.37811e-12</wgt>
  <wgt id="605">3.46229e-12</wgt>
  <wgt id="606">3.2642e-12</wgt>
  <wgt id="607">3.29461e-12</wgt>
  <wgt id="608">3.35025e-12</wgt>
  <wgt id="609">3.15286e-12</wgt>
  <wgt id="610">3.20664e-12</wgt>
  <wgt id="611">3.3627e-12</wgt>
  <wgt id="612">3.57163e-12</wgt>
  <wgt id="613">3.32151e-12</wgt>
  <wgt id="614">3.36899e-12</wgt>
  <wgt id="615">3.26815e-12</wgt>
  <wgt id="616">3.51683e-12</wgt>
  <wgt id="617">3.44765e-12</wgt>
  <wgt id="618">3.40602e-12</wgt>
  <wgt id="619">3.29753e-12</wgt>
  <wgt id="620">3.45974e-12</wgt>
  <wgt id="621">3.37004e-12</wgt>
  <wgt id="622">3.37502e-12</wgt>
  <wgt id="623">3.41988e-12</wgt>
  <wgt id="624">3.31861e-12</wgt>
  <wgt id="625">3.28709e-12</wgt>
  <wgt id="626">3.24383e-12</wgt>
  <wgt id="627">3.19901e-12</wgt>
  <wgt id="628">3.5048e-12</wgt>
  <wgt id="629">3.26157e-12</wgt>
  <wgt id="630">3.22328e-12</wgt>
  <wgt id="631">3.34354e-12</wgt>
  <wgt id="632">3.21254e-12</wgt>
  <wgt id="633">3.29488e-12</wgt>
  <wgt id="634">3.32375e-12</wgt>
  <wgt id="635">3.261e-12</wgt>
  <wgt id="636">3.35348e-12</wgt>
  <wgt id="637">3.32976e-12</wgt>
  <wgt id="638">3.2092e-12</wgt>
  <wgt id="639">3.28697e-12</wgt>
  <wgt id="640">3.33284e-12</wgt>
  <wgt id="641">3.35413e-12</wgt>
  <wgt id="642">3.23212e-12</wgt>
  <wgt id="643">3.31235e-12</wgt>
  <wgt id="644">3.18958e-12</wgt>
  <wgt id="645">3.35582e-12</wgt>
  <wgt id="646">3.37113e-12</wgt>
  <wgt id="647">3.28575e-12</wgt>
  <wgt id="648">3.35342e-12</wgt>
  <wgt id="649">3.37768e-12</wgt>
  <wgt id="650">3.26387e-12</wgt>
  <wgt id="651">3.36288e-12</wgt>
  <wgt id="652">3.30915e-12</wgt>
  <wgt id="653">3.23861e-12</wgt>
  <wgt id="654">3.30743e-12</wgt>
  <wgt id="655">3.2719e-12</wgt>
  <wgt id="656">3.33948e-12</wgt>
  <wgt id="657">3.44893e-12</wgt>
  <wgt id="658">3.35328e-12</wgt>
  <wgt id="659">3.20264e-12</wgt>
  <wgt id="660">3.38879e-12</wgt>
  <wgt id="661">3.27848e-12</wgt>
  <wgt id="662">3.32193e-12</wgt>
  <wgt id="663">3.32997e-12</wgt>
  <wgt id="664">3.28392e-12</wgt>
  <wgt id="665">3.32074e-12</wgt>
  <wgt id="666">3.30781e-12</wgt>
  <wgt id="667">3.4376e-12</wgt>
  <wgt id="668">3.32261e-12</wgt>
  <wgt id="669">3.40943e-12</wgt>
  <wgt id="670">3.39272e-12</wgt>
  <wgt id="671">3.2955e-12</wgt>
  <wgt id="672">3.19189e-12</wgt>
  <wgt id="673">3.33944e-12</wgt>
  <wgt id="674">3.26381e-12</wgt>
  <wgt id="675">3.27662e-12</wgt>
  <wgt id="676">4.18592e-12</wgt>
  <wgt id="677">4.23647e-12</wgt>
  <wgt id="678">4.3875e-12</wgt>
  <wgt id="679">3.94925e-12</wgt>
  <wgt id="680">4.07854e-12</wgt>
  <wgt id="681">4.27976e-12</wgt>
  <wgt id="682">4.29071e-12</wgt>
  <wgt id="683">4.13071e-12</wgt>
  <wgt id="684">4.37036e-12</wgt>
  <wgt id="685">3.97933e-12</wgt>
  <wgt id="686">4.13003e-12</wgt>
  <wgt id="687">4.38084e-12</wgt>
  <wgt id="688">4.15724e-12</wgt>
  <wgt id="689">4.49849e-12</wgt>
  <wgt id="690">4.39962e-12</wgt>
  <wgt id="691">4.41886e-12</wgt>
  <wgt id="692">4.14967e-12</wgt>
  <wgt id="693">4.89328e-12</wgt>
  <wgt id="694">4.43473e-12</wgt>
  <wgt id="695">4.05317e-12</wgt>
  <wgt id="696">3.98202e-12</wgt>
  <wgt id="697">4.05444e-12</wgt>
  <wgt id="698">3.86001e-12</wgt>
  <wgt id="699">3.82546e-12</wgt>
  <wgt id="700">3.68269e-12</wgt>
  <wgt id="701">4.19718e-12</wgt>
  <wgt id="702">4.0469e-12</wgt>
  <wgt id="703">4.7859e-12</wgt>
  <wgt id="704">4.55735e-12</wgt>
  <wgt id="705">4.37855e-12</wgt>
  <wgt id="706">3.91364e-12</wgt>
  <wgt id="707">4.02042e-12</wgt>
  <wgt id="708">4.12995e-12</wgt>
  <wgt id="709">4.11228e-12</wgt>
  <wgt id="710">3.77504e-12</wgt>
  <wgt id="711">4.16937e-12</wgt>
  <wgt id="712">4.11212e-12</wgt>
  <wgt id="713">4.50345e-12</wgt>
  <wgt id="714">4.12294e-12</wgt>
  <wgt id="715">4.13926e-12</wgt>
  <wgt id="716">4.03142e-12</wgt>
  <wgt id="717">3.98941e-12</wgt>
  <wgt id="718">4.16449e-12</wgt>
  <wgt id="719">3.81284e-12</wgt>
  <wgt id="720">3.96271e-12</wgt>
  <wgt id="721">3.88053e-12</wgt>
  <wgt id="722">3.73034e-12</wgt>
  <wgt id="723">4.45396e-12</wgt>
  <wgt id="724">4.3762e-12</wgt>
  <wgt id="725">4.4149e-12</wgt>
  <wgt id="726">4.22473e-12</wgt>
  <wgt id="727">4.09348e-12</wgt>
  <wgt id="728">4.10791e-12</wgt>
  <wgt id="729">3.85142e-12</wgt>
  <wgt id="730">4.49345e-12</wgt>
  <wgt id="731">4.13544e-12</wgt>
  <wgt id="732">4.5919e-12</wgt>
  <wgt id="733">4.16752e-12</wgt>
  <wgt id="734">4.28551e-12</wgt>
  <wgt id="735">4.17501e-12</wgt>
  <wgt id="736">4.10708e-12</wgt>
  <wgt id="737">4.24995e-12</wgt>
  <wgt id="738">3.99587e-12</wgt>
  <wgt id="739">4.23765e-12</wgt>
  <wgt id="740">4.64573e-12</wgt>
  <wgt id="741">3.7456e-12</wgt>
  <wgt id="742">4.12534e-12</wgt>
  <wgt id="743">4.01076e-12</wgt>
  <wgt id="744">4.10139e-12</wgt>
  <wgt id="745">4.36768e-12</wgt>
  <wgt id="746">4.43561e-12</wgt>
  <wgt id="747">3.80554e-12</wgt>
  <wgt id="748">4.12789e-12</wgt>
  <wgt id="749">4.40494e-12</wgt>
  <wgt id="750">4.25455e-12</wgt>
  <wgt id="751">4.31713e-12</wgt>
  <wgt id="752">3.84781e-12</wgt>
  <wgt id="753">3.97602e-12</wgt>
  <wgt id="754">4.34785e-12</wgt>
  <wgt id="755">4.20072e-12</wgt>
  <wgt id="756">4.20397e-12</wgt>
  <wgt id="757">3.86129e-12</wgt>
  <wgt id="758">4.22026e-12</wgt>
  <wgt id="759">4.26777e-12</wgt>
  <wgt id="760">4.23658e-12</wgt>
  <wgt id="761">4.41226e-12</wgt>
  <wgt id="762">4.43056e-12</wgt>
  <wgt id="763">4.17824e-12</wgt>
  <wgt id="764">4.34759e-12</wgt>
  <wgt id="765">4.2418e-12</wgt>
  <wgt id="766">4.17822e-12</wgt>
  <wgt id="767">4.28633e-12</wgt>
  <wgt id="768">3.956e-12</wgt>
  <wgt id="769">4.43363e-12</wgt>
  <wgt id="770">4.078e-12</wgt>
  <wgt id="771">4.9307e-12</wgt>
  <wgt id="772">3.95516e-12</wgt>
  <wgt id="773">4.15837e-12</wgt>
  <wgt id="774">3.7262e-12</wgt>
  <wgt id="775">4.39522e-12</wgt>
  <wgt id="776">4.56774e-12</wgt>
  <wgt id="777">3.99463e-12</wgt>
  <wgt id="778">3.09315e-12</wgt>
  <wgt id="779">2.56651e-12</wgt>
  <wgt id="780">2.09491e-12</wgt>
  <wgt id="781">3.19347e-12</wgt>
  <wgt id="782">3.28729e-12</wgt>
  <wgt id="783">2.59854e-12</wgt>
  <wgt id="784">2.70151e-12</wgt>
  <wgt id="785">3.7728e-12</wgt>
  <wgt id="786">2.38186e-12</wgt>
  <wgt id="787">3.51803e-12</wgt>
  <wgt id="788">1.9394e-12</wgt>
  <wgt id="789">2.49819e-12</wgt>
  <wgt id="790">2.3552e-12</wgt>
  <wgt id="791">2.91845e-12</wgt>
  <wgt id="792">4.03616e-12</wgt>
  <wgt id="793">3.02246e-12</wgt>
  <wgt id="794">2.36432e-12</wgt>
  <wgt id="795">3.61938e-12</wgt>
  <wgt id="796">4.05662e-12</wgt>
  <wgt id="797">3.58909e-12</wgt>
  <wgt id="798">2.84073e-12</wgt>
  <wgt id="799">3.51723e-12</wgt>
  <wgt id="800">2.52141e-12</wgt>
  <wgt id="801">2.88938e-12</wgt>
  <wgt id="802">2.377e-12</wgt>
  <wgt id="803">4.0674e-12</wgt>
  <wgt id="804">3.59349e-12</wgt>
  <wgt id="805">3.65272e-12</wgt>
  <wgt id="806">3.4519e-12</wgt>
  <wgt id="807">2.95126e-12</wgt>
  <wgt id="808">3.00707e-12</wgt>
  <wgt id="809">2.85348e-12</wgt>
  <wgt id="810">3.50897e-12</wgt>
  <wgt id="811">3.36689e-12</wgt>
  <wgt id="812">2.35276e-12</wgt>
  <wgt id="813">2.40779e-12</wgt>
  <wgt id="814">2.61596e-12</wgt>
  <wgt id="815">2.57196e-12</wgt>
  <wgt id="816">2.28096e-12</wgt>
  <wgt id="817">3.24108e-12</wgt>
  <wgt id="818">3.08517e-12</wgt>
  <wgt id="819">2.5691e-12</wgt>
  <wgt id="820">3.09271e-12</wgt>
  <wgt id="821">3.55042e-12</wgt>
  <wgt id="822">2.57791e-12</wgt>
  <wgt id="823">3.57496e-12</wgt>
  <wgt id="824">4.1534e-12</wgt>
  <wgt id="825">2.28248e-12</wgt>
  <wgt id="826">3.27403e-12</wgt>
  <wgt id="827">1.8922e-12</wgt>
  <wgt id="828">3.95888e-12</wgt>
  <wgt id="829">3.21001e-12</wgt>
  <wgt id="830">2.16479e-12</wgt>
  <wgt id="831">3.33264e-12</wgt>
  <wgt id="832">5.05493e-12</wgt>
  <wgt id="833">2.87683e-12</wgt>
  <wgt id="834">4.74393e-12</wgt>
  <wgt id="835">2.51281e-12</wgt>
  <wgt id="836">3.06222e-12</wgt>
  <wgt id="837">3.50446e-12</wgt>
  <wgt id="838">2.93682e-12</wgt>
  <wgt id="839">3.31199e-12</wgt>
  <wgt id="840">2.88977e-12</wgt>
  <wgt id="841">3.80674e-12</wgt>
  <wgt id="842">2.81707e-12</wgt>
  <wgt id="843">3.04878e-12</wgt>
  <wgt id="844">3.22888e-12</wgt>
  <wgt id="845">4.35132e-12</wgt>
  <wgt id="846">2.92837e-12</wgt>
  <wgt id="847">3.1212e-12</wgt>
  <wgt id="848">2.66299e-12</wgt>
  <wgt id="849">3.17496e-12</wgt>
  <wgt id="850">4.03143e-12</wgt>
  <wgt id="851">3.39423e-12</wgt>
  <wgt id="852">2.62634e-12</wgt>
  <wgt id="853">3.39845e-12</wgt>
  <wgt id="854">3.77001e-12</wgt>
  <wgt id="855">3.58008e-12</wgt>
  <wgt id="856">2.21774e-12</wgt>
  <wgt id="857">3.09003e-12</wgt>
  <wgt id="858">3.04339e-12</wgt>
  <wgt id="859">2.88386e-12</wgt>
  <wgt id="860">3.33853e-12</wgt>
  <wgt id="861">2.72563e-12</wgt>
  <wgt id="862">3.14854e-12</wgt>
  <wgt id="863">3.27683e-12</wgt>
  <wgt id="864">3.27795e-12</wgt>
  <wgt id="865">4.42606e-12</wgt>
  <wgt id="866">4.84631e-12</wgt>
  <wgt id="867">3.15012e-12</wgt>
  <wgt id="868">3.06397e-12</wgt>
  <wgt id="869">2.39605e-12</wgt>
  <wgt id="870">2.52424e-12</wgt>
  <wgt id="871">2.44975e-12</wgt>
  <wgt id="872">3.69756e-12</wgt>
  <wgt id="873">2.55858e-12</wgt>
  <wgt id="874">3.2576e-12</wgt>
  <wgt id="875">2.68507e-12</wgt>
  <wgt id="876">3.69778e-12</wgt>
  <wgt id="877">3.53681e-12</wgt>
  <wgt id="878">2.65338e-12</wgt>
  <wgt id="879">4.18592e-12</wgt>
  <wgt id="880">4.23647e-12</wgt>
  <wgt id="881">4.3875e-12</wgt>
  <wgt id="882">3.94925e-12</wgt>
  <wgt id="883">4.07854e-12</wgt>
  <wgt id="884">4.27976e-12</wgt>
  <wgt id="885">4.29071e-12</wgt>
  <wgt id="886">4.13071e-12</wgt>
  <wgt id="887">4.37036e-12</wgt>
  <wgt id="888">3.97933e-12</wgt>
  <wgt id="889">4.13003e-12</wgt>
  <wgt id="890">4.38084e-12</wgt>
  <wgt id="891">4.15724e-12</wgt>
  <wgt id="892">4.49849e-12</wgt>
  <wgt id="893">4.39962e-12</wgt>
  <wgt id="894">4.41886e-12</wgt>
  <wgt id="895">4.14967e-12</wgt>
  <wgt id="896">4.89328e-12</wgt>
  <wgt id="897">4.43473e-12</wgt>
  <wgt id="898">4.05317e-12</wgt>
  <wgt id="899">3.98202e-12</wgt>
  <wgt id="900">4.05444e-12</wgt>
  <wgt id="901">3.86001e-12</wgt>
  <wgt id="902">3.82546e-12</wgt>
  <wgt id="903">3.68269e-12</wgt>
  <wgt id="904">4.19718e-12</wgt>
  <wgt id="905">4.0469e-12</wgt>
  <wgt id="906">4.7859e-12</wgt>
  <wgt id="907">4.55735e-12</wgt>
  <wgt id="908">4.37855e-12</wgt>
  <wgt id="909">3.91364e-12</wgt>
  <wgt id="910">4.02042e-12</wgt>
  <wgt id="911">4.12995e-12</wgt>
  <wgt id="912">4.11228e-12</wgt>
  <wgt id="913">3.77504e-12</wgt>
  <wgt id="914">4.16937e-12</wgt>
  <wgt id="915">4.11212e-12</wgt>
  <wgt id="916">4.50345e-12</wgt>
  <wgt id="917">4.12294e-12</wgt>
  <wgt id="918">4.13926e-12</wgt>
  <wgt id="919">4.03142e-12</wgt>
  <wgt id="920">3.98941e-12</wgt>
  <wgt id="921">4.16449e-12</wgt>
  <wgt id="922">3.81284e-12</wgt>
  <wgt id="923">3.96271e-12</wgt>
  <wgt id="924">3.88053e-12</wgt>
  <wgt id="925">3.73034e-12</wgt>
  <wgt id="926">4.45396e-12</wgt>
  <wgt id="927">4.3762e-12</wgt>
  <wgt id="928">4.4149e-12</wgt>
  <wgt id="929">4.22473e-12</wgt>
  <wgt id="930">4.09348e-12</wgt>
  <wgt id="931">4.10791e-12</wgt>
  <wgt id="932">3.85142e-12</wgt>
  <wgt id="933">4.49345e-12</wgt>
  <wgt id="934">4.13544e-12</wgt>
  <wgt id="935">4.5919e-12</wgt>
  <wgt id="936">4.16752e-12</wgt>
  <wgt id="937">4.28551e-12</wgt>
  <wgt id="938">4.17501e-12</wgt>
  <wgt id="939">4.10708e-12</wgt>
  <wgt id="940">4.24995e-12</wgt>
  <wgt id="941">3.99587e-12</wgt>
  <wgt id="942">4.23765e-12</wgt>
  <wgt id="943">4.64573e-12</wgt>
  <wgt id="944">3.7456e-12</wgt>
  <wgt id="945">4.12534e-12</wgt>
  <wgt id="946">4.01076e-12</wgt>
  <wgt id="947">4.10139e-12</wgt>
  <wgt id="948">4.36768e-12</wgt>
  <wgt id="949">4.43561e-12</wgt>
  <wgt id="950">3.80554e-12</wgt>
  <wgt id="951">4.12789e-12</wgt>
  <wgt id="952">4.40494e-12</wgt>
  <wgt id="953">4.25455e-12</wgt>
  <wgt id="954">4.31713e-12</wgt>
  <wgt id="955">3.84781e-12</wgt>
  <wgt id="956">3.97602e-12</wgt>
  <wgt id="957">4.34785e-12</wgt>
  <wgt id="958">4.20072e-12</wgt>
  <wgt id="959">4.20397e-12</wgt>
  <wgt id="960">3.86129e-12</wgt>
  <wgt id="961">4.22026e-12</wgt>
  <wgt id="962">4.26777e-12</wgt>
  <wgt id="963">4.23658e-12</wgt>
  <wgt id="964">4.41226e-12</wgt>
  <wgt id="965">4.43056e-12</wgt>
  <wgt id="966">4.17824e-12</wgt>
  <wgt id="967">4.34759e-12</wgt>
  <wgt id="968">4.2418e-12</wgt>
  <wgt id="969">4.17822e-12</wgt>
  <wgt id="970">4.28633e-12</wgt>
  <wgt id="971">3.956e-12</wgt>
  <wgt id="972">4.43363e-12</wgt>
  <wgt id="973">4.078e-12</wgt>
  <wgt id="974">4.9307e-12</wgt>
  <wgt id="975">3.95516e-12</wgt>
  <wgt id="976">4.15837e-12</wgt>
  <wgt id="977">3.7262e-12</wgt>
  <wgt id="978">4.39522e-12</wgt>
  <wgt id="979">4.56774e-12</wgt>
  <wgt id="980">4.18616e-12</wgt>
  <wgt id="981">4.20768e-12</wgt>
  <wgt id="982">4.06574e-12</wgt>
</rwgt>
</event>
<event>
 5   1  0.3028200E-11  0.2344275E+04  0.7818608E-02  0.7696612E-01
       21   -1    0    0  502  501  0.00000000000E+00  0.00000000000E+00  0.17410267420E+04  0.17410267420E+04  0.00000000000E+00 0. -1.
       21   -1    0    0  501  502 -0.00000000000E+00 -0.00000000000E+00 -0.78913567361E+03  0.78913567361E+03  0.00000000000E+00 0.  1.
       39    2    1    2    0    0  0.00000000000E+00  0.00000000000E+00  0.95189106844E+03  0.25301624156E+04  0.23442749931E+04 0.  0.
       25    1    3    3    0    0  0.90129222355E+03  0.42072255681E+03 -0.17962790220E+03  0.10184430889E+04  0.12500000000E+03 0.  0.
       25    1    3    3    0    0 -0.90129222355E+03 -0.42072255681E+03  0.11315189706E+04  0.15117193268E+04  0.12500000000E+03 0.  0.
<mgrwt>
<rscale>  0 0.23442750E+04</rscale>
<asrwt>0</asrwt>
<pdfrwt beam="1">  1       21 0.26785027E+00 0.23442750E+04</pdfrwt>
<pdfrwt beam="2">  1       21 0.12140549E+00 0.23442750E+04</pdfrwt>
<totfact> 0.95102394E+00</totfact>
</mgrwt>
<rwgt>
  <wgt id="1">3.0282e-12</wgt>
  <wgt id="2">2.6277e-12</wgt>
  <wgt id="3">3.52685e-12</wgt>
  <wgt id="4">3.0282e-12</wgt>
  <wgt id="5">2.6277e-12</wgt>
  <wgt id="6">3.52685e-12</wgt>
  <wgt id="7">3.0282e-12</wgt>
  <wgt id="8">2.6277e-12</wgt>
  <wgt id="9">3.52685e-12</wgt>
  <wgt id="10">3.15953e-12</wgt>
  <wgt id="11">3.15753e-12</wgt>
  <wgt id="12">3.15395e-12</wgt>
  <wgt id="13">3.15039e-12</wgt>
  <wgt id="14">3.171e-12</wgt>
  <wgt id="15">3.16493e-12</wgt>
  <wgt id="16">3.15435e-12</wgt>
  <wgt id="17">3.17041e-12</wgt>
  <wgt id="18">3.15416e-12</wgt>
  <wgt id="19">3.16817e-12</wgt>
  <wgt id="20">3.15366e-12</wgt>
  <wgt id="21">3.13626e-12</wgt>
  <wgt id="22">3.14141e-12</wgt>
  <wgt id="23">3.12165e-12</wgt>
  <wgt id="24">3.14034e-12</wgt>
  <wgt id="25">3.14931e-12</wgt>
  <wgt id="26">3.16992e-12</wgt>
  <wgt id="27">3.15659e-12</wgt>
  <wgt id="28">3.14222e-12</wgt>
  <wgt id="29">3.1615e-12</wgt>
  <wgt id="30">3.14211e-12</wgt>
  <wgt id="31">3.17251e-12</wgt>
  <wgt id="32">3.1467e-12</wgt>
  <wgt id="33">3.16571e-12</wgt>
  <wgt id="34">3.14385e-12</wgt>
  <wgt id="35">3.14962e-12</wgt>
  <wgt id="36">3.17211e-12</wgt>
  <wgt id="37">3.15046e-12</wgt>
  <wgt id="38">3.14885e-12</wgt>
  <wgt id="39">3.20331e-12</wgt>
  <wgt id="40">3.16275e-12</wgt>
  <wgt id="41">3.15769e-12</wgt>
  <wgt id="42">3.16494e-12</wgt>
  <wgt id="43">3.15933e-12</wgt>
  <wgt id="44">3.16138e-12</wgt>
  <wgt id="45">3.16552e-12</wgt>
  <wgt id="46">3.15634e-12</wgt>
  <wgt id="47">3.166e-12</wgt>
  <wgt id="48">3.16447e-12</wgt>
  <wgt id="49">3.15037e-12</wgt>
  <wgt id="50">3.15475e-12</wgt>
  <wgt id="51">3.1565e-12</wgt>
  <wgt id="52">3.16517e-12</wgt>
  <wgt id="53">3.15574e-12</wgt>
  <wgt id="54">3.16224e-12</wgt>
  <wgt id="55">3.15952e-12</wgt>
  <wgt id="56">3.16634e-12</wgt>
  <wgt id="57">3.16006e-12</wgt>
  <wgt id="58">3.14883e-12</wgt>
  <wgt id="59">3.15483e-12</wgt>
  <wgt id="60">3.15515e-12</wgt>
  <wgt id="61">3.14079e-12</wgt>
  <wgt id="62">3.14937e-12</wgt>
  <wgt id="63">3.15568e-12</wgt>
  <wgt id="64">3.1595e-12</wgt>
  <wgt id="65">3.16036e-12</wgt>
  <wgt id="66">3.15679e-12</wgt>
  <wgt id="67">3.14532e-12</wgt>
  <wgt id="68">3.15859e-12</wgt>
  <wgt id="69">3.15865e-12</wgt>
  <wgt id="70">3.15879e-12</wgt>
  <wgt id="71">3.15659e-12</wgt>
  <wgt id="72">3.14718e-12</wgt>
  <wgt id="73">3.16729e-12</wgt>
  <wgt id="74">3.1629e-12</wgt>
  <wgt id="75">3.15821e-12</wgt>
  <wgt id="76">3.17127e-12</wgt>
  <wgt id="77">3.15681e-12</wgt>
  <wgt id="78">3.1574e-12</wgt>
  <wgt id="79">3.16837e-12</wgt>
  <wgt id="80">3.14283e-12</wgt>
  <wgt id="81">3.15905e-12</wgt>
  <wgt id="82">3.1604e-12</wgt>
  <wgt id="83">3.1458e-12</wgt>
  <wgt id="84">3.15508e-12</wgt>
  <wgt id="85">3.15083e-12</wgt>
  <wgt id="86">3.16959e-12</wgt>
  <wgt id="87">3.13933e-12</wgt>
  <wgt id="88">3.16366e-12</wgt>
  <wgt id="89">3.16208e-12</wgt>
  <wgt id="90">3.16881e-12</wgt>
  <wgt id="91">3.1631e-12</wgt>
  <wgt id="92">3.16632e-12</wgt>
  <wgt id="93">3.16329e-12</wgt>
  <wgt id="94">3.1556e-12</wgt>
  <wgt id="95">3.16833e-12</wgt>
  <wgt id="96">3.16351e-12</wgt>
  <wgt id="97">3.15107e-12</wgt>
  <wgt id="98">3.1605e-12</wgt>
  <wgt id="99">3.15193e-12</wgt>
  <wgt id="100">3.16586e-12</wgt>
  <wgt id="101">3.16052e-12</wgt>
  <wgt id="102">3.15758e-12</wgt>
  <wgt id="103">3.16618e-12</wgt>
  <wgt id="104">3.1566e-12</wgt>
  <wgt id="105">3.16487e-12</wgt>
  <wgt id="106">3.15351e-12</wgt>
  <wgt id="107">3.1722e-12</wgt>
  <wgt id="108">3.15475e-12</wgt>
  <wgt id="109">3.16208e-12</wgt>
  <wgt id="110">3.15878e-12</wgt>
  <wgt id="111">3.18099e-12</wgt>
  <wgt id="112">3.17742e-12</wgt>
  <wgt id="113">4.37742e-12</wgt>
  <wgt id="114">4.33509e-12</wgt>
  <wgt id="115">4.26488e-12</wgt>
  <wgt id="116">5.9571e-12</wgt>
  <wgt id="117">3.51668e-12</wgt>
  <wgt id="118">3.52938e-12</wgt>
  <wgt id="119">3.50942e-12</wgt>
  <wgt id="120">3.51693e-12</wgt>
  <wgt id="121">3.5165e-12</wgt>
  <wgt id="122">3.51074e-12</wgt>
  <wgt id="123">3.52487e-12</wgt>
  <wgt id="124">3.5118e-12</wgt>
  <wgt id="125">3.51977e-12</wgt>
  <wgt id="126">3.52262e-12</wgt>
  <wgt id="127">3.5127e-12</wgt>
  <wgt id="128">3.52754e-12</wgt>
  <wgt id="129">3.50585e-12</wgt>
  <wgt id="130">3.53597e-12</wgt>
  <wgt id="131">3.4968e-12</wgt>
  <wgt id="132">3.42259e-12</wgt>
  <wgt id="133">3.62836e-12</wgt>
  <wgt id="134">3.47855e-12</wgt>
  <wgt id="135">3.54652e-12</wgt>
  <wgt id="136">3.56545e-12</wgt>
  <wgt id="137">3.45787e-12</wgt>
  <wgt id="138">3.66289e-12</wgt>
  <wgt id="139">3.3765e-12</wgt>
  <wgt id="140">3.49593e-12</wgt>
  <wgt id="141">3.53278e-12</wgt>
  <wgt id="142">3.51658e-12</wgt>
  <wgt id="143">3.5242e-12</wgt>
  <wgt id="144">3.3982e-12</wgt>
  <wgt id="145">3.62895e-12</wgt>
  <wgt id="146">3.55433e-12</wgt>
  <wgt id="147">3.48641e-12</wgt>
  <wgt id="148">3.52855e-12</wgt>
  <wgt id="149">3.51586e-12</wgt>
  <wgt id="150">3.54692e-12</wgt>
  <wgt id="151">3.50249e-12</wgt>
  <wgt id="152">3.5181e-12</wgt>
  <wgt id="153">3.51618e-12</wgt>
  <wgt id="154">3.53695e-12</wgt>
  <wgt id="155">3.48978e-12</wgt>
  <wgt id="156">3.60642e-12</wgt>
  <wgt id="157">3.42874e-12</wgt>
  <wgt id="158">4.22549e-12</wgt>
  <wgt id="159">4.24313e-12</wgt>
  <wgt id="160">4.21101e-12</wgt>
  <wgt id="161">4.2146e-12</wgt>
  <wgt id="162">4.23736e-12</wgt>
  <wgt id="163">4.22064e-12</wgt>
  <wgt id="164">4.23231e-12</wgt>
  <wgt id="165">4.22697e-12</wgt>
  <wgt id="166">4.22412e-12</wgt>
  <wgt id="167">4.2224e-12</wgt>
  <wgt id="168">4.22959e-12</wgt>
  <wgt id="169">4.20763e-12</wgt>
  <wgt id="170">4.23642e-12</wgt>
  <wgt id="171">4.22114e-12</wgt>
  <wgt id="172">4.23117e-12</wgt>
  <wgt id="173">4.22202e-12</wgt>
  <wgt id="174">4.22646e-12</wgt>
  <wgt id="175">4.10428e-12</wgt>
  <wgt id="176">4.38352e-12</wgt>
  <wgt id="177">4.2472e-12</wgt>
  <wgt id="178">4.20542e-12</wgt>
  <wgt id="179">4.41818e-12</wgt>
  <wgt id="180">3.92406e-12</wgt>
  <wgt id="181">4.0946e-12</wgt>
  <wgt id="182">4.31212e-12</wgt>
  <wgt id="183">4.14577e-12</wgt>
  <wgt id="184">4.26485e-12</wgt>
  <wgt id="185">4.18579e-12</wgt>
  <wgt id="186">4.27335e-12</wgt>
  <wgt id="187">4.18352e-12</wgt>
  <wgt id="188">4.30012e-12</wgt>
  <wgt id="189">4.19556e-12</wgt>
  <wgt id="190">4.2375e-12</wgt>
  <wgt id="191">4.23837e-12</wgt>
  <wgt id="192">4.21762e-12</wgt>
  <wgt id="193">4.29013e-12</wgt>
  <wgt id="194">4.19313e-12</wgt>
  <wgt id="195">4.1008e-12</wgt>
  <wgt id="196">4.43761e-12</wgt>
  <wgt id="197">4.24736e-12</wgt>
  <wgt id="198">4.22008e-12</wgt>
  <wgt id="199">4.22549e-12</wgt>
  <wgt id="200">4.2637e-12</wgt>
  <wgt id="201">4.25004e-12</wgt>
  <wgt id="202">4.23706e-12</wgt>
  <wgt id="203">4.21755e-12</wgt>
  <wgt id="204">4.20809e-12</wgt>
  <wgt id="205">4.20026e-12</wgt>
  <wgt id="206">4.11039e-12</wgt>
  <wgt id="207">4.13476e-12</wgt>
  <wgt id="208">4.08637e-12</wgt>
  <wgt id="209">4.12314e-12</wgt>
  <wgt id="210">4.10116e-12</wgt>
  <wgt id="211">4.10897e-12</wgt>
  <wgt id="212">4.11157e-12</wgt>
  <wgt id="213">4.11003e-12</wgt>
  <wgt id="214">4.11095e-12</wgt>
  <wgt id="215">4.1135e-12</wgt>
  <wgt id="216">4.10821e-12</wgt>
  <wgt id="217">4.12135e-12</wgt>
  <wgt id="218">4.10198e-12</wgt>
  <wgt id="219">4.10595e-12</wgt>
  <wgt id="220">4.11313e-12</wgt>
  <wgt id="221">4.10993e-12</wgt>
  <wgt id="222">4.11096e-12</wgt>
  <wgt id="223">3.88621e-12</wgt>
  <wgt id="224">4.3153e-12</wgt>
  <wgt id="225">4.06011e-12</wgt>
  <wgt id="226">4.174e-12</wgt>
  <wgt id="227">4.07111e-12</wgt>
  <wgt id="228">4.12766e-12</wgt>
  <wgt id="229">4.05253e-12</wgt>
  <wgt id="230">4.13914e-12</wgt>
  <wgt id="231">4.23662e-12</wgt>
  <wgt id="232">4.00683e-12</wgt>
  <wgt id="233">4.08733e-12</wgt>
  <wgt id="234">4.14798e-12</wgt>
  <wgt id="235">3.99274e-12</wgt>
  <wgt id="236">4.21188e-12</wgt>
  <wgt id="237">4.03698e-12</wgt>
  <wgt id="238">4.13509e-12</wgt>
  <wgt id="239">4.07977e-12</wgt>
  <wgt id="240">4.16558e-12</wgt>
  <wgt id="241">4.06527e-12</wgt>
  <wgt id="242">4.16446e-12</wgt>
  <wgt id="243">4.16983e-12</wgt>
  <wgt id="244">4.1232e-12</wgt>
  <wgt id="245">4.10802e-12</wgt>
  <wgt id="246">4.13769e-12</wgt>
  <wgt id="247">4.11039e-12</wgt>
  <wgt id="248">4.14948e-12</wgt>
  <wgt id="249">4.13531e-12</wgt>
  <wgt id="250">4.12138e-12</wgt>
  <wgt id="251">4.10136e-12</wgt>
  <wgt id="252">4.09165e-12</wgt>
  <wgt id="253">4.08474e-12</wgt>
  <wgt id="254">4.00092e-12</wgt>
  <wgt id="255">4.00469e-12</wgt>
  <wgt id="256">3.99686e-12</wgt>
  <wgt id="257">4.00398e-12</wgt>
  <wgt id="258">3.99869e-12</wgt>
  <wgt id="259">4.02766e-12</wgt>
  <wgt id="260">3.97506e-12</wgt>
  <wgt id="261">4.00705e-12</wgt>
  <wgt id="262">3.99369e-12</wgt>
  <wgt id="263">3.99867e-12</wgt>
  <wgt id="264">4.00359e-12</wgt>
  <wgt id="265">3.99611e-12</wgt>
  <wgt id="266">4.01054e-12</wgt>
  <wgt id="267">4.0023e-12</wgt>
  <wgt id="268">3.99907e-12</wgt>
  <wgt id="269">4.01371e-12</wgt>
  <wgt id="270">3.99224e-12</wgt>
  <wgt id="271">3.99254e-12</wgt>
  <wgt id="272">4.01026e-12</wgt>
  <wgt id="273">3.98922e-12</wgt>
  <wgt id="274">4.00986e-12</wgt>
  <wgt id="275">3.98129e-12</wgt>
  <wgt id="276">4.02128e-12</wgt>
  <wgt id="277">3.97769e-12</wgt>
  <wgt id="278">4.02225e-12</wgt>
  <wgt id="279">3.92484e-12</wgt>
  <wgt id="280">4.09659e-12</wgt>
  <wgt id="281">3.98291e-12</wgt>
  <wgt id="282">4.00327e-12</wgt>
  <wgt id="283">3.88018e-12</wgt>
  <wgt id="284">4.1504e-12</wgt>
  <wgt id="285">3.80099e-12</wgt>
  <wgt id="286">4.16775e-12</wgt>
  <wgt id="287">4.01413e-12</wgt>
  <wgt id="288">3.984e-12</wgt>
  <wgt id="289">4.03065e-12</wgt>
  <wgt id="290">3.93321e-12</wgt>
  <wgt id="291">3.98801e-12</wgt>
  <wgt id="292">4.00282e-12</wgt>
  <wgt id="293">3.96849e-12</wgt>
  <wgt id="294">4.03323e-12</wgt>
  <wgt id="295">3.92177e-12</wgt>
  <wgt id="296">4.09772e-12</wgt>
  <wgt id="297">3.99702e-12</wgt>
  <wgt id="298">4.01811e-12</wgt>
  <wgt id="299">3.9878e-12</wgt>
  <wgt id="300">4.03584e-12</wgt>
  <wgt id="301">3.93545e-12</wgt>
  <wgt id="302">4.15928e-12</wgt>
  <wgt id="303">3.96523e-12</wgt>
  <wgt id="304">4.02123e-12</wgt>
  <wgt id="305">3.99495e-12</wgt>
  <wgt id="306">3.99884e-12</wgt>
  <wgt id="307">3.99071e-12</wgt>
  <wgt id="308">3.99834e-12</wgt>
  <wgt id="309">3.99271e-12</wgt>
  <wgt id="310">4.02253e-12</wgt>
  <wgt id="311">3.9694e-12</wgt>
  <wgt id="312">4.00006e-12</wgt>
  <wgt id="313">3.9895e-12</wgt>
  <wgt id="314">3.99263e-12</wgt>
  <wgt id="315">3.99712e-12</wgt>
  <wgt id="316">3.99023e-12</wgt>
  <wgt id="317">4.00512e-12</wgt>
  <wgt id="318">3.99788e-12</wgt>
  <wgt id="319">3.98976e-12</wgt>
  <wgt id="320">4.00847e-12</wgt>
  <wgt id="321">3.98737e-12</wgt>
  <wgt id="322">3.98487e-12</wgt>
  <wgt id="323">4.00656e-12</wgt>
  <wgt id="324">3.98551e-12</wgt>
  <wgt id="325">4.00312e-12</wgt>
  <wgt id="326">3.97904e-12</wgt>
  <wgt id="327">4.0153e-12</wgt>
  <wgt id="328">3.97405e-12</wgt>
  <wgt id="329">4.00664e-12</wgt>
  <wgt id="330">4.11151e-12</wgt>
  <wgt id="331">3.88383e-12</wgt>
  <wgt id="332">3.97992e-12</wgt>
  <wgt id="333">3.99613e-12</wgt>
  <wgt id="334">3.90122e-12</wgt>
  <wgt id="335">4.11173e-12</wgt>
  <wgt id="336">3.851e-12</wgt>
  <wgt id="337">4.17131e-12</wgt>
  <wgt id="338">4.04123e-12</wgt>
  <wgt id="339">3.9521e-12</wgt>
  <wgt id="340">4.02254e-12</wgt>
  <wgt id="341">3.92514e-12</wgt>
  <wgt id="342">3.98568e-12</wgt>
  <wgt id="343">3.98989e-12</wgt>
  <wgt id="344">3.96585e-12</wgt>
  <wgt id="345">4.02871e-12</wgt>
  <wgt id="346">3.91313e-12</wgt>
  <wgt id="347">4.08899e-12</wgt>
  <wgt id="348">3.99231e-12</wgt>
  <wgt id="349">4.00966e-12</wgt>
  <wgt id="350">3.97848e-12</wgt>
  <wgt id="351">4.03668e-12</wgt>
  <wgt id="352">3.9252e-12</wgt>
  <wgt id="353">4.15579e-12</wgt>
  <wgt id="354">3.94199e-12</wgt>
  <wgt id="355">4.02689e-12</wgt>
  <wgt id="356">4.00092e-12</wgt>
  <wgt id="357">4.00623e-12</wgt>
  <wgt id="358">3.99495e-12</wgt>
  <wgt id="359">4.00947e-12</wgt>
  <wgt id="360">4.04404e-12</wgt>
  <wgt id="361">4.01681e-12</wgt>
  <wgt id="362">4.09054e-12</wgt>
  <wgt id="363">4.08052e-12</wgt>
  <wgt id="364">4.06412e-12</wgt>
  <wgt id="365">4.04981e-12</wgt>
  <wgt id="366">4.0343e-12</wgt>
  <wgt id="367">4.00336e-12</wgt>
  <wgt id="368">3.98529e-12</wgt>
  <wgt id="369">3.96584e-12</wgt>
  <wgt id="370">4.01681e-12</wgt>
  <wgt id="371">4.03428e-12</wgt>
  <wgt id="372">4.02462e-12</wgt>
  <wgt id="373">4.01045e-12</wgt>
  <wgt id="374">4.01159e-12</wgt>
  <wgt id="375">4.39778e-12</wgt>
  <wgt id="376">4.39825e-12</wgt>
  <wgt id="377">4.39717e-12</wgt>
  <wgt id="378">4.41397e-12</wgt>
  <wgt id="379">4.38173e-12</wgt>
  <wgt id="380">4.40989e-12</wgt>
  <wgt id="381">4.39298e-12</wgt>
  <wgt id="382">4.4199e-12</wgt>
  <wgt id="383">4.3759e-12</wgt>
  <wgt id="384">4.40062e-12</wgt>
  <wgt id="385">4.39495e-12</wgt>
  <wgt id="386">4.41436e-12</wgt>
  <wgt id="387">4.39067e-12</wgt>
  <wgt id="388">4.39372e-12</wgt>
  <wgt id="389">4.40277e-12</wgt>
  <wgt id="390">4.4091e-12</wgt>
  <wgt id="391">4.38578e-12</wgt>
  <wgt id="392">4.36159e-12</wgt>
  <wgt id="393">4.4184e-12</wgt>
  <wgt id="394">4.40276e-12</wgt>
  <wgt id="395">4.39088e-12</wgt>
  <wgt id="396">4.40273e-12</wgt>
  <wgt id="397">4.39426e-12</wgt>
  <wgt id="398">4.38313e-12</wgt>
  <wgt id="399">4.41195e-12</wgt>
  <wgt id="400">4.39069e-12</wgt>
  <wgt id="401">4.41373e-12</wgt>
  <wgt id="402">4.36021e-12</wgt>
  <wgt id="403">4.41707e-12</wgt>
  <wgt id="404">4.50913e-12</wgt>
  <wgt id="405">4.1308e-12</wgt>
  <wgt id="406">4.31778e-12</wgt>
  <wgt id="407">4.57334e-12</wgt>
  <wgt id="408">4.43924e-12</wgt>
  <wgt id="409">4.31972e-12</wgt>
  <wgt id="410">4.26715e-12</wgt>
  <wgt id="411">4.45938e-12</wgt>
  <wgt id="412">4.38896e-12</wgt>
  <wgt id="413">4.41097e-12</wgt>
  <wgt id="414">4.34554e-12</wgt>
  <wgt id="415">4.43835e-12</wgt>
  <wgt id="416">4.52711e-12</wgt>
  <wgt id="417">4.21938e-12</wgt>
  <wgt id="418">4.40482e-12</wgt>
  <wgt id="419">4.35973e-12</wgt>
  <wgt id="420">4.47944e-12</wgt>
  <wgt id="421">4.34713e-12</wgt>
  <wgt id="422">4.38341e-12</wgt>
  <wgt id="423">4.40515e-12</wgt>
  <wgt id="424">4.5029e-12</wgt>
  <wgt id="425">4.32906e-12</wgt>
  <wgt id="426">4.39778e-12</wgt>
  <wgt id="427">4.3404e-12</wgt>
  <wgt id="428">4.54498e-12</wgt>
  <wgt id="429">4.44525e-12</wgt>
  <wgt id="430">4.57752e-12</wgt>
  <wgt id="431">4.55108e-12</wgt>
  <wgt id="432">4.52629e-12</wgt>
  <wgt id="433">4.50216e-12</wgt>
  <wgt id="434">4.47228e-12</wgt>
  <wgt id="435">4.4115e-12</wgt>
  <wgt id="436">4.3805e-12</wgt>
  <wgt id="437">4.35068e-12</wgt>
  <wgt id="438">4.44525e-12</wgt>
  <wgt id="439">4.45949e-12</wgt>
  <wgt id="440">4.45087e-12</wgt>
  <wgt id="441">4.44108e-12</wgt>
  <wgt id="442">4.43767e-12</wgt>
  <wgt id="443">4.19027e-12</wgt>
  <wgt id="444">4.22221e-12</wgt>
  <wgt id="445">4.19782e-12</wgt>
  <wgt id="446">4.16096e-12</wgt>
  <wgt id="447">4.18383e-12</wgt>
  <wgt id="448">4.08198e-12</wgt>
  <wgt id="449">4.26332e-12</wgt>
  <wgt id="450">4.20494e-12</wgt>
  <wgt id="451">4.181e-12</wgt>
  <wgt id="452">4.28501e-12</wgt>
  <wgt id="453">4.23297e-12</wgt>
  <wgt id="454">4.00199e-12</wgt>
  <wgt id="455">4.20764e-12</wgt>
  <wgt id="456">4.20495e-12</wgt>
  <wgt id="457">4.206e-12</wgt>
  <wgt id="458">4.25028e-12</wgt>
  <wgt id="459">4.22408e-12</wgt>
  <wgt id="460">4.23868e-12</wgt>
  <wgt id="461">4.10176e-12</wgt>
  <wgt id="462">4.1581e-12</wgt>
  <wgt id="463">4.13424e-12</wgt>
  <wgt id="464">4.1682e-12</wgt>
  <wgt id="465">4.236e-12</wgt>
  <wgt id="466">4.12248e-12</wgt>
  <wgt id="467">4.15165e-12</wgt>
  <wgt id="468">4.18116e-12</wgt>
  <wgt id="469">4.17988e-12</wgt>
  <wgt id="470">4.14085e-12</wgt>
  <wgt id="471">4.14708e-12</wgt>
  <wgt id="472">4.21282e-12</wgt>
  <wgt id="473">4.0543e-12</wgt>
  <wgt id="474">3.0282e-12</wgt>
  <wgt id="475">3.102e-12</wgt>
  <wgt id="476">2.98574e-12</wgt>
  <wgt id="477">2.99121e-12</wgt>
  <wgt id="478">3.05313e-12</wgt>
  <wgt id="479">2.94211e-12</wgt>
  <wgt id="480">3.1592e-12</wgt>
  <wgt id="481">3.01746e-12</wgt>
  <wgt id="482">2.98084e-12</wgt>
  <wgt id="483">2.96817e-12</wgt>
  <wgt id="484">3.14794e-12</wgt>
  <wgt id="485">2.91915e-12</wgt>
  <wgt id="486">3.16086e-12</wgt>
  <wgt id="487">3.02395e-12</wgt>
  <wgt id="488">3.0811e-12</wgt>
  <wgt id="489">2.83994e-12</wgt>
  <wgt id="490">2.91397e-12</wgt>
  <wgt id="491">3.00486e-12</wgt>
  <wgt id="492">2.96819e-12</wgt>
  <wgt id="493">2.8783e-12</wgt>
  <wgt id="494">2.90288e-12</wgt>
  <wgt id="495">3.04582e-12</wgt>
  <wgt id="496">2.91983e-12</wgt>
  <wgt id="497">2.88174e-12</wgt>
  <wgt id="498">3.10896e-12</wgt>
  <wgt id="499">3.00152e-12</wgt>
  <wgt id="500">2.96229e-12</wgt>
  <wgt id="501">3.15517e-12</wgt>
  <wgt id="502">3.03293e-12</wgt>
  <wgt id="503">3.01662e-12</wgt>
  <wgt id="504">3.09805e-12</wgt>
  <wgt id="505">3.04806e-12</wgt>
  <wgt id="506">2.9659e-12</wgt>
  <wgt id="507">3.02426e-12</wgt>
  <wgt id="508">3.13826e-12</wgt>
  <wgt id="509">2.8609e-12</wgt>
  <wgt id="510">3.09616e-12</wgt>
  <wgt id="511">2.92331e-12</wgt>
  <wgt id="512">3.14388e-12</wgt>
  <wgt id="513">3.14638e-12</wgt>
  <wgt id="514">3.0876e-12</wgt>
  <wgt id="515">3.03252e-12</wgt>
  <wgt id="516">3.2203e-12</wgt>
  <wgt id="517">3.09926e-12</wgt>
  <wgt id="518">3.11443e-12</wgt>
  <wgt id="519">2.92808e-12</wgt>
  <wgt id="520">3.08917e-12</wgt>
  <wgt id="521">3.07029e-12</wgt>
  <wgt id="522">3.16058e-12</wgt>
  <wgt id="523">2.98066e-12</wgt>
  <wgt id="524">3.02848e-12</wgt>
  <wgt id="525">3.08407e-12</wgt>
  <wgt id="526">3.09739e-12</wgt>
  <wgt id="527">3.0365e-12</wgt>
  <wgt id="528">3.04566e-12</wgt>
  <wgt id="529">2.96549e-12</wgt>
  <wgt id="530">3.12118e-12</wgt>
  <wgt id="531">2.95873e-12</wgt>
  <wgt id="532">3.23938e-12</wgt>
  <wgt id="533">2.91965e-12</wgt>
  <wgt id="534">2.99443e-12</wgt>
  <wgt id="535">3.03012e-12</wgt>
  <wgt id="536">3.04546e-12</wgt>
  <wgt id="537">2.98338e-12</wgt>
  <wgt id="538">3.04285e-12</wgt>
  <wgt id="539">2.96908e-12</wgt>
  <wgt id="540">3.07032e-12</wgt>
  <wgt id="541">2.96513e-12</wgt>
  <wgt id="542">2.99192e-12</wgt>
  <wgt id="543">2.99246e-12</wgt>
  <wgt id="544">3.13152e-12</wgt>
  <wgt id="545">2.94263e-12</wgt>
  <wgt id="546">2.90222e-12</wgt>
  <wgt id="547">2.94767e-12</wgt>
  <wgt id="548">2.90703e-12</wgt>
  <wgt id="549">2.97472e-12</wgt>
  <wgt id="550">2.97009e-12</wgt>
  <wgt id="551">3.06539e-12</wgt>
  <wgt id="552">2.88967e-12</wgt>
  <wgt id="553">2.95882e-12</wgt>
  <wgt id="554">3.22782e-12</wgt>
  <wgt id="555">3.10938e-12</wgt>
  <wgt id="556">2.91397e-12</wgt>
  <wgt id="557">3.10654e-12</wgt>
  <wgt id="558">2.96532e-12</wgt>
  <wgt id="559">2.97797e-12</wgt>
  <wgt id="560">3.33371e-12</wgt>
  <wgt id="561">3.01969e-12</wgt>
  <wgt id="562">3.12039e-12</wgt>
  <wgt id="563">3.12363e-12</wgt>
  <wgt id="564">3.1249e-12</wgt>
  <wgt id="565">2.99061e-12</wgt>
  <wgt id="566">3.0402e-12</wgt>
  <wgt id="567">3.00729e-12</wgt>
  <wgt id="568">2.98953e-12</wgt>
  <wgt id="569">3.06602e-12</wgt>
  <wgt id="570">2.90465e-12</wgt>
  <wgt id="571">3.35388e-12</wgt>
  <wgt id="572">2.96291e-12</wgt>
  <wgt id="573">2.92636e-12</wgt>
  <wgt id="574">2.93919e-12</wgt>
  <wgt id="575">3.34526e-12</wgt>
  <wgt id="576">3.45686e-12</wgt>
  <wgt id="577">3.45695e-12</wgt>
  <wgt id="578">3.4409e-12</wgt>
  <wgt id="579">3.44845e-12</wgt>
  <wgt id="580">3.49107e-12</wgt>
  <wgt id="581">3.63017e-12</wgt>
  <wgt id="582">3.43633e-12</wgt>
  <wgt id="583">3.38174e-12</wgt>
  <wgt id="584">3.32751e-12</wgt>
  <wgt id="585">3.23491e-12</wgt>
  <wgt id="586">3.21403e-12</wgt>
  <wgt id="587">3.40046e-12</wgt>
  <wgt id="588">3.43268e-12</wgt>
  <wgt id="589">3.50908e-12</wgt>
  <wgt id="590">3.34608e-12</wgt>
  <wgt id="591">3.45816e-12</wgt>
  <wgt id="592">3.13988e-12</wgt>
  <wgt id="593">3.29662e-12</wgt>
  <wgt id="594">3.37796e-12</wgt>
  <wgt id="595">3.40005e-12</wgt>
  <wgt id="596">3.59315e-12</wgt>
  <wgt id="597">3.31815e-12</wgt>
  <wgt id="598">3.24692e-12</wgt>
  <wgt id="599">3.50224e-12</wgt>
  <wgt id="600">3.39839e-12</wgt>
  <wgt id="601">3.23476e-12</wgt>
  <wgt id="602">3.24788e-12</wgt>
  <wgt id="603">3.22228e-12</wgt>
  <wgt id="604">3.40561e-12</wgt>
  <wgt id="605">3.44455e-12</wgt>
  <wgt id="606">3.35556e-12</wgt>
  <wgt id="607">3.38291e-12</wgt>
  <wgt id="608">3.42854e-12</wgt>
  <wgt id="609">3.23388e-12</wgt>
  <wgt id="610">3.22411e-12</wgt>
  <wgt id="611">3.29822e-12</wgt>
  <wgt id="612">3.54593e-12</wgt>
  <wgt id="613">3.27329e-12</wgt>
  <wgt id="614">3.34737e-12</wgt>
  <wgt id="615">3.32708e-12</wgt>
  <wgt id="616">3.40421e-12</wgt>
  <wgt id="617">3.45369e-12</wgt>
  <wgt id="618">3.58918e-12</wgt>
  <wgt id="619">3.29251e-12</wgt>
  <wgt id="620">3.46982e-12</wgt>
  <wgt id="621">3.33939e-12</wgt>
  <wgt id="622">3.40046e-12</wgt>
  <wgt id="623">3.41084e-12</wgt>
  <wgt id="624">3.35763e-12</wgt>
  <wgt id="625">3.2531e-12</wgt>
  <wgt id="626">3.15761e-12</wgt>
  <wgt id="627">3.14225e-12</wgt>
  <wgt id="628">3.40661e-12</wgt>
  <wgt id="629">3.31528e-12</wgt>
  <wgt id="630">3.24667e-12</wgt>
  <wgt id="631">3.38583e-12</wgt>
  <wgt id="632">3.14157e-12</wgt>
  <wgt id="633">3.32556e-12</wgt>
  <wgt id="634">3.27014e-12</wgt>
  <wgt id="635">3.16021e-12</wgt>
  <wgt id="636">3.38752e-12</wgt>
  <wgt id="637">3.34957e-12</wgt>
  <wgt id="638">3.21849e-12</wgt>
  <wgt id="639">3.26618e-12</wgt>
  <wgt id="640">3.32093e-12</wgt>
  <wgt id="641">3.43707e-12</wgt>
  <wgt id="642">3.22375e-12</wgt>
  <wgt id="643">3.30212e-12</wgt>
  <wgt id="644">3.06929e-12</wgt>
  <wgt id="645">3.35817e-12</wgt>
  <wgt id="646">3.2554e-12</wgt>
  <wgt id="647">3.32835e-12</wgt>
  <wgt id="648">3.42439e-12</wgt>
  <wgt id="649">3.3718e-12</wgt>
  <wgt id="650">3.2306e-12</wgt>
  <wgt id="651">3.48051e-12</wgt>
  <wgt id="652">3.2713e-12</wgt>
  <wgt id="653">3.23692e-12</wgt>
  <wgt id="654">3.31096e-12</wgt>
  <wgt id="655">3.2741e-12</wgt>
  <wgt id="656">3.34774e-12</wgt>
  <wgt id="657">3.57771e-12</wgt>
  <wgt id="658">3.3687e-12</wgt>
  <wgt id="659">3.20798e-12</wgt>
  <wgt id="660">3.34349e-12</wgt>
  <wgt id="661">3.2851e-12</wgt>
  <wgt id="662">3.31187e-12</wgt>
  <wgt id="663">3.37315e-12</wgt>
  <wgt id="664">3.33275e-12</wgt>
  <wgt id="665">3.33494e-12</wgt>
  <wgt id="666">3.29618e-12</wgt>
  <wgt id="667">3.4867e-12</wgt>
  <wgt id="668">3.33388e-12</wgt>
  <wgt id="669">3.39627e-12</wgt>
  <wgt id="670">3.46155e-12</wgt>
  <wgt id="671">3.34434e-12</wgt>
  <wgt id="672">3.21291e-12</wgt>
  <wgt id="673">3.43896e-12</wgt>
  <wgt id="674">3.2625e-12</wgt>
  <wgt id="675">3.28125e-12</wgt>
  <wgt id="676">4.27801e-12</wgt>
  <wgt id="677">4.32767e-12</wgt>
  <wgt id="678">4.56486e-12</wgt>
  <wgt id="679">4.12776e-12</wgt>
  <wgt id="680">4.24902e-12</wgt>
  <wgt id="681">4.28191e-12</wgt>
  <wgt id="682">4.4393e-12</wgt>
  <wgt id="683">4.12344e-12</wgt>
  <wgt id="684">4.47243e-12</wgt>
  <wgt id="685">4.16222e-12</wgt>
  <wgt id="686">4.18091e-12</wgt>
  <wgt id="687">4.45914e-12</wgt>
  <wgt id="688">4.18625e-12</wgt>
  <wgt id="689">4.52404e-12</wgt>
  <wgt id="690">4.43417e-12</wgt>
  <wgt id="691">4.45094e-12</wgt>
  <wgt id="692">4.21257e-12</wgt>
  <wgt id="693">5.26878e-12</wgt>
  <wgt id="694">4.60688e-12</wgt>
  <wgt id="695">4.10356e-12</wgt>
  <wgt id="696">4.10491e-12</wgt>
  <wgt id="697">4.02931e-12</wgt>
  <wgt id="698">3.75564e-12</wgt>
  <wgt id="699">3.75537e-12</wgt>
  <wgt id="700">3.75172e-12</wgt>
  <wgt id="701">4.28176e-12</wgt>
  <wgt id="702">4.18273e-12</wgt>
  <wgt id="703">5.05237e-12</wgt>
  <wgt id="704">4.75632e-12</wgt>
  <wgt id="705">4.64758e-12</wgt>
  <wgt id="706">4.02664e-12</wgt>
  <wgt id="707">4.06847e-12</wgt>
  <wgt id="708">4.17934e-12</wgt>
  <wgt id="709">4.17912e-12</wgt>
  <wgt id="710">3.83121e-12</wgt>
  <wgt id="711">4.3219e-12</wgt>
  <wgt id="712">4.11137e-12</wgt>
  <wgt id="713">4.61109e-12</wgt>
  <wgt id="714">4.05276e-12</wgt>
  <wgt id="715">4.1745e-12</wgt>
  <wgt id="716">4.12852e-12</wgt>
  <wgt id="717">3.9252e-12</wgt>
  <wgt id="718">4.33369e-12</wgt>
  <wgt id="719">3.87985e-12</wgt>
  <wgt id="720">4.17058e-12</wgt>
  <wgt id="721">3.78221e-12</wgt>
  <wgt id="722">3.62829e-12</wgt>
  <wgt id="723">4.6556e-12</wgt>
  <wgt id="724">4.54647e-12</wgt>
  <wgt id="725">4.48666e-12</wgt>
  <wgt id="726">4.28603e-12</wgt>
  <wgt id="727">4.22681e-12</wgt>
  <wgt id="728">4.15263e-12</wgt>
  <wgt id="729">4.07931e-12</wgt>
  <wgt id="730">4.65377e-12</wgt>
  <wgt id="731">4.20548e-12</wgt>
  <wgt id="732">4.81852e-12</wgt>
  <wgt id="733">4.13001e-12</wgt>
  <wgt id="734">4.39411e-12</wgt>
  <wgt id="735">4.30776e-12</wgt>
  <wgt id="736">4.09612e-12</wgt>
  <wgt id="737">4.24795e-12</wgt>
  <wgt id="738">4.07757e-12</wgt>
  <wgt id="739">4.49848e-12</wgt>
  <wgt id="740">4.86365e-12</wgt>
  <wgt id="741">4.03889e-12</wgt>
  <wgt id="742">4.21648e-12</wgt>
  <wgt id="743">3.99105e-12</wgt>
  <wgt id="744">4.1932e-12</wgt>
  <wgt id="745">4.54336e-12</wgt>
  <wgt id="746">4.64843e-12</wgt>
  <wgt id="747">3.72698e-12</wgt>
  <wgt id="748">4.19397e-12</wgt>
  <wgt id="749">4.46038e-12</wgt>
  <wgt id="750">4.52029e-12</wgt>
  <wgt id="751">4.34882e-12</wgt>
  <wgt id="752">3.89525e-12</wgt>
  <wgt id="753">3.9581e-12</wgt>
  <wgt id="754">4.45765e-12</wgt>
  <wgt id="755">4.24736e-12</wgt>
  <wgt id="756">4.23212e-12</wgt>
  <wgt id="757">3.84677e-12</wgt>
  <wgt id="758">4.23738e-12</wgt>
  <wgt id="759">4.58736e-12</wgt>
  <wgt id="760">4.23171e-12</wgt>
  <wgt id="761">4.5891e-12</wgt>
  <wgt id="762">4.61314e-12</wgt>
  <wgt id="763">4.28386e-12</wgt>
  <wgt id="764">4.49028e-12</wgt>
  <wgt id="765">4.32133e-12</wgt>
  <wgt id="766">4.29296e-12</wgt>
  <wgt id="767">4.36849e-12</wgt>
  <wgt id="768">3.97506e-12</wgt>
  <wgt id="769">4.53418e-12</wgt>
  <wgt id="770">4.14596e-12</wgt>
  <wgt id="771">5.12783e-12</wgt>
  <wgt id="772">4.10374e-12</wgt>
  <wgt id="773">4.25052e-12</wgt>
  <wgt id="774">3.5899e-12</wgt>
  <wgt id="775">4.48397e-12</wgt>
  <wgt id="776">4.71992e-12</wgt>
  <wgt id="777">3.95413e-12</wgt>
  <wgt id="778">3.01764e-12</wgt>
  <wgt id="779">2.23084e-12</wgt>
  <wgt id="780">1.6259e-12</wgt>
  <wgt id="781">3.41816e-12</wgt>
  <wgt id="782">3.41303e-12</wgt>
  <wgt id="783">2.19178e-12</wgt>
  <wgt id="784">2.43678e-12</wgt>
  <wgt id="785">4.06371e-12</wgt>
  <wgt id="786">2.11346e-12</wgt>
  <wgt id="787">3.6208e-12</wgt>
  <wgt id="788">1.39469e-12</wgt>
  <wgt id="789">2.36677e-12</wgt>
  <wgt id="790">2.07215e-12</wgt>
  <wgt id="791">3.12127e-12</wgt>
  <wgt id="792">4.02852e-12</wgt>
  <wgt id="793">2.95491e-12</wgt>
  <wgt id="794">1.99969e-12</wgt>
  <wgt id="795">3.79636e-12</wgt>
  <wgt id="796">4.06733e-12</wgt>
  <wgt id="797">3.74259e-12</wgt>
  <wgt id="798">2.57056e-12</wgt>
  <wgt id="799">3.56738e-12</wgt>
  <wgt id="800">2.44002e-12</wgt>
  <wgt id="801">2.7878e-12</wgt>
  <wgt id="802">1.97017e-12</wgt>
  <wgt id="803">4.49357e-12</wgt>
  <wgt id="804">3.77394e-12</wgt>
  <wgt id="805">3.76719e-12</wgt>
  <wgt id="806">3.29259e-12</wgt>
  <wgt id="807">2.88657e-12</wgt>
  <wgt id="808">2.88772e-12</wgt>
  <wgt id="809">2.76599e-12</wgt>
  <wgt id="810">3.36312e-12</wgt>
  <wgt id="811">3.23841e-12</wgt>
  <wgt id="812">2.07046e-12</wgt>
  <wgt id="813">2.18396e-12</wgt>
  <wgt id="814">2.35693e-12</wgt>
  <wgt id="815">2.19644e-12</wgt>
  <wgt id="816">2.09921e-12</wgt>
  <wgt id="817">3.08981e-12</wgt>
  <wgt id="818">3.40273e-12</wgt>
  <wgt id="819">2.22465e-12</wgt>
  <wgt id="820">2.94648e-12</wgt>
  <wgt id="821">3.5525e-12</wgt>
  <wgt id="822">2.41666e-12</wgt>
  <wgt id="823">3.64771e-12</wgt>
  <wgt id="824">4.37422e-12</wgt>
  <wgt id="825">1.91833e-12</wgt>
  <wgt id="826">3.43217e-12</wgt>
  <wgt id="827">1.60732e-12</wgt>
  <wgt id="828">3.86883e-12</wgt>
  <wgt id="829">3.12628e-12</wgt>
  <wgt id="830">1.81081e-12</wgt>
  <wgt id="831">3.37701e-12</wgt>
  <wgt id="832">5.15811e-12</wgt>
  <wgt id="833">2.61935e-12</wgt>
  <wgt id="834">4.93945e-12</wgt>
  <wgt id="835">2.33115e-12</wgt>
  <wgt id="836">2.75575e-12</wgt>
  <wgt id="837">3.48804e-12</wgt>
  <wgt id="838">2.67376e-12</wgt>
  <wgt id="839">3.35052e-12</wgt>
  <wgt id="840">2.69011e-12</wgt>
  <wgt id="841">3.9799e-12</wgt>
  <wgt id="842">2.81717e-12</wgt>
  <wgt id="843">3.12442e-12</wgt>
  <wgt id="844">3.23389e-12</wgt>
  <wgt id="845">4.76347e-12</wgt>
  <wgt id="846">3.10497e-12</wgt>
  <wgt id="847">3.12744e-12</wgt>
  <wgt id="848">2.27979e-12</wgt>
  <wgt id="849">3.16605e-12</wgt>
  <wgt id="850">4.24709e-12</wgt>
  <wgt id="851">3.42184e-12</wgt>
  <wgt id="852">2.13678e-12</wgt>
  <wgt id="853">3.50214e-12</wgt>
  <wgt id="854">3.90945e-12</wgt>
  <wgt id="855">3.61105e-12</wgt>
  <wgt id="856">1.82839e-12</wgt>
  <wgt id="857">2.85307e-12</wgt>
  <wgt id="858">2.83775e-12</wgt>
  <wgt id="859">2.85431e-12</wgt>
  <wgt id="860">3.55353e-12</wgt>
  <wgt id="861">2.58704e-12</wgt>
  <wgt id="862">3.06656e-12</wgt>
  <wgt id="863">3.33298e-12</wgt>
  <wgt id="864">3.17379e-12</wgt>
  <wgt id="865">4.58921e-12</wgt>
  <wgt id="866">5.06086e-12</wgt>
  <wgt id="867">3.08688e-12</wgt>
  <wgt id="868">3.03683e-12</wgt>
  <wgt id="869">2.07791e-12</wgt>
  <wgt id="870">2.26962e-12</wgt>
  <wgt id="871">2.20771e-12</wgt>
  <wgt id="872">3.9245e-12</wgt>
  <wgt id="873">2.47245e-12</wgt>
  <wgt id="874">3.26018e-12</wgt>
  <wgt id="875">2.50638e-12</wgt>
  <wgt id="876">3.84811e-12</wgt>
  <wgt id="877">3.46301e-12</wgt>
  <wgt id="878">2.44825e-12</wgt>
  <wgt id="879">4.27801e-12</wgt>
  <wgt id="880">4.32767e-12</wgt>
  <wgt id="881">4.56486e-12</wgt>
  <wgt id="882">4.12776e-12</wgt>
  <wgt id="883">4.24902e-12</wgt>
  <wgt id="884">4.28191e-12</wgt>
  <wgt id="885">4.4393e-12</wgt>
  <wgt id="886">4.12344e-12</wgt>
  <wgt id="887">4.47243e-12</wgt>
  <wgt id="888">4.16222e-12</wgt>
  <wgt id="889">4.18091e-12</wgt>
  <wgt id="890">4.45914e-12</wgt>
  <wgt id="891">4.18625e-12</wgt>
  <wgt id="892">4.52404e-12</wgt>
  <wgt id="893">4.43417e-12</wgt>
  <wgt id="894">4.45094e-12</wgt>
  <wgt id="895">4.21257e-12</wgt>
  <wgt id="896">5.26878e-12</wgt>
  <wgt id="897">4.60688e-12</wgt>
  <wgt id="898">4.10356e-12</wgt>
  <wgt id="899">4.10491e-12</wgt>
  <wgt id="900">4.02931e-12</wgt>
  <wgt id="901">3.75564e-12</wgt>
  <wgt id="902">3.75537e-12</wgt>
  <wgt id="903">3.75172e-12</wgt>
  <wgt id="904">4.28176e-12</wgt>
  <wgt id="905">4.18273e-12</wgt>
  <wgt id="906">5.05237e-12</wgt>
  <wgt id="907">4.75632e-12</wgt>
  <wgt id="908">4.64758e-12</wgt>
  <wgt id="909">4.02664e-12</wgt>
  <wgt id="910">4.06847e-12</wgt>
  <wgt id="911">4.17934e-12</wgt>
  <wgt id="912">4.17912e-12</wgt>
  <wgt id="913">3.83121e-12</wgt>
  <wgt id="914">4.3219e-12</wgt>
  <wgt id="915">4.11137e-12</wgt>
  <wgt id="916">4.61109e-12</wgt>
  <wgt id="917">4.05276e-12</wgt>
  <wgt id="918">4.1745e-12</wgt>
  <wgt id="919">4.12852e-12</wgt>
  <wgt id="920">3.9252e-12</wgt>
  <wgt id="921">4.33369e-12</wgt>
  <wgt id="922">3.87985e-12</wgt>
  <wgt id="923">4.17058e-12</wgt>
  <wgt id="924">3.78221e-12</wgt>
  <wgt id="925">3.62829e-12</wgt>
  <wgt id="926">4.6556e-12</wgt>
  <wgt id="927">4.54647e-12</wgt>
  <wgt id="928">4.48666e-12</wgt>
  <wgt id="929">4.28603e-12</wgt>
  <wgt id="930">4.22681e-12</wgt>
  <wgt id="931">4.15263e-12</wgt>
  <wgt id="932">4.07931e-12</wgt>
  <wgt id="933">4.65377e-12</wgt>
  <wgt id="934">4.20548e-12</wgt>
  <wgt id="935">4.81852e-12</wgt>
  <wgt id="936">4.13001e-12</wgt>
  <wgt id="937">4.39411e-12</wgt>
  <wgt id="938">4.30776e-12</wgt>
  <wgt id="939">4.09612e-12</wgt>
  <wgt id="940">4.24795e-12</wgt>
  <wgt id="941">4.07757e-12</wgt>
  <wgt id="942">4.49848e-12</wgt>
  <wgt id="943">4.86365e-12</wgt>
  <wgt id="944">4.03889e-12</wgt>
  <wgt id="945">4.21648e-12</wgt>
  <wgt id="946">3.99105e-12</wgt>
  <wgt id="947">4.1932e-12</wgt>
  <wgt id="948">4.54336e-12</wgt>
  <wgt id="949">4.64843e-12</wgt>
  <wgt id="950">3.72698e-12</wgt>
  <wgt id="951">4.19397e-12</wgt>
  <wgt id="952">4.46038e-12</wgt>
  <wgt id="953">4.52029e-12</wgt>
  <wgt id="954">4.34882e-12</wgt>
  <wgt id="955">3.89525e-12</wgt>
  <wgt id="956">3.9581e-12</wgt>
  <wgt id="957">4.45765e-12</wgt>
  <wgt id="958">4.24736e-12</wgt>
  <wgt id="959">4.23212e-12</wgt>
  <wgt id="960">3.84677e-12</wgt>
  <wgt id="961">4.23738e-12</wgt>
  <wgt id="962">4.58736e-12</wgt>
  <wgt id="963">4.23171e-12</wgt>
  <wgt id="964">4.5891e-12</wgt>
  <wgt id="965">4.61314e-12</wgt>
  <wgt id="966">4.28386e-12</wgt>
  <wgt id="967">4.49028e-12</wgt>
  <wgt id="968">4.32133e-12</wgt>
  <wgt id="969">4.29296e-12</wgt>
  <wgt id="970">4.36849e-12</wgt>
  <wgt id="971">3.97506e-12</wgt>
  <wgt id="972">4.53418e-12</wgt>
  <wgt id="973">4.14596e-12</wgt>
  <wgt id="974">5.12783e-12</wgt>
  <wgt id="975">4.10374e-12</wgt>
  <wgt id="976">4.25052e-12</wgt>
  <wgt id="977">3.5899e-12</wgt>
  <wgt id="978">4.48397e-12</wgt>
  <wgt id="979">4.71992e-12</wgt>
  <wgt id="980">4.26145e-12</wgt>
  <wgt id="981">4.32583e-12</wgt>
  <wgt id="982">4.14492e-12</wgt>
</rwgt>
</event>
<event>
 5   1  0.3028200E-11  0.2421037E+04  0.7818608E-02  0.7670388E-01
       21   -1    0    0  502  501  0.00000000000E+00  0.00000000000E+00  0.72094352814E+03  0.72094352814E+03  0.00000000000E+00 0. -1.
       21   -1    0    0  501  502 -0.00000000000E+00 -0.00000000000E+00 -0.20325514476E+04  0.20325514476E+04  0.00000000000E+00 0.  1.
       39    2    1    2    0    0  0.00000000000E+00  0.00000000000E+00 -0.13116079194E+04  0.27534949757E+04  0.24210368124E+04 0.  0.
       25    1    3    3    0    0  0.10026943013E+04 -0.66151280355E+03 -0.56246907948E+03  0.13322880757E+04  0.12500000000E+03 0.  0.
       25    1    3    3    0    0 -0.10026943013E+04  0.66151280355E+03 -0.74913883996E+03  0.14212069000E+04  0.12500000000E+03 0.  0.
<mgrwt>
<rscale>  0 0.24210368E+04</rscale>
<asrwt>0</asrwt>
<pdfrwt beam="1">  1       21 0.11091439E+00 0.24210368E+04</pdfrwt>
<pdfrwt beam="2">  1       21 0.31270022E+00 0.24210368E+04</pdfrwt>
<totfact> 0.61285851E+00</totfact>
</mgrwt>
<rwgt>
  <wgt id="1">3.0282e-12</wgt>
  <wgt id="2">2.61328e-12</wgt>
  <wgt id="3">3.54821e-12</wgt>
  <wgt id="4">3.0282e-12</wgt>
  <wgt id="5">2.61328e-12</wgt>
  <wgt id="6">3.54821e-12</wgt>
  <wgt id="7">3.0282e-12</wgt>
  <wgt id="8">2.61328e-12</wgt>
  <wgt id="9">3.54821e-12</wgt>
  <wgt id="10">3.18937e-12</wgt>
  <wgt id="11">3.18803e-12</wgt>
  <wgt id="12">3.18204e-12</wgt>
  <wgt id="13">3.18209e-12</wgt>
  <wgt id="14">3.2001e-12</wgt>
  <wgt id="15">3.19472e-12</wgt>
  <wgt id="16">3.18222e-12</wgt>
  <wgt id="17">3.20536e-12</wgt>
  <wgt id="18">3.1859e-12</wgt>
  <wgt id="19">3.20153e-12</wgt>
  <wgt id="20">3.18709e-12</wgt>
  <wgt id="21">3.16385e-12</wgt>
  <wgt id="22">3.16696e-12</wgt>
  <wgt id="23">3.14149e-12</wgt>
  <wgt id="24">3.16536e-12</wgt>
  <wgt id="25">3.177e-12</wgt>
  <wgt id="26">3.19878e-12</wgt>
  <wgt id="27">3.18351e-12</wgt>
  <wgt id="28">3.16877e-12</wgt>
  <wgt id="29">3.1906e-12</wgt>
  <wgt id="30">3.16414e-12</wgt>
  <wgt id="31">3.20391e-12</wgt>
  <wgt id="32">3.16673e-12</wgt>
  <wgt id="33">3.19404e-12</wgt>
  <wgt id="34">3.16902e-12</wgt>
  <wgt id="35">3.16916e-12</wgt>
  <wgt id="36">3.20437e-12</wgt>
  <wgt id="37">3.17849e-12</wgt>
  <wgt id="38">3.17614e-12</wgt>
  <wgt id="39">3.24529e-12</wgt>
  <wgt id="40">3.19324e-12</wgt>
  <wgt id="41">3.18699e-12</wgt>
  <wgt id="42">3.19705e-12</wgt>
  <wgt id="43">3.19171e-12</wgt>
  <wgt id="44">3.20179e-12</wgt>
  <wgt id="45">3.19356e-12</wgt>
  <wgt id="46">3.17787e-12</wgt>
  <wgt id="47">3.21455e-12</wgt>
  <wgt id="48">3.20557e-12</wgt>
  <wgt id="49">3.17454e-12</wgt>
  <wgt id="50">3.1668e-12</wgt>
  <wgt id="51">3.17214e-12</wgt>
  <wgt id="52">3.19575e-12</wgt>
  <wgt id="53">3.21292e-12</wgt>
  <wgt id="54">3.20296e-12</wgt>
  <wgt id="55">3.18826e-12</wgt>
  <wgt id="56">3.1789e-12</wgt>
  <wgt id="57">3.17428e-12</wgt>
  <wgt id="58">3.18553e-12</wgt>
  <wgt id="59">3.19283e-12</wgt>
  <wgt id="60">3.16791e-12</wgt>
  <wgt id="61">3.17069e-12</wgt>
  <wgt id="62">3.18125e-12</wgt>
  <wgt id="63">3.18624e-12</wgt>
  <wgt id="64">3.1871e-12</wgt>
  <wgt id="65">3.1793e-12</wgt>
  <wgt id="66">3.19114e-12</wgt>
  <wgt id="67">3.18228e-12</wgt>
  <wgt id="68">3.18848e-12</wgt>
  <wgt id="69">3.18431e-12</wgt>
  <wgt id="70">3.18199e-12</wgt>
  <wgt id="71">3.18669e-12</wgt>
  <wgt id="72">3.17124e-12</wgt>
  <wgt id="73">3.20216e-12</wgt>
  <wgt id="74">3.1996e-12</wgt>
  <wgt id="75">3.18929e-12</wgt>
  <wgt id="76">3.20931e-12</wgt>
  <wgt id="77">3.18383e-12</wgt>
  <wgt id="78">3.18638e-12</wgt>
  <wgt id="79">3.19804e-12</wgt>
  <wgt id="80">3.16393e-12</wgt>
  <wgt id="81">3.18892e-12</wgt>
  <wgt id="82">3.19208e-12</wgt>
  <wgt id="83">3.17031e-12</wgt>
  <wgt id="84">3.18041e-12</wgt>
  <wgt id="85">3.17739e-12</wgt>
  <wgt id="86">3.20129e-12</wgt>
  <wgt id="87">3.16137e-12</wgt>
  <wgt id="88">3.19737e-12</wgt>
  <wgt id="89">3.19421e-12</wgt>
  <wgt id="90">3.2007e-12</wgt>
  <wgt id="91">3.19333e-12</wgt>
  <wgt id="92">3.19789e-12</wgt>
  <wgt id="93">3.19361e-12</wgt>
  <wgt id="94">3.18164e-12</wgt>
  <wgt id="95">3.20047e-12</wgt>
  <wgt id="96">3.19669e-12</wgt>
  <wgt id="97">3.17743e-12</wgt>
  <wgt id="98">3.18923e-12</wgt>
  <wgt id="99">3.18348e-12</wgt>
  <wgt id="100">3.19711e-12</wgt>
  <wgt id="101">3.18655e-12</wgt>
  <wgt id="102">3.18455e-12</wgt>
  <wgt id="103">3.2004e-12</wgt>
  <wgt id="104">3.18349e-12</wgt>
  <wgt id="105">3.19597e-12</wgt>
  <wgt id="106">3.18137e-12</wgt>
  <wgt id="107">3.20752e-12</wgt>
  <wgt id="108">3.18336e-12</wgt>
  <wgt id="109">3.19268e-12</wgt>
  <wgt id="110">3.18791e-12</wgt>
  <wgt id="111">3.19886e-12</wgt>
  <wgt id="112">3.22536e-12</wgt>
  <wgt id="113">4.57553e-12</wgt>
  <wgt id="114">4.32596e-12</wgt>
  <wgt id="115">4.24876e-12</wgt>
  <wgt id="116">5.96843e-12</wgt>
  <wgt id="117">3.54473e-12</wgt>
  <wgt id="118">3.55841e-12</wgt>
  <wgt id="119">3.53694e-12</wgt>
  <wgt id="120">3.54485e-12</wgt>
  <wgt id="121">3.54465e-12</wgt>
  <wgt id="122">3.53913e-12</wgt>
  <wgt id="123">3.55253e-12</wgt>
  <wgt id="124">3.54004e-12</wgt>
  <wgt id="125">3.54778e-12</wgt>
  <wgt id="126">3.55049e-12</wgt>
  <wgt id="127">3.54089e-12</wgt>
  <wgt id="128">3.55559e-12</wgt>
  <wgt id="129">3.53393e-12</wgt>
  <wgt id="130">3.5631e-12</wgt>
  <wgt id="131">3.52574e-12</wgt>
  <wgt id="132">3.44597e-12</wgt>
  <wgt id="133">3.66254e-12</wgt>
  <wgt id="134">3.50568e-12</wgt>
  <wgt id="135">3.57539e-12</wgt>
  <wgt id="136">3.59886e-12</wgt>
  <wgt id="137">3.47967e-12</wgt>
  <wgt id="138">3.70564e-12</wgt>
  <wgt id="139">3.3919e-12</wgt>
  <wgt id="140">3.52683e-12</wgt>
  <wgt id="141">3.55837e-12</wgt>
  <wgt id="142">3.54406e-12</wgt>
  <wgt id="143">3.55509e-12</wgt>
  <wgt id="144">3.40037e-12</wgt>
  <wgt id="145">3.68463e-12</wgt>
  <wgt id="146">3.59115e-12</wgt>
  <wgt id="147">3.50692e-12</wgt>
  <wgt id="148">3.5578e-12</wgt>
  <wgt id="149">3.54381e-12</wgt>
  <wgt id="150">3.57524e-12</wgt>
  <wgt id="151">3.53046e-12</wgt>
  <wgt id="152">3.54595e-12</wgt>
  <wgt id="153">3.54432e-12</wgt>
  <wgt id="154">3.55569e-12</wgt>
  <wgt id="155">3.52598e-12</wgt>
  <wgt id="156">3.66122e-12</wgt>
  <wgt id="157">3.43766e-12</wgt>
  <wgt id="158">4.24927e-12</wgt>
  <wgt id="159">4.26734e-12</wgt>
  <wgt id="160">4.23469e-12</wgt>
  <wgt id="161">4.23797e-12</wgt>
  <wgt id="162">4.26183e-12</wgt>
  <wgt id="163">4.24424e-12</wgt>
  <wgt id="164">4.25666e-12</wgt>
  <wgt id="165">4.25087e-12</wgt>
  <wgt id="166">4.24799e-12</wgt>
  <wgt id="167">4.24627e-12</wgt>
  <wgt id="168">4.25334e-12</wgt>
  <wgt id="169">4.23191e-12</wgt>
  <wgt id="170">4.26003e-12</wgt>
  <wgt id="171">4.2455e-12</wgt>
  <wgt id="172">4.25451e-12</wgt>
  <wgt id="173">4.24255e-12</wgt>
  <wgt id="174">4.25147e-12</wgt>
  <wgt id="175">4.12306e-12</wgt>
  <wgt id="176">4.4148e-12</wgt>
  <wgt id="177">4.27042e-12</wgt>
  <wgt id="178">4.23001e-12</wgt>
  <wgt id="179">4.46457e-12</wgt>
  <wgt id="180">3.91689e-12</wgt>
  <wgt id="181">4.10682e-12</wgt>
  <wgt id="182">4.34417e-12</wgt>
  <wgt id="183">4.16282e-12</wgt>
  <wgt id="184">4.29218e-12</wgt>
  <wgt id="185">4.20323e-12</wgt>
  <wgt id="186">4.30519e-12</wgt>
  <wgt id="187">4.20247e-12</wgt>
  <wgt id="188">4.3321e-12</wgt>
  <wgt id="189">4.21601e-12</wgt>
  <wgt id="190">4.2627e-12</wgt>
  <wgt id="191">4.26413e-12</wgt>
  <wgt id="192">4.24047e-12</wgt>
  <wgt id="193">4.32092e-12</wgt>
  <wgt id="194">4.21333e-12</wgt>
  <wgt id="195">4.09652e-12</wgt>
  <wgt id="196">4.50031e-12</wgt>
  <wgt id="197">4.27252e-12</wgt>
  <wgt id="198">4.24367e-12</wgt>
  <wgt id="199">4.24927e-12</wgt>
  <wgt id="200">4.29055e-12</wgt>
  <wgt id="201">4.27636e-12</wgt>
  <wgt id="202">4.26263e-12</wgt>
  <wgt id="203">4.2427e-12</wgt>
  <wgt id="204">4.23273e-12</wgt>
  <wgt id="205">4.2246e-12</wgt>
  <wgt id="206">4.14285e-12</wgt>
  <wgt id="207">4.16778e-12</wgt>
  <wgt id="208">4.11822e-12</wgt>
  <wgt id="209">4.15627e-12</wgt>
  <wgt id="210">4.13307e-12</wgt>
  <wgt id="211">4.14123e-12</wgt>
  <wgt id="212">4.14412e-12</wgt>
  <wgt id="213">4.14249e-12</wgt>
  <wgt id="214">4.1434e-12</wgt>
  <wgt id="215">4.14616e-12</wgt>
  <wgt id="216">4.14047e-12</wgt>
  <wgt id="217">4.15322e-12</wgt>
  <wgt id="218">4.13488e-12</wgt>
  <wgt id="219">4.13852e-12</wgt>
  <wgt id="220">4.14546e-12</wgt>
  <wgt id="221">4.14372e-12</wgt>
  <wgt id="222">4.13993e-12</wgt>
  <wgt id="223">3.90433e-12</wgt>
  <wgt id="224">4.36166e-12</wgt>
  <wgt id="225">4.09014e-12</wgt>
  <wgt id="226">4.20981e-12</wgt>
  <wgt id="227">4.10208e-12</wgt>
  <wgt id="228">4.16072e-12</wgt>
  <wgt id="229">4.08229e-12</wgt>
  <wgt id="230">4.17296e-12</wgt>
  <wgt id="231">4.28275e-12</wgt>
  <wgt id="232">4.02852e-12</wgt>
  <wgt id="233">4.11695e-12</wgt>
  <wgt id="234">4.18601e-12</wgt>
  <wgt id="235">3.98174e-12</wgt>
  <wgt id="236">4.27566e-12</wgt>
  <wgt id="237">4.04766e-12</wgt>
  <wgt id="238">4.17461e-12</wgt>
  <wgt id="239">4.1042e-12</wgt>
  <wgt id="240">4.21214e-12</wgt>
  <wgt id="241">4.09244e-12</wgt>
  <wgt id="242">4.20286e-12</wgt>
  <wgt id="243">4.21594e-12</wgt>
  <wgt id="244">4.146e-12</wgt>
  <wgt id="245">4.14105e-12</wgt>
  <wgt id="246">4.1674e-12</wgt>
  <wgt id="247">4.14285e-12</wgt>
  <wgt id="248">4.18671e-12</wgt>
  <wgt id="249">4.17145e-12</wgt>
  <wgt id="250">4.15564e-12</wgt>
  <wgt id="251">4.1341e-12</wgt>
  <wgt id="252">4.12313e-12</wgt>
  <wgt id="253">4.11559e-12</wgt>
  <wgt id="254">4.00596e-12</wgt>
  <wgt id="255">4.00963e-12</wgt>
  <wgt id="256">4.00201e-12</wgt>
  <wgt id="257">4.00904e-12</wgt>
  <wgt id="258">4.00373e-12</wgt>
  <wgt id="259">4.03291e-12</wgt>
  <wgt id="260">3.97995e-12</wgt>
  <wgt id="261">4.01296e-12</wgt>
  <wgt id="262">3.9977e-12</wgt>
  <wgt id="263">4.00307e-12</wgt>
  <wgt id="264">4.00941e-12</wgt>
  <wgt id="265">4.00088e-12</wgt>
  <wgt id="266">4.01622e-12</wgt>
  <wgt id="267">4.00737e-12</wgt>
  <wgt id="268">4.00398e-12</wgt>
  <wgt id="269">4.01911e-12</wgt>
  <wgt id="270">3.99706e-12</wgt>
  <wgt id="271">3.99578e-12</wgt>
  <wgt id="272">4.01732e-12</wgt>
  <wgt id="273">3.9946e-12</wgt>
  <wgt id="274">4.01464e-12</wgt>
  <wgt id="275">3.98236e-12</wgt>
  <wgt id="276">4.03041e-12</wgt>
  <wgt id="277">3.98233e-12</wgt>
  <wgt id="278">4.02755e-12</wgt>
  <wgt id="279">3.92831e-12</wgt>
  <wgt id="280">4.10383e-12</wgt>
  <wgt id="281">3.98652e-12</wgt>
  <wgt id="282">4.01085e-12</wgt>
  <wgt id="283">3.87433e-12</wgt>
  <wgt id="284">4.17019e-12</wgt>
  <wgt id="285">3.78934e-12</wgt>
  <wgt id="286">4.18888e-12</wgt>
  <wgt id="287">4.02018e-12</wgt>
  <wgt id="288">3.98779e-12</wgt>
  <wgt id="289">4.0385e-12</wgt>
  <wgt id="290">3.93371e-12</wgt>
  <wgt id="291">3.99074e-12</wgt>
  <wgt id="292">4.00673e-12</wgt>
  <wgt id="293">3.9706e-12</wgt>
  <wgt id="294">4.04116e-12</wgt>
  <wgt id="295">3.92054e-12</wgt>
  <wgt id="296">4.11072e-12</wgt>
  <wgt id="297">3.99692e-12</wgt>
  <wgt id="298">4.02655e-12</wgt>
  <wgt id="299">3.99203e-12</wgt>
  <wgt id="300">4.04308e-12</wgt>
  <wgt id="301">3.92419e-12</wgt>
  <wgt id="302">4.19501e-12</wgt>
  <wgt id="303">3.96188e-12</wgt>
  <wgt id="304">4.0307e-12</wgt>
  <wgt id="305">3.97642e-12</wgt>
  <wgt id="306">3.98024e-12</wgt>
  <wgt id="307">3.97235e-12</wgt>
  <wgt id="308">3.97979e-12</wgt>
  <wgt id="309">3.97416e-12</wgt>
  <wgt id="310">4.00396e-12</wgt>
  <wgt id="311">3.95097e-12</wgt>
  <wgt id="312">3.9827e-12</wgt>
  <wgt id="313">3.96976e-12</wgt>
  <wgt id="314">3.97339e-12</wgt>
  <wgt id="315">3.97929e-12</wgt>
  <wgt id="316">3.9713e-12</wgt>
  <wgt id="317">3.98748e-12</wgt>
  <wgt id="318">3.9795e-12</wgt>
  <wgt id="319">3.971e-12</wgt>
  <wgt id="320">3.99048e-12</wgt>
  <wgt id="321">3.96856e-12</wgt>
  <wgt id="322">3.96502e-12</wgt>
  <wgt id="323">3.98963e-12</wgt>
  <wgt id="324">3.96772e-12</wgt>
  <wgt id="325">3.984e-12</wgt>
  <wgt id="326">3.95711e-12</wgt>
  <wgt id="327">4.00119e-12</wgt>
  <wgt id="328">3.95562e-12</wgt>
  <wgt id="329">3.98798e-12</wgt>
  <wgt id="330">4.09405e-12</wgt>
  <wgt id="331">3.86464e-12</wgt>
  <wgt id="332">3.96024e-12</wgt>
  <wgt id="333">3.9794e-12</wgt>
  <wgt id="334">3.87583e-12</wgt>
  <wgt id="335">4.10261e-12</wgt>
  <wgt id="336">3.8224e-12</wgt>
  <wgt id="337">4.16722e-12</wgt>
  <wgt id="338">4.02591e-12</wgt>
  <wgt id="339">3.93082e-12</wgt>
  <wgt id="340">4.00595e-12</wgt>
  <wgt id="341">3.90338e-12</wgt>
  <wgt id="342">3.96546e-12</wgt>
  <wgt id="343">3.96926e-12</wgt>
  <wgt id="344">3.94537e-12</wgt>
  <wgt id="345">4.01254e-12</wgt>
  <wgt id="346">3.88891e-12</wgt>
  <wgt id="347">4.07692e-12</wgt>
  <wgt id="348">3.96806e-12</wgt>
  <wgt id="349">3.99488e-12</wgt>
  <wgt id="350">3.95918e-12</wgt>
  <wgt id="351">4.02023e-12</wgt>
  <wgt id="352">3.89214e-12</wgt>
  <wgt id="353">4.1628e-12</wgt>
  <wgt id="354">3.91311e-12</wgt>
  <wgt id="355">4.0141e-12</wgt>
  <wgt id="356">4.00596e-12</wgt>
  <wgt id="357">3.98121e-12</wgt>
  <wgt id="358">3.97642e-12</wgt>
  <wgt id="359">4.00727e-12</wgt>
  <wgt id="360">4.07094e-12</wgt>
  <wgt id="361">4.02616e-12</wgt>
  <wgt id="362">4.10737e-12</wgt>
  <wgt id="363">4.0966e-12</wgt>
  <wgt id="364">4.07682e-12</wgt>
  <wgt id="365">4.06108e-12</wgt>
  <wgt id="366">4.04482e-12</wgt>
  <wgt id="367">4.01368e-12</wgt>
  <wgt id="368">3.99427e-12</wgt>
  <wgt id="369">3.97334e-12</wgt>
  <wgt id="370">4.02616e-12</wgt>
  <wgt id="371">4.04335e-12</wgt>
  <wgt id="372">4.0337e-12</wgt>
  <wgt id="373">4.02005e-12</wgt>
  <wgt id="374">4.02426e-12</wgt>
  <wgt id="375">4.56264e-12</wgt>
  <wgt id="376">4.56309e-12</wgt>
  <wgt id="377">4.56206e-12</wgt>
  <wgt id="378">4.57998e-12</wgt>
  <wgt id="379">4.54546e-12</wgt>
  <wgt id="380">4.57558e-12</wgt>
  <wgt id="381">4.5575e-12</wgt>
  <wgt id="382">4.58521e-12</wgt>
  <wgt id="383">4.54034e-12</wgt>
  <wgt id="384">4.56563e-12</wgt>
  <wgt id="385">4.55981e-12</wgt>
  <wgt id="386">4.57897e-12</wgt>
  <wgt id="387">4.55564e-12</wgt>
  <wgt id="388">4.5585e-12</wgt>
  <wgt id="389">4.5678e-12</wgt>
  <wgt id="390">4.57377e-12</wgt>
  <wgt id="391">4.55081e-12</wgt>
  <wgt id="392">4.52093e-12</wgt>
  <wgt id="393">4.58633e-12</wgt>
  <wgt id="394">4.56653e-12</wgt>
  <wgt id="395">4.55716e-12</wgt>
  <wgt id="396">4.57046e-12</wgt>
  <wgt id="397">4.55706e-12</wgt>
  <wgt id="398">4.55113e-12</wgt>
  <wgt id="399">4.57381e-12</wgt>
  <wgt id="400">4.55499e-12</wgt>
  <wgt id="401">4.57986e-12</wgt>
  <wgt id="402">4.51966e-12</wgt>
  <wgt id="403">4.58873e-12</wgt>
  <wgt id="404">4.69464e-12</wgt>
  <wgt id="405">4.249e-12</wgt>
  <wgt id="406">4.46801e-12</wgt>
  <wgt id="407">4.7727e-12</wgt>
  <wgt id="408">4.61216e-12</wgt>
  <wgt id="409">4.47114e-12</wgt>
  <wgt id="410">4.40912e-12</wgt>
  <wgt id="411">4.63645e-12</wgt>
  <wgt id="412">4.55207e-12</wgt>
  <wgt id="413">4.5785e-12</wgt>
  <wgt id="414">4.50143e-12</wgt>
  <wgt id="415">4.61027e-12</wgt>
  <wgt id="416">4.71882e-12</wgt>
  <wgt id="417">4.34853e-12</wgt>
  <wgt id="418">4.57162e-12</wgt>
  <wgt id="419">4.51452e-12</wgt>
  <wgt id="420">4.67392e-12</wgt>
  <wgt id="421">4.48972e-12</wgt>
  <wgt id="422">4.53611e-12</wgt>
  <wgt id="423">4.57522e-12</wgt>
  <wgt id="424">4.69861e-12</wgt>
  <wgt id="425">4.47124e-12</wgt>
  <wgt id="426">4.56264e-12</wgt>
  <wgt id="427">4.47639e-12</wgt>
  <wgt id="428">4.76511e-12</wgt>
  <wgt id="429">4.62425e-12</wgt>
  <wgt id="430">4.7776e-12</wgt>
  <wgt id="431">4.74637e-12</wgt>
  <wgt id="432">4.71804e-12</wgt>
  <wgt id="433">4.69026e-12</wgt>
  <wgt id="434">4.65491e-12</wgt>
  <wgt id="435">4.58581e-12</wgt>
  <wgt id="436">4.55089e-12</wgt>
  <wgt id="437">4.51694e-12</wgt>
  <wgt id="438">4.62425e-12</wgt>
  <wgt id="439">4.63858e-12</wgt>
  <wgt id="440">4.62971e-12</wgt>
  <wgt id="441">4.62037e-12</wgt>
  <wgt id="442">4.61733e-12</wgt>
  <wgt id="443">4.20614e-12</wgt>
  <wgt id="444">4.24863e-12</wgt>
  <wgt id="445">4.23917e-12</wgt>
  <wgt id="446">4.17534e-12</wgt>
  <wgt id="447">4.20411e-12</wgt>
  <wgt id="448">4.09854e-12</wgt>
  <wgt id="449">4.29349e-12</wgt>
  <wgt id="450">4.24997e-12</wgt>
  <wgt id="451">4.19441e-12</wgt>
  <wgt id="452">4.30358e-12</wgt>
  <wgt id="453">4.25972e-12</wgt>
  <wgt id="454">3.98862e-12</wgt>
  <wgt id="455">4.23715e-12</wgt>
  <wgt id="456">4.26939e-12</wgt>
  <wgt id="457">4.22186e-12</wgt>
  <wgt id="458">4.27874e-12</wgt>
  <wgt id="459">4.24426e-12</wgt>
  <wgt id="460">4.28302e-12</wgt>
  <wgt id="461">4.10323e-12</wgt>
  <wgt id="462">4.17255e-12</wgt>
  <wgt id="463">4.13914e-12</wgt>
  <wgt id="464">4.1836e-12</wgt>
  <wgt id="465">4.25426e-12</wgt>
  <wgt id="466">4.10903e-12</wgt>
  <wgt id="467">4.16958e-12</wgt>
  <wgt id="468">4.20083e-12</wgt>
  <wgt id="469">4.19384e-12</wgt>
  <wgt id="470">4.14193e-12</wgt>
  <wgt id="471">4.1528e-12</wgt>
  <wgt id="472">4.23553e-12</wgt>
  <wgt id="473">4.05855e-12</wgt>
  <wgt id="474">3.0282e-12</wgt>
  <wgt id="475">3.0425e-12</wgt>
  <wgt id="476">3.00788e-12</wgt>
  <wgt id="477">3.07471e-12</wgt>
  <wgt id="478">3.06506e-12</wgt>
  <wgt id="479">2.88827e-12</wgt>
  <wgt id="480">3.18317e-12</wgt>
  <wgt id="481">3.04072e-12</wgt>
  <wgt id="482">3.01971e-12</wgt>
  <wgt id="483">3.02487e-12</wgt>
  <wgt id="484">3.16408e-12</wgt>
  <wgt id="485">2.80215e-12</wgt>
  <wgt id="486">3.17808e-12</wgt>
  <wgt id="487">2.96011e-12</wgt>
  <wgt id="488">3.06197e-12</wgt>
  <wgt id="489">2.73984e-12</wgt>
  <wgt id="490">2.96525e-12</wgt>
  <wgt id="491">2.98839e-12</wgt>
  <wgt id="492">2.97322e-12</wgt>
  <wgt id="493">2.81104e-12</wgt>
  <wgt id="494">2.82652e-12</wgt>
  <wgt id="495">3.04024e-12</wgt>
  <wgt id="496">2.88036e-12</wgt>
  <wgt id="497">2.83536e-12</wgt>
  <wgt id="498">3.11607e-12</wgt>
  <wgt id="499">3.04193e-12</wgt>
  <wgt id="500">2.979e-12</wgt>
  <wgt id="501">3.15756e-12</wgt>
  <wgt id="502">3.12505e-12</wgt>
  <wgt id="503">2.97984e-12</wgt>
  <wgt id="504">3.12517e-12</wgt>
  <wgt id="505">3.1362e-12</wgt>
  <wgt id="506">2.84159e-12</wgt>
  <wgt id="507">2.98728e-12</wgt>
  <wgt id="508">3.18161e-12</wgt>
  <wgt id="509">2.91029e-12</wgt>
  <wgt id="510">3.06581e-12</wgt>
  <wgt id="511">2.87917e-12</wgt>
  <wgt id="512">3.22195e-12</wgt>
  <wgt id="513">3.15901e-12</wgt>
  <wgt id="514">3.1758e-12</wgt>
  <wgt id="515">3.09463e-12</wgt>
  <wgt id="516">3.32626e-12</wgt>
  <wgt id="517">3.10261e-12</wgt>
  <wgt id="518">3.13702e-12</wgt>
  <wgt id="519">2.90559e-12</wgt>
  <wgt id="520">3.07807e-12</wgt>
  <wgt id="521">2.9826e-12</wgt>
  <wgt id="522">3.15575e-12</wgt>
  <wgt id="523">2.89885e-12</wgt>
  <wgt id="524">3.08179e-12</wgt>
  <wgt id="525">2.99184e-12</wgt>
  <wgt id="526">3.17037e-12</wgt>
  <wgt id="527">3.00022e-12</wgt>
  <wgt id="528">3.02558e-12</wgt>
  <wgt id="529">2.90298e-12</wgt>
  <wgt id="530">3.17315e-12</wgt>
  <wgt id="531">2.9099e-12</wgt>
  <wgt id="532">3.28307e-12</wgt>
  <wgt id="533">2.99147e-12</wgt>
  <wgt id="534">2.92486e-12</wgt>
  <wgt id="535">3.05715e-12</wgt>
  <wgt id="536">3.1207e-12</wgt>
  <wgt id="537">2.89502e-12</wgt>
  <wgt id="538">3.012e-12</wgt>
  <wgt id="539">2.95518e-12</wgt>
  <wgt id="540">3.18831e-12</wgt>
  <wgt id="541">3.01299e-12</wgt>
  <wgt id="542">2.96788e-12</wgt>
  <wgt id="543">2.93221e-12</wgt>
  <wgt id="544">3.07167e-12</wgt>
  <wgt id="545">2.87768e-12</wgt>
  <wgt id="546">2.8121e-12</wgt>
  <wgt id="547">2.92332e-12</wgt>
  <wgt id="548">2.91877e-12</wgt>
  <wgt id="549">2.96747e-12</wgt>
  <wgt id="550">2.95286e-12</wgt>
  <wgt id="551">3.0458e-12</wgt>
  <wgt id="552">2.80227e-12</wgt>
  <wgt id="553">2.86252e-12</wgt>
  <wgt id="554">3.19572e-12</wgt>
  <wgt id="555">3.10428e-12</wgt>
  <wgt id="556">2.96525e-12</wgt>
  <wgt id="557">3.098e-12</wgt>
  <wgt id="558">2.98846e-12</wgt>
  <wgt id="559">3.04589e-12</wgt>
  <wgt id="560">3.35629e-12</wgt>
  <wgt id="561">3.08764e-12</wgt>
  <wgt id="562">3.13782e-12</wgt>
  <wgt id="563">3.30938e-12</wgt>
  <wgt id="564">3.19055e-12</wgt>
  <wgt id="565">3.10363e-12</wgt>
  <wgt id="566">2.9525e-12</wgt>
  <wgt id="567">3.02183e-12</wgt>
  <wgt id="568">2.92983e-12</wgt>
  <wgt id="569">3.05178e-12</wgt>
  <wgt id="570">2.99456e-12</wgt>
  <wgt id="571">3.36186e-12</wgt>
  <wgt id="572">2.92827e-12</wgt>
  <wgt id="573">2.93569e-12</wgt>
  <wgt id="574">2.95156e-12</wgt>
  <wgt id="575">3.35408e-12</wgt>
  <wgt id="576">3.62249e-12</wgt>
  <wgt id="577">3.49801e-12</wgt>
  <wgt id="578">3.40833e-12</wgt>
  <wgt id="579">3.48217e-12</wgt>
  <wgt id="580">3.56407e-12</wgt>
  <wgt id="581">3.69592e-12</wgt>
  <wgt id="582">3.56018e-12</wgt>
  <wgt id="583">3.41601e-12</wgt>
  <wgt id="584">3.3209e-12</wgt>
  <wgt id="585">3.12886e-12</wgt>
  <wgt id="586">3.16209e-12</wgt>
  <wgt id="587">3.41681e-12</wgt>
  <wgt id="588">3.63262e-12</wgt>
  <wgt id="589">3.64609e-12</wgt>
  <wgt id="590">3.33354e-12</wgt>
  <wgt id="591">3.45256e-12</wgt>
  <wgt id="592">3.12916e-12</wgt>
  <wgt id="593">3.25978e-12</wgt>
  <wgt id="594">3.2944e-12</wgt>
  <wgt id="595">3.50501e-12</wgt>
  <wgt id="596">3.91271e-12</wgt>
  <wgt id="597">3.38878e-12</wgt>
  <wgt id="598">3.39339e-12</wgt>
  <wgt id="599">3.56657e-12</wgt>
  <wgt id="600">3.55298e-12</wgt>
  <wgt id="601">3.21609e-12</wgt>
  <wgt id="602">3.24998e-12</wgt>
  <wgt id="603">3.15239e-12</wgt>
  <wgt id="604">3.43764e-12</wgt>
  <wgt id="605">3.39729e-12</wgt>
  <wgt id="606">3.40432e-12</wgt>
  <wgt id="607">3.4894e-12</wgt>
  <wgt id="608">3.47653e-12</wgt>
  <wgt id="609">3.297e-12</wgt>
  <wgt id="610">3.20673e-12</wgt>
  <wgt id="611">3.21839e-12</wgt>
  <wgt id="612">3.4843e-12</wgt>
  <wgt id="613">3.205e-12</wgt>
  <wgt id="614">3.32936e-12</wgt>
  <wgt id="615">3.39784e-12</wgt>
  <wgt id="616">3.24788e-12</wgt>
  <wgt id="617">3.48528e-12</wgt>
  <wgt id="618">3.67266e-12</wgt>
  <wgt id="619">3.28611e-12</wgt>
  <wgt id="620">3.46566e-12</wgt>
  <wgt id="621">3.31939e-12</wgt>
  <wgt id="622">3.41681e-12</wgt>
  <wgt id="623">3.3725e-12</wgt>
  <wgt id="624">3.37216e-12</wgt>
  <wgt id="625">3.20179e-12</wgt>
  <wgt id="626">3.00853e-12</wgt>
  <wgt id="627">3.04518e-12</wgt>
  <wgt id="628">3.35117e-12</wgt>
  <wgt id="629">3.39958e-12</wgt>
  <wgt id="630">3.26544e-12</wgt>
  <wgt id="631">3.43536e-12</wgt>
  <wgt id="632">3.07066e-12</wgt>
  <wgt id="633">3.33227e-12</wgt>
  <wgt id="634">3.21793e-12</wgt>
  <wgt id="635">3.09832e-12</wgt>
  <wgt id="636">3.39192e-12</wgt>
  <wgt id="637">3.34434e-12</wgt>
  <wgt id="638">3.1963e-12</wgt>
  <wgt id="639">3.21332e-12</wgt>
  <wgt id="640">3.27732e-12</wgt>
  <wgt id="641">3.50731e-12</wgt>
  <wgt id="642">3.09244e-12</wgt>
  <wgt id="643">3.26995e-12</wgt>
  <wgt id="644">3.01296e-12</wgt>
  <wgt id="645">3.35128e-12</wgt>
  <wgt id="646">3.10705e-12</wgt>
  <wgt id="647">3.38543e-12</wgt>
  <wgt id="648">3.5027e-12</wgt>
  <wgt id="649">3.37342e-12</wgt>
  <wgt id="650">3.20325e-12</wgt>
  <wgt id="651">3.5809e-12</wgt>
  <wgt id="652">3.21968e-12</wgt>
  <wgt id="653">3.22257e-12</wgt>
  <wgt id="654">3.38731e-12</wgt>
  <wgt id="655">3.21867e-12</wgt>
  <wgt id="656">3.36024e-12</wgt>
  <wgt id="657">3.66251e-12</wgt>
  <wgt id="658">3.37733e-12</wgt>
  <wgt id="659">3.20876e-12</wgt>
  <wgt id="660">3.25756e-12</wgt>
  <wgt id="661">3.26628e-12</wgt>
  <wgt id="662">3.29738e-12</wgt>
  <wgt id="663">3.40987e-12</wgt>
  <wgt id="664">3.38703e-12</wgt>
  <wgt id="665">3.31662e-12</wgt>
  <wgt id="666">3.27687e-12</wgt>
  <wgt id="667">3.53471e-12</wgt>
  <wgt id="668">3.31271e-12</wgt>
  <wgt id="669">3.35389e-12</wgt>
  <wgt id="670">3.51556e-12</wgt>
  <wgt id="671">3.38434e-12</wgt>
  <wgt id="672">3.2571e-12</wgt>
  <wgt id="673">3.55225e-12</wgt>
  <wgt id="674">3.24999e-12</wgt>
  <wgt id="675">3.2315e-12</wgt>
  <wgt id="676">4.36111e-12</wgt>
  <wgt id="677">4.40517e-12</wgt>
  <wgt id="678">4.77541e-12</wgt>
  <wgt id="679">4.42607e-12</wgt>
  <wgt id="680">4.38601e-12</wgt>
  <wgt id="681">4.26997e-12</wgt>
  <wgt id="682">4.57233e-12</wgt>
  <wgt id="683">4.0364e-12</wgt>
  <wgt id="684">4.60182e-12</wgt>
  <wgt id="685">4.32476e-12</wgt>
  <wgt id="686">4.42623e-12</wgt>
  <wgt id="687">4.52437e-12</wgt>
  <wgt id="688">4.22291e-12</wgt>
  <wgt id="689">4.58997e-12</wgt>
  <wgt id="690">4.49213e-12</wgt>
  <wgt id="691">4.47796e-12</wgt>
  <wgt id="692">4.25477e-12</wgt>
  <wgt id="693">5.76029e-12</wgt>
  <wgt id="694">4.79974e-12</wgt>
  <wgt id="695">4.0866e-12</wgt>
  <wgt id="696">4.15648e-12</wgt>
  <wgt id="697">3.9449e-12</wgt>
  <wgt id="698">3.61405e-12</wgt>
  <wgt id="699">3.68788e-12</wgt>
  <wgt id="700">3.82895e-12</wgt>
  <wgt id="701">4.36051e-12</wgt>
  <wgt id="702">4.19047e-12</wgt>
  <wgt id="703">5.41222e-12</wgt>
  <wgt id="704">4.92482e-12</wgt>
  <wgt id="705">4.88348e-12</wgt>
  <wgt id="706">4.05389e-12</wgt>
  <wgt id="707">4.08277e-12</wgt>
  <wgt id="708">4.18047e-12</wgt>
  <wgt id="709">4.22563e-12</wgt>
  <wgt id="710">3.67373e-12</wgt>
  <wgt id="711">4.61813e-12</wgt>
  <wgt id="712">4.10011e-12</wgt>
  <wgt id="713">4.70684e-12</wgt>
  <wgt id="714">3.94715e-12</wgt>
  <wgt id="715">4.1678e-12</wgt>
  <wgt id="716">4.19369e-12</wgt>
  <wgt id="717">3.8076e-12</wgt>
  <wgt id="718">4.45381e-12</wgt>
  <wgt id="719">3.95908e-12</wgt>
  <wgt id="720">4.4244e-12</wgt>
  <wgt id="721">3.72829e-12</wgt>
  <wgt id="722">3.44729e-12</wgt>
  <wgt id="723">4.90345e-12</wgt>
  <wgt id="724">4.72963e-12</wgt>
  <wgt id="725">4.57529e-12</wgt>
  <wgt id="726">4.34555e-12</wgt>
  <wgt id="727">4.3677e-12</wgt>
  <wgt id="728">4.26588e-12</wgt>
  <wgt id="729">4.00271e-12</wgt>
  <wgt id="730">4.84708e-12</wgt>
  <wgt id="731">4.2926e-12</wgt>
  <wgt id="732">5.07859e-12</wgt>
  <wgt id="733">4.0719e-12</wgt>
  <wgt id="734">4.51629e-12</wgt>
  <wgt id="735">4.3601e-12</wgt>
  <wgt id="736">4.05358e-12</wgt>
  <wgt id="737">4.10271e-12</wgt>
  <wgt id="738">4.13775e-12</wgt>
  <wgt id="739">4.65528e-12</wgt>
  <wgt id="740">5.16256e-12</wgt>
  <wgt id="741">4.48166e-12</wgt>
  <wgt id="742">4.19875e-12</wgt>
  <wgt id="743">3.96972e-12</wgt>
  <wgt id="744">4.27547e-12</wgt>
  <wgt id="745">4.77079e-12</wgt>
  <wgt id="746">4.90424e-12</wgt>
  <wgt id="747">3.63187e-12</wgt>
  <wgt id="748">4.20635e-12</wgt>
  <wgt id="749">4.5497e-12</wgt>
  <wgt id="750">4.69528e-12</wgt>
  <wgt id="751">4.40669e-12</wgt>
  <wgt id="752">3.9159e-12</wgt>
  <wgt id="753">3.9099e-12</wgt>
  <wgt id="754">4.5596e-12</wgt>
  <wgt id="755">4.2711e-12</wgt>
  <wgt id="756">4.24173e-12</wgt>
  <wgt id="757">3.77452e-12</wgt>
  <wgt id="758">4.25825e-12</wgt>
  <wgt id="759">4.76377e-12</wgt>
  <wgt id="760">4.19921e-12</wgt>
  <wgt id="761">4.82911e-12</wgt>
  <wgt id="762">4.85418e-12</wgt>
  <wgt id="763">4.4542e-12</wgt>
  <wgt id="764">4.66354e-12</wgt>
  <wgt id="765">4.40648e-12</wgt>
  <wgt id="766">4.41601e-12</wgt>
  <wgt id="767">4.45693e-12</wgt>
  <wgt id="768">3.96804e-12</wgt>
  <wgt id="769">4.60658e-12</wgt>
  <wgt id="770">4.09848e-12</wgt>
  <wgt id="771">5.38541e-12</wgt>
  <wgt id="772">4.2296e-12</wgt>
  <wgt id="773">4.37178e-12</wgt>
  <wgt id="774">3.46185e-12</wgt>
  <wgt id="775">4.57896e-12</wgt>
  <wgt id="776">5.02319e-12</wgt>
  <wgt id="777">3.8749e-12</wgt>
  <wgt id="778">2.86748e-12</wgt>
  <wgt id="779">1.79132e-12</wgt>
  <wgt id="780">1.07978e-12</wgt>
  <wgt id="781">3.25929e-12</wgt>
  <wgt id="782">3.49222e-12</wgt>
  <wgt id="783">1.62343e-12</wgt>
  <wgt id="784">2.03141e-12</wgt>
  <wgt id="785">4.28559e-12</wgt>
  <wgt id="786">1.59819e-12</wgt>
  <wgt id="787">3.72127e-12</wgt>
  <wgt id="788">6.09201e-13</wgt>
  <wgt id="789">1.9889e-12</wgt>
  <wgt id="790">1.61624e-12</wgt>
  <wgt id="791">3.27857e-12</wgt>
  <wgt id="792">3.89997e-12</wgt>
  <wgt id="793">2.703e-12</wgt>
  <wgt id="794">1.481e-12</wgt>
  <wgt id="795">3.98029e-12</wgt>
  <wgt id="796">4.08422e-12</wgt>
  <wgt id="797">3.73765e-12</wgt>
  <wgt id="798">2.20471e-12</wgt>
  <wgt id="799">3.65351e-12</wgt>
  <wgt id="800">2.18132e-12</wgt>
  <wgt id="801">2.77207e-12</wgt>
  <wgt id="802">1.42544e-12</wgt>
  <wgt id="803">4.62782e-12</wgt>
  <wgt id="804">3.97018e-12</wgt>
  <wgt id="805">3.89118e-12</wgt>
  <wgt id="806">3.16494e-12</wgt>
  <wgt id="807">2.80605e-12</wgt>
  <wgt id="808">2.75643e-12</wgt>
  <wgt id="809">2.56478e-12</wgt>
  <wgt id="810">3.44515e-12</wgt>
  <wgt id="811">3.03847e-12</wgt>
  <wgt id="812">1.65189e-12</wgt>
  <wgt id="813">1.78057e-12</wgt>
  <wgt id="814">1.98543e-12</wgt>
  <wgt id="815">1.66233e-12</wgt>
  <wgt id="816">1.81772e-12</wgt>
  <wgt id="817">2.92385e-12</wgt>
  <wgt id="818">3.7988e-12</wgt>
  <wgt id="819">1.76261e-12</wgt>
  <wgt id="820">2.70773e-12</wgt>
  <wgt id="821">3.5318e-12</wgt>
  <wgt id="822">2.29215e-12</wgt>
  <wgt id="823">3.71358e-12</wgt>
  <wgt id="824">4.41964e-12</wgt>
  <wgt id="825">1.3446e-12</wgt>
  <wgt id="826">3.6262e-12</wgt>
  <wgt id="827">1.2053e-12</wgt>
  <wgt id="828">3.74347e-12</wgt>
  <wgt id="829">2.97753e-12</wgt>
  <wgt id="830">1.27411e-12</wgt>
  <wgt id="831">3.4186e-12</wgt>
  <wgt id="832">5.26055e-12</wgt>
  <wgt id="833">2.28535e-12</wgt>
  <wgt id="834">5.13264e-12</wgt>
  <wgt id="835">1.97437e-12</wgt>
  <wgt id="836">2.35085e-12</wgt>
  <wgt id="837">3.4373e-12</wgt>
  <wgt id="838">2.29693e-12</wgt>
  <wgt id="839">3.41036e-12</wgt>
  <wgt id="840">2.43625e-12</wgt>
  <wgt id="841">4.11333e-12</wgt>
  <wgt id="842">2.84873e-12</wgt>
  <wgt id="843">3.10257e-12</wgt>
  <wgt id="844">3.22552e-12</wgt>
  <wgt id="845">5.15474e-12</wgt>
  <wgt id="846">2.8649e-12</wgt>
  <wgt id="847">3.07967e-12</wgt>
  <wgt id="848">1.73336e-12</wgt>
  <wgt id="849">3.1587e-12</wgt>
  <wgt id="850">4.51279e-12</wgt>
  <wgt id="851">3.43937e-12</wgt>
  <wgt id="852">1.46322e-12</wgt>
  <wgt id="853">3.59668e-12</wgt>
  <wgt id="854">4.08717e-12</wgt>
  <wgt id="855">3.62087e-12</wgt>
  <wgt id="856">1.26203e-12</wgt>
  <wgt id="857">2.50511e-12</wgt>
  <wgt id="858">2.70826e-12</wgt>
  <wgt id="859">2.75405e-12</wgt>
  <wgt id="860">3.73069e-12</wgt>
  <wgt id="861">2.34954e-12</wgt>
  <wgt id="862">2.96218e-12</wgt>
  <wgt id="863">3.36196e-12</wgt>
  <wgt id="864">2.97549e-12</wgt>
  <wgt id="865">4.78665e-12</wgt>
  <wgt id="866">5.27442e-12</wgt>
  <wgt id="867">2.93377e-12</wgt>
  <wgt id="868">3.02023e-12</wgt>
  <wgt id="869">1.59723e-12</wgt>
  <wgt id="870">1.93291e-12</wgt>
  <wgt id="871">1.95009e-12</wgt>
  <wgt id="872">4.21496e-12</wgt>
  <wgt id="873">2.24243e-12</wgt>
  <wgt id="874">3.22408e-12</wgt>
  <wgt id="875">2.19163e-12</wgt>
  <wgt id="876">4.03417e-12</wgt>
  <wgt id="877">3.33903e-12</wgt>
  <wgt id="878">2.28567e-12</wgt>
  <wgt id="879">4.36111e-12</wgt>
  <wgt id="880">4.40517e-12</wgt>
  <wgt id="881">4.77541e-12</wgt>
  <wgt id="882">4.42607e-12</wgt>
  <wgt id="883">4.38601e-12</wgt>
  <wgt id="884">4.26997e-12</wgt>
  <wgt id="885">4.57233e-12</wgt>
  <wgt id="886">4.0364e-12</wgt>
  <wgt id="887">4.60182e-12</wgt>
  <wgt id="888">4.32476e-12</wgt>
  <wgt id="889">4.42623e-12</wgt>
  <wgt id="890">4.52437e-12</wgt>
  <wgt id="891">4.22291e-12</wgt>
  <wgt id="892">4.58997e-12</wgt>
  <wgt id="893">4.49213e-12</wgt>
  <wgt id="894">4.47796e-12</wgt>
  <wgt id="895">4.25477e-12</wgt>
  <wgt id="896">5.76029e-12</wgt>
  <wgt id="897">4.79974e-12</wgt>
  <wgt id="898">4.0866e-12</wgt>
  <wgt id="899">4.15648e-12</wgt>
  <wgt id="900">3.9449e-12</wgt>
  <wgt id="901">3.61405e-12</wgt>
  <wgt id="902">3.68788e-12</wgt>
  <wgt id="903">3.82895e-12</wgt>
  <wgt id="904">4.36051e-12</wgt>
  <wgt id="905">4.19047e-12</wgt>
  <wgt id="906">5.41222e-12</wgt>
  <wgt id="907">4.92482e-12</wgt>
  <wgt id="908">4.88348e-12</wgt>
  <wgt id="909">4.05389e-12</wgt>
  <wgt id="910">4.08277e-12</wgt>
  <wgt id="911">4.18047e-12</wgt>
  <wgt id="912">4.22563e-12</wgt>
  <wgt id="913">3.67373e-12</wgt>
  <wgt id="914">4.61813e-12</wgt>
  <wgt id="915">4.10011e-12</wgt>
  <wgt id="916">4.70684e-12</wgt>
  <wgt id="917">3.94715e-12</wgt>
  <wgt id="918">4.1678e-12</wgt>
  <wgt id="919">4.19369e-12</wgt>
  <wgt id="920">3.8076e-12</wgt>
  <wgt id="921">4.45381e-12</wgt>
  <wgt id="922">3.95908e-12</wgt>
  <wgt id="923">4.4244e-12</wgt>
  <wgt id="924">3.72829e-12</wgt>
  <wgt id="925">3.44729e-12</wgt>
  <wgt id="926">4.90345e-12</wgt>
  <wgt id="927">4.72963e-12</wgt>
  <wgt id="928">4.57529e-12</wgt>
  <wgt id="929">4.34555e-12</wgt>
  <wgt id="930">4.3677e-12</wgt>
  <wgt id="931">4.26588e-12</wgt>
  <wgt id="932">4.00271e-12</wgt>
  <wgt id="933">4.84708e-12</wgt>
  <wgt id="934">4.2926e-12</wgt>
  <wgt id="935">5.07859e-12</wgt>
  <wgt id="936">4.0719e-12</wgt>
  <wgt id="937">4.51629e-12</wgt>
  <wgt id="938">4.3601e-12</wgt>
  <wgt id="939">4.05358e-12</wgt>
  <wgt id="940">4.10271e-12</wgt>
  <wgt id="941">4.13775e-12</wgt>
  <wgt id="942">4.65528e-12</wgt>
  <wgt id="943">5.16256e-12</wgt>
  <wgt id="944">4.48166e-12</wgt>
  <wgt id="945">4.19875e-12</wgt>
  <wgt id="946">3.96972e-12</wgt>
  <wgt id="947">4.27547e-12</wgt>
  <wgt id="948">4.77079e-12</wgt>
  <wgt id="949">4.90424e-12</wgt>
  <wgt id="950">3.63187e-12</wgt>
  <wgt id="951">4.20635e-12</wgt>
  <wgt id="952">4.5497e-12</wgt>
  <wgt id="953">4.69528e-12</wgt>
  <wgt id="954">4.40669e-12</wgt>
  <wgt id="955">3.9159e-12</wgt>
  <wgt id="956">3.9099e-12</wgt>
  <wgt id="957">4.5596e-12</wgt>
  <wgt id="958">4.2711e-12</wgt>
  <wgt id="959">4.24173e-12</wgt>
  <wgt id="960">3.77452e-12</wgt>
  <wgt id="961">4.25825e-12</wgt>
  <wgt id="962">4.76377e-12</wgt>
  <wgt id="963">4.19921e-12</wgt>
  <wgt id="964">4.82911e-12</wgt>
  <wgt id="965">4.85418e-12</wgt>
  <wgt id="966">4.4542e-12</wgt>
  <wgt id="967">4.66354e-12</wgt>
  <wgt id="968">4.40648e-12</wgt>
  <wgt id="969">4.41601e-12</wgt>
  <wgt id="970">4.45693e-12</wgt>
  <wgt id="971">3.96804e-12</wgt>
  <wgt id="972">4.60658e-12</wgt>
  <wgt id="973">4.09848e-12</wgt>
  <wgt id="974">5.38541e-12</wgt>
  <wgt id="975">4.2296e-12</wgt>
  <wgt id="976">4.37178e-12</wgt>
  <wgt id="977">3.46185e-12</wgt>
  <wgt id="978">4.57896e-12</wgt>
  <wgt id="979">5.02319e-12</wgt>
  <wgt id="980">4.33174e-12</wgt>
  <wgt id="981">4.45558e-12</wgt>
  <wgt id="982">4.22639e-12</wgt>
</rwgt>
</event>
<event>
 5   1  0.3028200E-11  0.2329580E+04  0.7818608E-02  0.7701752E-01
       21   -1    0    0  502  501  0.00000000000E+00  0.00000000000E+00  0.30401404859E+04  0.30401404859E+04  0.00000000000E+00 0.  1.
       21   -1    0    0  501  502 -0.00000000000E+00 -0.00000000000E+00 -0.44627401495E+03  0.44627401495E+03  0.00000000000E+00 0. -1.
       39    2    1    2    0    0  0.00000000000E+00  0.00000000000E+00  0.25938664710E+04  0.34864145009E+04  0.23295799627E+04 0.  0.
       25    1    3    3    0    0  0.89735903920E+03 -0.73098512420E+03  0.12386200979E+04  0.16998227096E+04  0.12500000000E+03 0.  0.
       25    1    3    3    0    0 -0.89735903920E+03  0.73098512420E+03  0.13552463731E+04  0.17865917913E+04  0.12500000000E+03 0.  0.
<mgrwt>
<rscale>  0 0.23295800E+04</rscale>
<asrwt>0</asrwt>
<pdfrwt beam="1">  1       21 0.46771391E+00 0.23295800E+04</pdfrwt>
<pdfrwt beam="2">  1       21 0.68657543E-01 0.23295800E+04</pdfrwt>
<totfact> 0.20709617E+00</totfact>
</mgrwt>
<rwgt>
  <wgt id="1">3.0282e-12</wgt>
  <wgt id="2">2.55684e-12</wgt>
  <wgt id="3">3.63915e-12</wgt>
  <wgt id="4">3.0282e-12</wgt>
  <wgt id="5">2.55684e-12</wgt>
  <wgt id="6">3.63915e-12</wgt>
  <wgt id="7">3.0282e-12</wgt>
  <wgt id="8">2.55684e-12</wgt>
  <wgt id="9">3.63915e-12</wgt>
  <wgt id="10">3.29085e-12</wgt>
  <wgt id="11">3.29745e-12</wgt>
  <wgt id="12">3.2806e-12</wgt>
  <wgt id="13">3.29452e-12</wgt>
  <wgt id="14">3.27569e-12</wgt>
  <wgt id="15">3.28509e-12</wgt>
  <wgt id="16">3.27562e-12</wgt>
  <wgt id="17">3.32464e-12</wgt>
  <wgt id="18">3.28963e-12</wgt>
  <wgt id="19">3.30635e-12</wgt>
  <wgt id="20">3.30442e-12</wgt>
  <wgt id="21">3.23068e-12</wgt>
  <wgt id="22">3.25539e-12</wgt>
  <wgt id="23">3.23003e-12</wgt>
  <wgt id="24">3.26911e-12</wgt>
  <wgt id="25">3.29614e-12</wgt>
  <wgt id="26">3.29837e-12</wgt>
  <wgt id="27">3.29132e-12</wgt>
  <wgt id="28">3.27129e-12</wgt>
  <wgt id="29">3.29167e-12</wgt>
  <wgt id="30">3.26425e-12</wgt>
  <wgt id="31">3.30227e-12</wgt>
  <wgt id="32">3.24828e-12</wgt>
  <wgt id="33">3.29272e-12</wgt>
  <wgt id="34">3.25712e-12</wgt>
  <wgt id="35">3.24655e-12</wgt>
  <wgt id="36">3.30632e-12</wgt>
  <wgt id="37">3.27794e-12</wgt>
  <wgt id="38">3.26611e-12</wgt>
  <wgt id="39">3.3754e-12</wgt>
  <wgt id="40">3.31614e-12</wgt>
  <wgt id="41">3.27928e-12</wgt>
  <wgt id="42">3.27715e-12</wgt>
  <wgt id="43">3.29211e-12</wgt>
  <wgt id="44">3.31752e-12</wgt>
  <wgt id="45">3.30946e-12</wgt>
  <wgt id="46">3.25747e-12</wgt>
  <wgt id="47">3.37289e-12</wgt>
  <wgt id="48">3.34856e-12</wgt>
  <wgt id="49">3.29206e-12</wgt>
  <wgt id="50">3.24494e-12</wgt>
  <wgt id="51">3.26149e-12</wgt>
  <wgt id="52">3.2941e-12</wgt>
  <wgt id="53">3.41444e-12</wgt>
  <wgt id="54">3.32667e-12</wgt>
  <wgt id="55">3.26993e-12</wgt>
  <wgt id="56">3.18138e-12</wgt>
  <wgt id="57">3.21301e-12</wgt>
  <wgt id="58">3.28894e-12</wgt>
  <wgt id="59">3.32573e-12</wgt>
  <wgt id="60">3.21492e-12</wgt>
  <wgt id="61">3.33226e-12</wgt>
  <wgt id="62">3.34988e-12</wgt>
  <wgt id="63">3.27102e-12</wgt>
  <wgt id="64">3.28886e-12</wgt>
  <wgt id="65">3.27317e-12</wgt>
  <wgt id="66">3.361e-12</wgt>
  <wgt id="67">3.38778e-12</wgt>
  <wgt id="68">3.29498e-12</wgt>
  <wgt id="69">3.29767e-12</wgt>
  <wgt id="70">3.22621e-12</wgt>
  <wgt id="71">3.35621e-12</wgt>
  <wgt id="72">3.384e-12</wgt>
  <wgt id="73">3.2142e-12</wgt>
  <wgt id="74">3.33001e-12</wgt>
  <wgt id="75">3.16796e-12</wgt>
  <wgt id="76">3.29942e-12</wgt>
  <wgt id="77">3.26493e-12</wgt>
  <wgt id="78">3.27892e-12</wgt>
  <wgt id="79">3.28238e-12</wgt>
  <wgt id="80">3.30123e-12</wgt>
  <wgt id="81">3.2903e-12</wgt>
  <wgt id="82">3.27846e-12</wgt>
  <wgt id="83">3.26601e-12</wgt>
  <wgt id="84">3.24942e-12</wgt>
  <wgt id="85">3.24385e-12</wgt>
  <wgt id="86">3.35142e-12</wgt>
  <wgt id="87">3.22505e-12</wgt>
  <wgt id="88">3.29617e-12</wgt>
  <wgt id="89">3.30004e-12</wgt>
  <wgt id="90">3.34744e-12</wgt>
  <wgt id="91">3.28364e-12</wgt>
  <wgt id="92">3.30533e-12</wgt>
  <wgt id="93">3.31708e-12</wgt>
  <wgt id="94">3.24962e-12</wgt>
  <wgt id="95">3.37405e-12</wgt>
  <wgt id="96">3.35464e-12</wgt>
  <wgt id="97">3.22698e-12</wgt>
  <wgt id="98">3.28578e-12</wgt>
  <wgt id="99">3.25719e-12</wgt>
  <wgt id="100">3.32464e-12</wgt>
  <wgt id="101">3.25791e-12</wgt>
  <wgt id="102">3.28196e-12</wgt>
  <wgt id="103">3.3516e-12</wgt>
  <wgt id="104">3.27366e-12</wgt>
  <wgt id="105">3.33778e-12</wgt>
  <wgt id="106">3.24699e-12</wgt>
  <wgt id="107">3.38177e-12</wgt>
  <wgt id="108">3.26945e-12</wgt>
  <wgt id="109">3.29721e-12</wgt>
  <wgt id="110">3.28074e-12</wgt>
  <wgt id="111">3.21167e-12</wgt>
  <wgt id="112">3.38397e-12</wgt>
  <wgt id="113">5.67227e-12</wgt>
  <wgt id="114">4.05789e-12</wgt>
  <wgt id="115">3.98388e-12</wgt>
  <wgt id="116">5.43797e-12</wgt>
  <wgt id="117">3.69072e-12</wgt>
  <wgt id="118">3.70614e-12</wgt>
  <wgt id="119">3.68196e-12</wgt>
  <wgt id="120">3.69046e-12</wgt>
  <wgt id="121">3.6908e-12</wgt>
  <wgt id="122">3.68609e-12</wgt>
  <wgt id="123">3.69723e-12</wgt>
  <wgt id="124">3.68647e-12</wgt>
  <wgt id="125">3.69339e-12</wgt>
  <wgt id="126">3.69354e-12</wgt>
  <wgt id="127">3.68886e-12</wgt>
  <wgt id="128">3.70136e-12</wgt>
  <wgt id="129">3.68018e-12</wgt>
  <wgt id="130">3.7022e-12</wgt>
  <wgt id="131">3.67842e-12</wgt>
  <wgt id="132">3.57369e-12</wgt>
  <wgt id="133">3.83186e-12</wgt>
  <wgt id="134">3.65288e-12</wgt>
  <wgt id="135">3.72068e-12</wgt>
  <wgt id="136">3.76916e-12</wgt>
  <wgt id="137">3.59746e-12</wgt>
  <wgt id="138">3.9178e-12</wgt>
  <wgt id="139">3.48324e-12</wgt>
  <wgt id="140">3.68865e-12</wgt>
  <wgt id="141">3.69091e-12</wgt>
  <wgt id="142">3.688e-12</wgt>
  <wgt id="143">3.71101e-12</wgt>
  <wgt id="144">3.43511e-12</wgt>
  <wgt id="145">3.96124e-12</wgt>
  <wgt id="146">3.78345e-12</wgt>
  <wgt id="147">3.61292e-12</wgt>
  <wgt id="148">3.70513e-12</wgt>
  <wgt id="149">3.6898e-12</wgt>
  <wgt id="150">3.71965e-12</wgt>
  <wgt id="151">3.67708e-12</wgt>
  <wgt id="152">3.68947e-12</wgt>
  <wgt id="153">3.69117e-12</wgt>
  <wgt id="154">3.6522e-12</wgt>
  <wgt id="155">3.71586e-12</wgt>
  <wgt id="156">3.93941e-12</wgt>
  <wgt id="157">3.49517e-12</wgt>
  <wgt id="158">4.34945e-12</wgt>
  <wgt id="159">4.36878e-12</wgt>
  <wgt id="160">4.33387e-12</wgt>
  <wgt id="161">4.33758e-12</wgt>
  <wgt id="162">4.36257e-12</wgt>
  <wgt id="163">4.34413e-12</wgt>
  <wgt id="164">4.35744e-12</wgt>
  <wgt id="165">4.35084e-12</wgt>
  <wgt id="166">4.34851e-12</wgt>
  <wgt id="167">4.34684e-12</wgt>
  <wgt id="168">4.35308e-12</wgt>
  <wgt id="169">4.3335e-12</wgt>
  <wgt id="170">4.35941e-12</wgt>
  <wgt id="171">4.34926e-12</wgt>
  <wgt id="172">4.3501e-12</wgt>
  <wgt id="173">4.32669e-12</wgt>
  <wgt id="174">4.35766e-12</wgt>
  <wgt id="175">4.21007e-12</wgt>
  <wgt id="176">4.53351e-12</wgt>
  <wgt id="177">4.35966e-12</wgt>
  <wgt id="178">4.34079e-12</wgt>
  <wgt id="179">4.66351e-12</wgt>
  <wgt id="180">3.8895e-12</wgt>
  <wgt id="181">4.1623e-12</wgt>
  <wgt id="182">4.47715e-12</wgt>
  <wgt id="183">4.23584e-12</wgt>
  <wgt id="184">4.40622e-12</wgt>
  <wgt id="185">4.28002e-12</wgt>
  <wgt id="186">4.43339e-12</wgt>
  <wgt id="187">4.27628e-12</wgt>
  <wgt id="188">4.47576e-12</wgt>
  <wgt id="189">4.30322e-12</wgt>
  <wgt id="190">4.36832e-12</wgt>
  <wgt id="191">4.37316e-12</wgt>
  <wgt id="192">4.33519e-12</wgt>
  <wgt id="193">4.44573e-12</wgt>
  <wgt id="194">4.30015e-12</wgt>
  <wgt id="195">4.08053e-12</wgt>
  <wgt id="196">4.77098e-12</wgt>
  <wgt id="197">4.37395e-12</wgt>
  <wgt id="198">4.34353e-12</wgt>
  <wgt id="199">4.34945e-12</wgt>
  <wgt id="200">4.40159e-12</wgt>
  <wgt id="201">4.38612e-12</wgt>
  <wgt id="202">4.36995e-12</wgt>
  <wgt id="203">4.35019e-12</wgt>
  <wgt id="204">4.33844e-12</wgt>
  <wgt id="205">4.32943e-12</wgt>
  <wgt id="206">4.33514e-12</wgt>
  <wgt id="207">4.36245e-12</wgt>
  <wgt id="208">4.30793e-12</wgt>
  <wgt id="209">4.34773e-12</wgt>
  <wgt id="210">4.32584e-12</wgt>
  <wgt id="211">4.33367e-12</wgt>
  <wgt id="212">4.33635e-12</wgt>
  <wgt id="213">4.33464e-12</wgt>
  <wgt id="214">4.33537e-12</wgt>
  <wgt id="215">4.33848e-12</wgt>
  <wgt id="216">4.33279e-12</wgt>
  <wgt id="217">4.34046e-12</wgt>
  <wgt id="218">4.33076e-12</wgt>
  <wgt id="219">4.32859e-12</wgt>
  <wgt id="220">4.33924e-12</wgt>
  <wgt id="221">4.34283e-12</wgt>
  <wgt id="222">4.31414e-12</wgt>
  <wgt id="223">4.03481e-12</wgt>
  <wgt id="224">4.6133e-12</wgt>
  <wgt id="225">4.27847e-12</wgt>
  <wgt id="226">4.4081e-12</wgt>
  <wgt id="227">4.29081e-12</wgt>
  <wgt id="228">4.35464e-12</wgt>
  <wgt id="229">4.26388e-12</wgt>
  <wgt id="230">4.37035e-12</wgt>
  <wgt id="231">4.54059e-12</wgt>
  <wgt id="232">4.16969e-12</wgt>
  <wgt id="233">4.28888e-12</wgt>
  <wgt id="234">4.41376e-12</wgt>
  <wgt id="235">3.95382e-12</wgt>
  <wgt id="236">4.64313e-12</wgt>
  <wgt id="237">4.1294e-12</wgt>
  <wgt id="238">4.404e-12</wgt>
  <wgt id="239">4.25526e-12</wgt>
  <wgt id="240">4.47911e-12</wgt>
  <wgt id="241">4.26046e-12</wgt>
  <wgt id="242">4.42031e-12</wgt>
  <wgt id="243">4.4682e-12</wgt>
  <wgt id="244">4.29437e-12</wgt>
  <wgt id="245">4.3367e-12</wgt>
  <wgt id="246">4.343e-12</wgt>
  <wgt id="247">4.33514e-12</wgt>
  <wgt id="248">4.39888e-12</wgt>
  <wgt id="249">4.37907e-12</wgt>
  <wgt id="250">4.35299e-12</wgt>
  <wgt id="251">4.32586e-12</wgt>
  <wgt id="252">4.30805e-12</wgt>
  <wgt id="253">4.29737e-12</wgt>
  <wgt id="254">4.06198e-12</wgt>
  <wgt id="255">4.0652e-12</wgt>
  <wgt id="256">4.05846e-12</wgt>
  <wgt id="257">4.06526e-12</wgt>
  <wgt id="258">4.05955e-12</wgt>
  <wgt id="259">4.08962e-12</wgt>
  <wgt id="260">4.03526e-12</wgt>
  <wgt id="261">4.06953e-12</wgt>
  <wgt id="262">4.05295e-12</wgt>
  <wgt id="263">4.05718e-12</wgt>
  <wgt id="264">4.06767e-12</wgt>
  <wgt id="265">4.05682e-12</wgt>
  <wgt id="266">4.07216e-12</wgt>
  <wgt id="267">4.06323e-12</wgt>
  <wgt id="268">4.06043e-12</wgt>
  <wgt id="269">4.07297e-12</wgt>
  <wgt id="270">4.05449e-12</wgt>
  <wgt id="271">4.04166e-12</wgt>
  <wgt id="272">4.08478e-12</wgt>
  <wgt id="273">4.05378e-12</wgt>
  <wgt id="274">4.06811e-12</wgt>
  <wgt id="275">4.02091e-12</wgt>
  <wgt id="276">4.10486e-12</wgt>
  <wgt id="277">4.04339e-12</wgt>
  <wgt id="278">4.07883e-12</wgt>
  <wgt id="279">3.98374e-12</wgt>
  <wgt id="280">4.16126e-12</wgt>
  <wgt id="281">4.02777e-12</wgt>
  <wgt id="282">4.09422e-12</wgt>
  <wgt id="283">3.88495e-12</wgt>
  <wgt id="284">4.29026e-12</wgt>
  <wgt id="285">3.77164e-12</wgt>
  <wgt id="286">4.31875e-12</wgt>
  <wgt id="287">4.07967e-12</wgt>
  <wgt id="288">4.03959e-12</wgt>
  <wgt id="289">4.10478e-12</wgt>
  <wgt id="290">3.97319e-12</wgt>
  <wgt id="291">4.04204e-12</wgt>
  <wgt id="292">4.05019e-12</wgt>
  <wgt id="293">4.01486e-12</wgt>
  <wgt id="294">4.10912e-12</wgt>
  <wgt id="295">3.9465e-12</wgt>
  <wgt id="296">4.20348e-12</wgt>
  <wgt id="297">4.02505e-12</wgt>
  <wgt id="298">4.09596e-12</wgt>
  <wgt id="299">4.04565e-12</wgt>
  <wgt id="300">4.1054e-12</wgt>
  <wgt id="301">3.909e-12</wgt>
  <wgt id="302">4.39222e-12</wgt>
  <wgt id="303">3.97955e-12</wgt>
  <wgt id="304">4.10727e-12</wgt>
  <wgt id="305">3.91198e-12</wgt>
  <wgt id="306">3.91511e-12</wgt>
  <wgt id="307">3.90868e-12</wgt>
  <wgt id="308">3.91541e-12</wgt>
  <wgt id="309">3.90982e-12</wgt>
  <wgt id="310">3.93896e-12</wgt>
  <wgt id="311">3.88722e-12</wgt>
  <wgt id="312">3.92046e-12</wgt>
  <wgt id="313">3.90302e-12</wgt>
  <wgt id="314">3.9066e-12</wgt>
  <wgt id="315">3.9175e-12</wgt>
  <wgt id="316">3.9065e-12</wgt>
  <wgt id="317">3.92427e-12</wgt>
  <wgt id="318">3.91489e-12</wgt>
  <wgt id="319">3.90718e-12</wgt>
  <wgt id="320">3.92448e-12</wgt>
  <wgt id="321">3.90539e-12</wgt>
  <wgt id="322">3.89301e-12</wgt>
  <wgt id="323">3.93459e-12</wgt>
  <wgt id="324">3.90897e-12</wgt>
  <wgt id="325">3.91484e-12</wgt>
  <wgt id="326">3.87757e-12</wgt>
  <wgt id="327">3.95665e-12</wgt>
  <wgt id="328">3.90051e-12</wgt>
  <wgt id="329">3.91759e-12</wgt>
  <wgt id="330">4.02376e-12</wgt>
  <wgt id="331">3.80673e-12</wgt>
  <wgt id="332">3.88276e-12</wgt>
  <wgt id="333">3.93595e-12</wgt>
  <wgt id="334">3.78692e-12</wgt>
  <wgt id="335">4.07315e-12</wgt>
  <wgt id="336">3.71849e-12</wgt>
  <wgt id="337">4.16139e-12</wgt>
  <wgt id="338">3.97162e-12</wgt>
  <wgt id="339">3.85868e-12</wgt>
  <wgt id="340">3.9466e-12</wgt>
  <wgt id="341">3.83202e-12</wgt>
  <wgt id="342">3.90137e-12</wgt>
  <wgt id="343">3.88752e-12</wgt>
  <wgt id="344">3.8741e-12</wgt>
  <wgt id="345">3.95642e-12</wgt>
  <wgt id="346">3.79982e-12</wgt>
  <wgt id="347">4.03888e-12</wgt>
  <wgt id="348">3.87441e-12</wgt>
  <wgt id="349">3.94473e-12</wgt>
  <wgt id="350">3.89313e-12</wgt>
  <wgt id="351">3.96091e-12</wgt>
  <wgt id="352">3.77173e-12</wgt>
  <wgt id="353">4.20011e-12</wgt>
  <wgt id="354">3.80647e-12</wgt>
  <wgt id="355">3.97287e-12</wgt>
  <wgt id="356">4.06198e-12</wgt>
  <wgt id="357">3.8857e-12</wgt>
  <wgt id="358">3.91198e-12</wgt>
  <wgt id="359">4.02346e-12</wgt>
  <wgt id="360">4.24127e-12</wgt>
  <wgt id="361">4.10262e-12</wgt>
  <wgt id="362">4.21888e-12</wgt>
  <wgt id="363">4.20472e-12</wgt>
  <wgt id="364">4.16754e-12</wgt>
  <wgt id="365">4.14603e-12</wgt>
  <wgt id="366">4.12664e-12</wgt>
  <wgt id="367">4.09542e-12</wgt>
  <wgt id="368">4.06977e-12</wgt>
  <wgt id="369">4.042e-12</wgt>
  <wgt id="370">4.10262e-12</wgt>
  <wgt id="371">4.1166e-12</wgt>
  <wgt id="372">4.10836e-12</wgt>
  <wgt id="373">4.09858e-12</wgt>
  <wgt id="374">4.1182e-12</wgt>
  <wgt id="375">5.69109e-12</wgt>
  <wgt id="376">5.69119e-12</wgt>
  <wgt id="377">5.69147e-12</wgt>
  <wgt id="378">5.7159e-12</wgt>
  <wgt id="379">5.66677e-12</wgt>
  <wgt id="380">5.70947e-12</wgt>
  <wgt id="381">5.68376e-12</wgt>
  <wgt id="382">5.70968e-12</wgt>
  <wgt id="383">5.67301e-12</wgt>
  <wgt id="384">5.69542e-12</wgt>
  <wgt id="385">5.68717e-12</wgt>
  <wgt id="386">5.69667e-12</wgt>
  <wgt id="387">5.68894e-12</wgt>
  <wgt id="388">5.6876e-12</wgt>
  <wgt id="389">5.69553e-12</wgt>
  <wgt id="390">5.69751e-12</wgt>
  <wgt id="391">5.68463e-12</wgt>
  <wgt id="392">5.62704e-12</wgt>
  <wgt id="393">5.72754e-12</wgt>
  <wgt id="394">5.68722e-12</wgt>
  <wgt id="395">5.69639e-12</wgt>
  <wgt id="396">5.70914e-12</wgt>
  <wgt id="397">5.67846e-12</wgt>
  <wgt id="398">5.70189e-12</wgt>
  <wgt id="399">5.68131e-12</wgt>
  <wgt id="400">5.67982e-12</wgt>
  <wgt id="401">5.71784e-12</wgt>
  <wgt id="402">5.60596e-12</wgt>
  <wgt id="403">5.77385e-12</wgt>
  <wgt id="404">5.95832e-12</wgt>
  <wgt id="405">5.07626e-12</wgt>
  <wgt id="406">5.49756e-12</wgt>
  <wgt id="407">6.13518e-12</wgt>
  <wgt id="408">5.79252e-12</wgt>
  <wgt id="409">5.50991e-12</wgt>
  <wgt id="410">5.38361e-12</wgt>
  <wgt id="411">5.84556e-12</wgt>
  <wgt id="412">5.67041e-12</wgt>
  <wgt id="413">5.7197e-12</wgt>
  <wgt id="414">5.57181e-12</wgt>
  <wgt id="415">5.7841e-12</wgt>
  <wgt id="416">6.02379e-12</wgt>
  <wgt id="417">5.24755e-12</wgt>
  <wgt id="418">5.7121e-12</wgt>
  <wgt id="419">5.57859e-12</wgt>
  <wgt id="420">5.99558e-12</wgt>
  <wgt id="421">5.47509e-12</wgt>
  <wgt id="422">5.5788e-12</wgt>
  <wgt id="423">5.74051e-12</wgt>
  <wgt id="424">6.03431e-12</wgt>
  <wgt id="425">5.44891e-12</wgt>
  <wgt id="426">5.69109e-12</wgt>
  <wgt id="427">5.39738e-12</wgt>
  <wgt id="428">6.28504e-12</wgt>
  <wgt id="429">5.84702e-12</wgt>
  <wgt id="430">6.15746e-12</wgt>
  <wgt id="431">6.08853e-12</wgt>
  <wgt id="432">6.03309e-12</wgt>
  <wgt id="433">5.97854e-12</wgt>
  <wgt id="434">5.90355e-12</wgt>
  <wgt id="435">5.7779e-12</wgt>
  <wgt id="436">5.71748e-12</wgt>
  <wgt id="437">5.65524e-12</wgt>
  <wgt id="438">5.84702e-12</wgt>
  <wgt id="439">5.86195e-12</wgt>
  <wgt id="440">5.85067e-12</wgt>
  <wgt id="441">5.84592e-12</wgt>
  <wgt id="442">5.84555e-12</wgt>
  <wgt id="443">4.13155e-12</wgt>
  <wgt id="444">4.21236e-12</wgt>
  <wgt id="445">4.27234e-12</wgt>
  <wgt id="446">4.11172e-12</wgt>
  <wgt id="447">4.11493e-12</wgt>
  <wgt id="448">4.05755e-12</wgt>
  <wgt id="449">4.29953e-12</wgt>
  <wgt id="450">4.25758e-12</wgt>
  <wgt id="451">4.11974e-12</wgt>
  <wgt id="452">4.20873e-12</wgt>
  <wgt id="453">4.28106e-12</wgt>
  <wgt id="454">3.81877e-12</wgt>
  <wgt id="455">4.22273e-12</wgt>
  <wgt id="456">4.30123e-12</wgt>
  <wgt id="457">4.14132e-12</wgt>
  <wgt id="458">4.23587e-12</wgt>
  <wgt id="459">4.16725e-12</wgt>
  <wgt id="460">4.32845e-12</wgt>
  <wgt id="461">3.98456e-12</wgt>
  <wgt id="462">4.09505e-12</wgt>
  <wgt id="463">4.03382e-12</wgt>
  <wgt id="464">4.13209e-12</wgt>
  <wgt id="465">4.16813e-12</wgt>
  <wgt id="466">3.89685e-12</wgt>
  <wgt id="467">4.11793e-12</wgt>
  <wgt id="468">4.15873e-12</wgt>
  <wgt id="469">4.11029e-12</wgt>
  <wgt id="470">4.01772e-12</wgt>
  <wgt id="471">4.03938e-12</wgt>
  <wgt id="472">4.16818e-12</wgt>
  <wgt id="473">3.95974e-12</wgt>
  <wgt id="474">3.0282e-12</wgt>
  <wgt id="475">3.1478e-12</wgt>
  <wgt id="476">3.23231e-12</wgt>
  <wgt id="477">3.50441e-12</wgt>
  <wgt id="478">3.39783e-12</wgt>
  <wgt id="479">2.51654e-12</wgt>
  <wgt id="480">3.38405e-12</wgt>
  <wgt id="481">3.18042e-12</wgt>
  <wgt id="482">3.61314e-12</wgt>
  <wgt id="483">3.36729e-12</wgt>
  <wgt id="484">3.47982e-12</wgt>
  <wgt id="485">2.82937e-12</wgt>
  <wgt id="486">3.26204e-12</wgt>
  <wgt id="487">2.80001e-12</wgt>
  <wgt id="488">2.61941e-12</wgt>
  <wgt id="489">2.10077e-12</wgt>
  <wgt id="490">3.26019e-12</wgt>
  <wgt id="491">3.00315e-12</wgt>
  <wgt id="492">3.04642e-12</wgt>
  <wgt id="493">2.24864e-12</wgt>
  <wgt id="494">2.25552e-12</wgt>
  <wgt id="495">3.42835e-12</wgt>
  <wgt id="496">2.31855e-12</wgt>
  <wgt id="497">2.788e-12</wgt>
  <wgt id="498">3.07984e-12</wgt>
  <wgt id="499">3.09404e-12</wgt>
  <wgt id="500">3.51314e-12</wgt>
  <wgt id="501">3.41913e-12</wgt>
  <wgt id="502">3.73775e-12</wgt>
  <wgt id="503">2.92506e-12</wgt>
  <wgt id="504">3.17258e-12</wgt>
  <wgt id="505">3.48552e-12</wgt>
  <wgt id="506">2.3985e-12</wgt>
  <wgt id="507">2.69465e-12</wgt>
  <wgt id="508">3.21508e-12</wgt>
  <wgt id="509">3.27192e-12</wgt>
  <wgt id="510">2.71349e-12</wgt>
  <wgt id="511">2.87863e-12</wgt>
  <wgt id="512">3.25668e-12</wgt>
  <wgt id="513">3.64309e-12</wgt>
  <wgt id="514">3.54303e-12</wgt>
  <wgt id="515">3.73241e-12</wgt>
  <wgt id="516">3.61399e-12</wgt>
  <wgt id="517">3.05439e-12</wgt>
  <wgt id="518">3.51359e-12</wgt>
  <wgt id="519">3.10862e-12</wgt>
  <wgt id="520">2.52815e-12</wgt>
  <wgt id="521">2.72438e-12</wgt>
  <wgt id="522">2.88906e-12</wgt>
  <wgt id="523">3.11674e-12</wgt>
  <wgt id="524">2.98247e-12</wgt>
  <wgt id="525">3.1073e-12</wgt>
  <wgt id="526">3.3403e-12</wgt>
  <wgt id="527">3.08322e-12</wgt>
  <wgt id="528">2.56331e-12</wgt>
  <wgt id="529">2.10155e-12</wgt>
  <wgt id="530">3.43161e-12</wgt>
  <wgt id="531">2.83452e-12</wgt>
  <wgt id="532">3.10573e-12</wgt>
  <wgt id="533">3.23575e-12</wgt>
  <wgt id="534">2.51158e-12</wgt>
  <wgt id="535">3.442e-12</wgt>
  <wgt id="536">3.49373e-12</wgt>
  <wgt id="537">2.47782e-12</wgt>
  <wgt id="538">2.9215e-12</wgt>
  <wgt id="539">3.01691e-12</wgt>
  <wgt id="540">2.71639e-12</wgt>
  <wgt id="541">3.04519e-12</wgt>
  <wgt id="542">2.47415e-12</wgt>
  <wgt id="543">2.56003e-12</wgt>
  <wgt id="544">2.8333e-12</wgt>
  <wgt id="545">2.61927e-12</wgt>
  <wgt id="546">2.65994e-12</wgt>
  <wgt id="547">2.69827e-12</wgt>
  <wgt id="548">3.44449e-12</wgt>
  <wgt id="549">2.93945e-12</wgt>
  <wgt id="550">2.25013e-12</wgt>
  <wgt id="551">2.59107e-12</wgt>
  <wgt id="552">3.56165e-12</wgt>
  <wgt id="553">2.56421e-12</wgt>
  <wgt id="554">2.90621e-12</wgt>
  <wgt id="555">2.90933e-12</wgt>
  <wgt id="556">3.26019e-12</wgt>
  <wgt id="557">2.76894e-12</wgt>
  <wgt id="558">2.92568e-12</wgt>
  <wgt id="559">3.23592e-12</wgt>
  <wgt id="560">3.20884e-12</wgt>
  <wgt id="561">3.56617e-12</wgt>
  <wgt id="562">3.24381e-12</wgt>
  <wgt id="563">3.17735e-12</wgt>
  <wgt id="564">3.55966e-12</wgt>
  <wgt id="565">3.69115e-12</wgt>
  <wgt id="566">2.32933e-12</wgt>
  <wgt id="567">3.34279e-12</wgt>
  <wgt id="568">2.40724e-12</wgt>
  <wgt id="569">3.15816e-12</wgt>
  <wgt id="570">3.30519e-12</wgt>
  <wgt id="571">3.55175e-12</wgt>
  <wgt id="572">2.50396e-12</wgt>
  <wgt id="573">2.97111e-12</wgt>
  <wgt id="574">3.11185e-12</wgt>
  <wgt id="575">3.13504e-12</wgt>
  <wgt id="576">3.45812e-12</wgt>
  <wgt id="577">3.15307e-12</wgt>
  <wgt id="578">2.40175e-12</wgt>
  <wgt id="579">3.27359e-12</wgt>
  <wgt id="580">3.13161e-12</wgt>
  <wgt id="581">3.62985e-12</wgt>
  <wgt id="582">3.12799e-12</wgt>
  <wgt id="583">3.52065e-12</wgt>
  <wgt id="584">3.31124e-12</wgt>
  <wgt id="585">2.83883e-12</wgt>
  <wgt id="586">2.87085e-12</wgt>
  <wgt id="587">3.20738e-12</wgt>
  <wgt id="588">4.22315e-12</wgt>
  <wgt id="589">3.69067e-12</wgt>
  <wgt id="590">3.34667e-12</wgt>
  <wgt id="591">3.3752e-12</wgt>
  <wgt id="592">3.39649e-12</wgt>
  <wgt id="593">3.12558e-12</wgt>
  <wgt id="594">3.06593e-12</wgt>
  <wgt id="595">3.66066e-12</wgt>
  <wgt id="596">3.37848e-12</wgt>
  <wgt id="597">2.96214e-12</wgt>
  <wgt id="598">3.87587e-12</wgt>
  <wgt id="599">3.69415e-12</wgt>
  <wgt id="600">3.50545e-12</wgt>
  <wgt id="601">2.94228e-12</wgt>
  <wgt id="602">2.541e-12</wgt>
  <wgt id="603">2.406e-12</wgt>
  <wgt id="604">3.6534e-12</wgt>
  <wgt id="605">2.91359e-12</wgt>
  <wgt id="606">2.1744e-12</wgt>
  <wgt id="607">3.35629e-12</wgt>
  <wgt id="608">3.15789e-12</wgt>
  <wgt id="609">2.98204e-12</wgt>
  <wgt id="610">2.67389e-12</wgt>
  <wgt id="611">2.76356e-12</wgt>
  <wgt id="612">2.96581e-12</wgt>
  <wgt id="613">2.73356e-12</wgt>
  <wgt id="614">3.4083e-12</wgt>
  <wgt id="615">3.49962e-12</wgt>
  <wgt id="616">2.45618e-12</wgt>
  <wgt id="617">3.26323e-12</wgt>
  <wgt id="618">3.63337e-12</wgt>
  <wgt id="619">3.02093e-12</wgt>
  <wgt id="620">3.20898e-12</wgt>
  <wgt id="621">3.31622e-12</wgt>
  <wgt id="622">3.20738e-12</wgt>
  <wgt id="623">3.08901e-12</wgt>
  <wgt id="624">2.84591e-12</wgt>
  <wgt id="625">2.9017e-12</wgt>
  <wgt id="626">1.39246e-12</wgt>
  <wgt id="627">2.67174e-12</wgt>
  <wgt id="628">3.25966e-12</wgt>
  <wgt id="629">4.09178e-12</wgt>
  <wgt id="630">3.51814e-12</wgt>
  <wgt id="631">3.75086e-12</wgt>
  <wgt id="632">2.8683e-12</wgt>
  <wgt id="633">3.14446e-12</wgt>
  <wgt id="634">2.61488e-12</wgt>
  <wgt id="635">3.04236e-12</wgt>
  <wgt id="636">2.67976e-12</wgt>
  <wgt id="637">3.26649e-12</wgt>
  <wgt id="638">2.87695e-12</wgt>
  <wgt id="639">2.63107e-12</wgt>
  <wgt id="640">2.598e-12</wgt>
  <wgt id="641">3.65399e-12</wgt>
  <wgt id="642">2.48303e-12</wgt>
  <wgt id="643">3.0083e-12</wgt>
  <wgt id="644">3.13663e-12</wgt>
  <wgt id="645">3.48938e-12</wgt>
  <wgt id="646">2.26504e-12</wgt>
  <wgt id="647">3.66542e-12</wgt>
  <wgt id="648">3.71731e-12</wgt>
  <wgt id="649">3.54635e-12</wgt>
  <wgt id="650">3.24965e-12</wgt>
  <wgt id="651">3.14891e-12</wgt>
  <wgt id="652">2.82281e-12</wgt>
  <wgt id="653">3.05854e-12</wgt>
  <wgt id="654">3.10847e-12</wgt>
  <wgt id="655">2.48038e-12</wgt>
  <wgt id="656">3.53591e-12</wgt>
  <wgt id="657">3.72392e-12</wgt>
  <wgt id="658">2.84262e-12</wgt>
  <wgt id="659">3.2823e-12</wgt>
  <wgt id="660">2.57102e-12</wgt>
  <wgt id="661">2.90369e-12</wgt>
  <wgt id="662">3.28743e-12</wgt>
  <wgt id="663">3.48718e-12</wgt>
  <wgt id="664">3.63324e-12</wgt>
  <wgt id="665">2.84796e-12</wgt>
  <wgt id="666">2.96636e-12</wgt>
  <wgt id="667">3.15805e-12</wgt>
  <wgt id="668">3.09125e-12</wgt>
  <wgt id="669">2.82783e-12</wgt>
  <wgt id="670">3.52678e-12</wgt>
  <wgt id="671">3.18715e-12</wgt>
  <wgt id="672">3.62413e-12</wgt>
  <wgt id="673">3.62104e-12</wgt>
  <wgt id="674">3.04473e-12</wgt>
  <wgt id="675">2.80843e-12</wgt>
  <wgt id="676">4.35e-12</wgt>
  <wgt id="677">4.24667e-12</wgt>
  <wgt id="678">5.23072e-12</wgt>
  <wgt id="679">4.88273e-12</wgt>
  <wgt id="680">4.61157e-12</wgt>
  <wgt id="681">4.11363e-12</wgt>
  <wgt id="682">4.97068e-12</wgt>
  <wgt id="683">3.78602e-12</wgt>
  <wgt id="684">5.2246e-12</wgt>
  <wgt id="685">4.69303e-12</wgt>
  <wgt id="686">4.76971e-12</wgt>
  <wgt id="687">3.96106e-12</wgt>
  <wgt id="688">4.51332e-12</wgt>
  <wgt id="689">5.55558e-12</wgt>
  <wgt id="690">4.96752e-12</wgt>
  <wgt id="691">4.89365e-12</wgt>
  <wgt id="692">3.87926e-12</wgt>
  <wgt id="693">7.49541e-12</wgt>
  <wgt id="694">5.55259e-12</wgt>
  <wgt id="695">3.26953e-12</wgt>
  <wgt id="696">3.16039e-12</wgt>
  <wgt id="697">3.03616e-12</wgt>
  <wgt id="698">2.5504e-12</wgt>
  <wgt id="699">3.55785e-12</wgt>
  <wgt id="700">3.10007e-12</wgt>
  <wgt id="701">4.56525e-12</wgt>
  <wgt id="702">3.81578e-12</wgt>
  <wgt id="703">6.91152e-12</wgt>
  <wgt id="704">5.45139e-12</wgt>
  <wgt id="705">4.5409e-12</wgt>
  <wgt id="706">3.00246e-12</wgt>
  <wgt id="707">3.67427e-12</wgt>
  <wgt id="708">3.76587e-12</wgt>
  <wgt id="709">3.65951e-12</wgt>
  <wgt id="710">1.51197e-12</wgt>
  <wgt id="711">5.12553e-12</wgt>
  <wgt id="712">4.03297e-12</wgt>
  <wgt id="713">4.83462e-12</wgt>
  <wgt id="714">3.10027e-12</wgt>
  <wgt id="715">3.38557e-12</wgt>
  <wgt id="716">3.86036e-12</wgt>
  <wgt id="717">2.6593e-12</wgt>
  <wgt id="718">4.32541e-12</wgt>
  <wgt id="719">3.87035e-12</wgt>
  <wgt id="720">4.17369e-12</wgt>
  <wgt id="721">3.19604e-12</wgt>
  <wgt id="722">1.37569e-12</wgt>
  <wgt id="723">6.06835e-12</wgt>
  <wgt id="724">5.03417e-12</wgt>
  <wgt id="725">4.94077e-12</wgt>
  <wgt id="726">4.32913e-12</wgt>
  <wgt id="727">4.5871e-12</wgt>
  <wgt id="728">5.59067e-12</wgt>
  <wgt id="729">2.68314e-12</wgt>
  <wgt id="730">5.56312e-12</wgt>
  <wgt id="731">4.28834e-12</wgt>
  <wgt id="732">5.38771e-12</wgt>
  <wgt id="733">3.75541e-12</wgt>
  <wgt id="734">4.6758e-12</wgt>
  <wgt id="735">3.60038e-12</wgt>
  <wgt id="736">3.52245e-12</wgt>
  <wgt id="737">2.10621e-12</wgt>
  <wgt id="738">3.73422e-12</wgt>
  <wgt id="739">4.38782e-12</wgt>
  <wgt id="740">6.18068e-12</wgt>
  <wgt id="741">5.39367e-12</wgt>
  <wgt id="742">3.234e-12</wgt>
  <wgt id="743">3.83681e-12</wgt>
  <wgt id="744">3.94189e-12</wgt>
  <wgt id="745">5.58957e-12</wgt>
  <wgt id="746">5.91695e-12</wgt>
  <wgt id="747">3.23771e-12</wgt>
  <wgt id="748">4.12594e-12</wgt>
  <wgt id="749">5.33922e-12</wgt>
  <wgt id="750">5.27845e-12</wgt>
  <wgt id="751">4.73253e-12</wgt>
  <wgt id="752">3.51491e-12</wgt>
  <wgt id="753">3.45302e-12</wgt>
  <wgt id="754">4.46401e-12</wgt>
  <wgt id="755">3.71304e-12</wgt>
  <wgt id="756">3.78213e-12</wgt>
  <wgt id="757">3.42733e-12</wgt>
  <wgt id="758">4.41316e-12</wgt>
  <wgt id="759">4.59137e-12</wgt>
  <wgt id="760">3.42982e-12</wgt>
  <wgt id="761">5.62357e-12</wgt>
  <wgt id="762">5.5521e-12</wgt>
  <wgt id="763">6.06528e-12</wgt>
  <wgt id="764">5.44683e-12</wgt>
  <wgt id="765">4.83642e-12</wgt>
  <wgt id="766">5.14772e-12</wgt>
  <wgt id="767">4.96174e-12</wgt>
  <wgt id="768">3.62529e-12</wgt>
  <wgt id="769">4.55903e-12</wgt>
  <wgt id="770">2.23477e-12</wgt>
  <wgt id="771">6.88656e-12</wgt>
  <wgt id="772">3.93017e-12</wgt>
  <wgt id="773">4.94401e-12</wgt>
  <wgt id="774">3.16089e-12</wgt>
  <wgt id="775">5.03417e-12</wgt>
  <wgt id="776">6.62213e-12</wgt>
  <wgt id="777">2.38246e-12</wgt>
  <wgt id="778">1.85584e-12</wgt>
  <wgt id="779">5.17682e-20</wgt>
  <wgt id="780">5.14745e-20</wgt>
  <wgt id="781">8.96979e-13</wgt>
  <wgt id="782">1.35335e-12</wgt>
  <wgt id="783">5.19835e-20</wgt>
  <wgt id="784">5.2158e-20</wgt>
  <wgt id="785">4.3186e-12</wgt>
  <wgt id="786">5.11875e-20</wgt>
  <wgt id="787">3.59255e-12</wgt>
  <wgt id="788">5.00072e-20</wgt>
  <wgt id="789">5.44655e-20</wgt>
  <wgt id="790">5.11823e-20</wgt>
  <wgt id="791">1.05216e-12</wgt>
  <wgt id="792">2.3242e-12</wgt>
  <wgt id="793">5.25951e-20</wgt>
  <wgt id="794">5.113e-20</wgt>
  <wgt id="795">3.82922e-12</wgt>
  <wgt id="796">4.31061e-12</wgt>
  <wgt id="797">3.2991e-12</wgt>
  <wgt id="798">5.14511e-20</wgt>
  <wgt id="799">3.98999e-12</wgt>
  <wgt id="800">5.26337e-20</wgt>
  <wgt id="801">3.1851e-12</wgt>
  <wgt id="802">5.22003e-20</wgt>
  <wgt id="803">3.30353e-12</wgt>
  <wgt id="804">4.01821e-12</wgt>
  <wgt id="805">3.96073e-12</wgt>
  <wgt id="806">1.9612e-12</wgt>
  <wgt id="807">9.67753e-13</wgt>
  <wgt id="808">2.55236e-12</wgt>
  <wgt id="809">5.36775e-20</wgt>
  <wgt id="810">6.17458e-12</wgt>
  <wgt id="811">2.50878e-12</wgt>
  <wgt id="812">5.19883e-20</wgt>
  <wgt id="813">5.13554e-20</wgt>
  <wgt id="814">5.00861e-20</wgt>
  <wgt id="815">5.1706e-20</wgt>
  <wgt id="816">5.23971e-20</wgt>
  <wgt id="817">2.44196e-12</wgt>
  <wgt id="818">3.58871e-12</wgt>
  <wgt id="819">5.227e-20</wgt>
  <wgt id="820">3.41517e-13</wgt>
  <wgt id="821">3.13424e-12</wgt>
  <wgt id="822">5.30959e-20</wgt>
  <wgt id="823">4.02141e-12</wgt>
  <wgt id="824">3.07969e-12</wgt>
  <wgt id="825">5.11028e-20</wgt>
  <wgt id="826">4.13249e-12</wgt>
  <wgt id="827">5.14976e-20</wgt>
  <wgt id="828">2.75465e-12</wgt>
  <wgt id="829">2.11092e-12</wgt>
  <wgt id="830">5.12989e-20</wgt>
  <wgt id="831">3.25247e-12</wgt>
  <wgt id="832">5.93284e-12</wgt>
  <wgt id="833">5.31436e-20</wgt>
  <wgt id="834">6.16052e-12</wgt>
  <wgt id="835">5.21424e-20</wgt>
  <wgt id="836">5.4652e-20</wgt>
  <wgt id="837">3.17335e-12</wgt>
  <wgt id="838">5.21569e-20</wgt>
  <wgt id="839">4.06683e-12</wgt>
  <wgt id="840">8.62927e-13</wgt>
  <wgt id="841">3.66945e-12</wgt>
  <wgt id="842">3.8975e-13</wgt>
  <wgt id="843">9.64733e-13</wgt>
  <wgt id="844">3.1588e-12</wgt>
  <wgt id="845">5.67082e-12</wgt>
  <wgt id="846">5.43583e-20</wgt>
  <wgt id="847">2.69565e-12</wgt>
  <wgt id="848">5.27124e-20</wgt>
  <wgt id="849">3.22226e-12</wgt>
  <wgt id="850">5.20542e-12</wgt>
  <wgt id="851">3.20757e-12</wgt>
  <wgt id="852">5.20801e-20</wgt>
  <wgt id="853">3.33565e-12</wgt>
  <wgt id="854">4.62495e-12</wgt>
  <wgt id="855">2.31699e-12</wgt>
  <wgt id="856">5.11471e-20</wgt>
  <wgt id="857">5.3105e-20</wgt>
  <wgt id="858">2.65448e-12</wgt>
  <wgt id="859">8.88522e-13</wgt>
  <wgt id="860">1.25723e-12</wgt>
  <wgt id="861">5.35196e-20</wgt>
  <wgt id="862">2.45987e-12</wgt>
  <wgt id="863">3.37459e-12</wgt>
  <wgt id="864">1.56257e-12</wgt>
  <wgt id="865">5.14829e-12</wgt>
  <wgt id="866">5.40268e-12</wgt>
  <wgt id="867">2.10811e-12</wgt>
  <wgt id="868">3.09366e-12</wgt>
  <wgt id="869">5.15288e-20</wgt>
  <wgt id="870">5.21408e-20</wgt>
  <wgt id="871">4.58161e-14</wgt>
  <wgt id="872">5.50466e-12</wgt>
  <wgt id="873">5.2559e-20</wgt>
  <wgt id="874">3.04326e-12</wgt>
  <wgt id="875">5.16349e-20</wgt>
  <wgt id="876">4.89865e-12</wgt>
  <wgt id="877">3.04321e-12</wgt>
  <wgt id="878">5.27425e-20</wgt>
  <wgt id="879">4.35e-12</wgt>
  <wgt id="880">4.24667e-12</wgt>
  <wgt id="881">5.23072e-12</wgt>
  <wgt id="882">4.88273e-12</wgt>
  <wgt id="883">4.61157e-12</wgt>
  <wgt id="884">4.11363e-12</wgt>
  <wgt id="885">4.97068e-12</wgt>
  <wgt id="886">3.78602e-12</wgt>
  <wgt id="887">5.2246e-12</wgt>
  <wgt id="888">4.69303e-12</wgt>
  <wgt id="889">4.76971e-12</wgt>
  <wgt id="890">3.96106e-12</wgt>
  <wgt id="891">4.51332e-12</wgt>
  <wgt id="892">5.55558e-12</wgt>
  <wgt id="893">4.96752e-12</wgt>
  <wgt id="894">4.89365e-12</wgt>
  <wgt id="895">3.87926e-12</wgt>
  <wgt id="896">7.49541e-12</wgt>
  <wgt id="897">5.55259e-12</wgt>
  <wgt id="898">3.26953e-12</wgt>
  <wgt id="899">3.16039e-12</wgt>
  <wgt id="900">3.03616e-12</wgt>
  <wgt id="901">2.5504e-12</wgt>
  <wgt id="902">3.55785e-12</wgt>
  <wgt id="903">3.10007e-12</wgt>
  <wgt id="904">4.56525e-12</wgt>
  <wgt id="905">3.81578e-12</wgt>
  <wgt id="906">6.91152e-12</wgt>
  <wgt id="907">5.45139e-12</wgt>
  <wgt id="908">4.5409e-12</wgt>
  <wgt id="909">3.00246e-12</wgt>
  <wgt id="910">3.67427e-12</wgt>
  <wgt id="911">3.76587e-12</wgt>
  <wgt id="912">3.65951e-12</wgt>
  <wgt id="913">1.51197e-12</wgt>
  <wgt id="914">5.12553e-12</wgt>
  <wgt id="915">4.03297e-12</wgt>
  <wgt id="916">4.83462e-12</wgt>
  <wgt id="917">3.10027e-12</wgt>
  <wgt id="918">3.38557e-12</wgt>
  <wgt id="919">3.86036e-12</wgt>
  <wgt id="920">2.6593e-12</wgt>
  <wgt id="921">4.32541e-12</wgt>
  <wgt id="922">3.87035e-12</wgt>
  <wgt id="923">4.17369e-12</wgt>
  <wgt id="924">3.19604e-12</wgt>
  <wgt id="925">1.37569e-12</wgt>
  <wgt id="926">6.06835e-12</wgt>
  <wgt id="927">5.03417e-12</wgt>
  <wgt id="928">4.94077e-12</wgt>
  <wgt id="929">4.32913e-12</wgt>
  <wgt id="930">4.5871e-12</wgt>
  <wgt id="931">5.59067e-12</wgt>
  <wgt id="932">2.68314e-12</wgt>
  <wgt id="933">5.56312e-12</wgt>
  <wgt id="934">4.28834e-12</wgt>
  <wgt id="935">5.38771e-12</wgt>
  <wgt id="936">3.75541e-12</wgt>
  <wgt id="937">4.6758e-12</wgt>
  <wgt id="938">3.60038e-12</wgt>
  <wgt id="939">3.52245e-12</wgt>
  <wgt id="940">2.10621e-12</wgt>
  <wgt id="941">3.73422e-12</wgt>
  <wgt id="942">4.38782e-12</wgt>
  <wgt id="943">6.18068e-12</wgt>
  <wgt id="944">5.39367e-12</wgt>
  <wgt id="945">3.234e-12</wgt>
  <wgt id="946">3.83681e-12</wgt>
  <wgt id="947">3.94189e-12</wgt>
  <wgt id="948">5.58957e-12</wgt>
  <wgt id="949">5.91695e-12</wgt>
  <wgt id="950">3.23771e-12</wgt>
  <wgt id="951">4.12594e-12</wgt>
  <wgt id="952">5.33922e-12</wgt>
  <wgt id="953">5.27845e-12</wgt>
  <wgt id="954">4.73253e-12</wgt>
  <wgt id="955">3.51491e-12</wgt>
  <wgt id="956">3.45302e-12</wgt>
  <wgt id="957">4.46401e-12</wgt>
  <wgt id="958">3.71304e-12</wgt>
  <wgt id="959">3.78213e-12</wgt>
  <wgt id="960">3.42733e-12</wgt>
  <wgt id="961">4.41316e-12</wgt>
  <wgt id="962">4.59137e-12</wgt>
  <wgt id="963">3.42982e-12</wgt>
  <wgt id="964">5.62357e-12</wgt>
  <wgt id="965">5.5521e-12</wgt>
  <wgt id="966">6.06528e-12</wgt>
  <wgt id="967">5.44683e-12</wgt>
  <wgt id="968">4.83642e-12</wgt>
  <wgt id="969">5.14772e-12</wgt>
  <wgt id="970">4.96174e-12</wgt>
  <wgt id="971">3.62529e-12</wgt>
  <wgt id="972">4.55903e-12</wgt>
  <wgt id="973">2.23477e-12</wgt>
  <wgt id="974">6.88656e-12</wgt>
  <wgt id="975">3.93017e-12</wgt>
  <wgt id="976">4.94401e-12</wgt>
  <wgt id="977">3.16089e-12</wgt>
  <wgt id="978">5.03417e-12</wgt>
  <wgt id="979">6.62213e-12</wgt>
  <wgt id="980">4.27453e-12</wgt>
  <wgt id="981">4.82843e-12</wgt>
  <wgt id="982">4.49298e-12</wgt>
</rwgt>
</event>
<event>
 5   1  0.3028200E-11  0.2291491E+04  0.7818608E-02  0.7715261E-01
       21   -1    0    0  502  501  0.00000000000E+00  0.00000000000E+00  0.10902189016E+04  0.10902189016E+04  0.00000000000E+00 0. -1.
       21   -1    0    0  501  502 -0.00000000000E+00 -0.00000000000E+00 -0.12041002673E+04  0.12041002673E+04  0.00000000000E+00 0.  1.
       39    2    1    2    0    0  0.00000000000E+00  0.00000000000E+00 -0.11388136574E+03  0.22943191689E+04  0.22914911048E+04 0.  0.
       25    1    3    3    0    0  0.96650274572E+03 -0.47682743197E+03 -0.42565583473E+03  0.11654612164E+04  0.12500000000E+03 0.  0.
       25    1    3    3    0    0 -0.96650274572E+03  0.47682743197E+03  0.31177446898E+03  0.11288579525E+04  0.12500000000E+03 0.  0.
<mgrwt>
<rscale>  0 0.22914911E+04</rscale>
<asrwt>0</asrwt>
<pdfrwt beam="1">  1       21 0.16772598E+00 0.22914911E+04</pdfrwt>
<pdfrwt beam="2">  1       21 0.18524619E+00 0.22914911E+04</pdfrwt>
<totfact> 0.14373755E+01</totfact>
</mgrwt>
<rwgt>
  <wgt id="1">3.0282e-12</wgt>
  <wgt id="2">2.63864e-12</wgt>
  <wgt id="3">3.51138e-12</wgt>
  <wgt id="4">3.0282e-12</wgt>
  <wgt id="5">2.63864e-12</wgt>
  <wgt id="6">3.51138e-12</wgt>
  <wgt id="7">3.0282e-12</wgt>
  <wgt id="8">2.63864e-12</wgt>
  <wgt id="9">3.51138e-12</wgt>
  <wgt id="10">3.12471e-12</wgt>
  <wgt id="11">3.12131e-12</wgt>
  <wgt id="12">3.11843e-12</wgt>
  <wgt id="13">3.11373e-12</wgt>
  <wgt id="14">3.13608e-12</wgt>
  <wgt id="15">3.12915e-12</wgt>
  <wgt id="16">3.11777e-12</wgt>
  <wgt id="17">3.12906e-12</wgt>
  <wgt id="18">3.11954e-12</wgt>
  <wgt id="19">3.13163e-12</wgt>
  <wgt id="20">3.11488e-12</wgt>
  <wgt id="21">3.10825e-12</wgt>
  <wgt id="22">3.11576e-12</wgt>
  <wgt id="23">3.09861e-12</wgt>
  <wgt id="24">3.11164e-12</wgt>
  <wgt id="25">3.11747e-12</wgt>
  <wgt id="26">3.13846e-12</wgt>
  <wgt id="27">3.12493e-12</wgt>
  <wgt id="28">3.11049e-12</wgt>
  <wgt id="29">3.12799e-12</wgt>
  <wgt id="30">3.11869e-12</wgt>
  <wgt id="31">3.13205e-12</wgt>
  <wgt id="32">3.12026e-12</wgt>
  <wgt id="33">3.13231e-12</wgt>
  <wgt id="34">3.11616e-12</wgt>
  <wgt id="35">3.1233e-12</wgt>
  <wgt id="36">3.13332e-12</wgt>
  <wgt id="37">3.11681e-12</wgt>
  <wgt id="38">3.11627e-12</wgt>
  <wgt id="39">3.15486e-12</wgt>
  <wgt id="40">3.13259e-12</wgt>
  <wgt id="41">3.12425e-12</wgt>
  <wgt id="42">3.13356e-12</wgt>
  <wgt id="43">3.12681e-12</wgt>
  <wgt id="44">3.11207e-12</wgt>
  <wgt id="45">3.13096e-12</wgt>
  <wgt id="46">3.13025e-12</wgt>
  <wgt id="47">3.10971e-12</wgt>
  <wgt id="48">3.12468e-12</wgt>
  <wgt id="49">3.13626e-12</wgt>
  <wgt id="50">3.14663e-12</wgt>
  <wgt id="51">3.14048e-12</wgt>
  <wgt id="52">3.11584e-12</wgt>
  <wgt id="53">3.10176e-12</wgt>
  <wgt id="54">3.11717e-12</wgt>
  <wgt id="55">3.12415e-12</wgt>
  <wgt id="56">3.13452e-12</wgt>
  <wgt id="57">3.13588e-12</wgt>
  <wgt id="58">3.1016e-12</wgt>
  <wgt id="59">3.11325e-12</wgt>
  <wgt id="60">3.12516e-12</wgt>
  <wgt id="61">3.12112e-12</wgt>
  <wgt id="62">3.12547e-12</wgt>
  <wgt id="63">3.12959e-12</wgt>
  <wgt id="64">3.12859e-12</wgt>
  <wgt id="65">3.12741e-12</wgt>
  <wgt id="66">3.12065e-12</wgt>
  <wgt id="67">3.12176e-12</wgt>
  <wgt id="68">3.12113e-12</wgt>
  <wgt id="69">3.12369e-12</wgt>
  <wgt id="70">3.12186e-12</wgt>
  <wgt id="71">3.12354e-12</wgt>
  <wgt id="72">3.12189e-12</wgt>
  <wgt id="73">3.12688e-12</wgt>
  <wgt id="74">3.12676e-12</wgt>
  <wgt id="75">3.12413e-12</wgt>
  <wgt id="76">3.13316e-12</wgt>
  <wgt id="77">3.12428e-12</wgt>
  <wgt id="78">3.12572e-12</wgt>
  <wgt id="79">3.12975e-12</wgt>
  <wgt id="80">3.11186e-12</wgt>
  <wgt id="81">3.12056e-12</wgt>
  <wgt id="82">3.12474e-12</wgt>
  <wgt id="83">3.11337e-12</wgt>
  <wgt id="84">3.11781e-12</wgt>
  <wgt id="85">3.11992e-12</wgt>
  <wgt id="86">3.13071e-12</wgt>
  <wgt id="87">3.11045e-12</wgt>
  <wgt id="88">3.12827e-12</wgt>
  <wgt id="89">3.1275e-12</wgt>
  <wgt id="90">3.12806e-12</wgt>
  <wgt id="91">3.12657e-12</wgt>
  <wgt id="92">3.13012e-12</wgt>
  <wgt id="93">3.12392e-12</wgt>
  <wgt id="94">3.12215e-12</wgt>
  <wgt id="95">3.1261e-12</wgt>
  <wgt id="96">3.12679e-12</wgt>
  <wgt id="97">3.12118e-12</wgt>
  <wgt id="98">3.12622e-12</wgt>
  <wgt id="99">3.12415e-12</wgt>
  <wgt id="100">3.12766e-12</wgt>
  <wgt id="101">3.12338e-12</wgt>
  <wgt id="102">3.12156e-12</wgt>
  <wgt id="103">3.12884e-12</wgt>
  <wgt id="104">3.12206e-12</wgt>
  <wgt id="105">3.12708e-12</wgt>
  <wgt id="106">3.12122e-12</wgt>
  <wgt id="107">3.13218e-12</wgt>
  <wgt id="108">3.12193e-12</wgt>
  <wgt id="109">3.12617e-12</wgt>
  <wgt id="110">3.12396e-12</wgt>
  <wgt id="111">3.15922e-12</wgt>
  <wgt id="112">3.11828e-12</wgt>
  <wgt id="113">4.163e-12</wgt>
  <wgt id="114">4.32511e-12</wgt>
  <wgt id="115">4.26714e-12</wgt>
  <wgt id="116">5.94526e-12</wgt>
  <wgt id="117">3.46922e-12</wgt>
  <wgt id="118">3.48107e-12</wgt>
  <wgt id="119">3.4626e-12</wgt>
  <wgt id="120">3.46957e-12</wgt>
  <wgt id="121">3.46897e-12</wgt>
  <wgt id="122">3.46315e-12</wgt>
  <wgt id="123">3.47774e-12</wgt>
  <wgt id="124">3.46432e-12</wgt>
  <wgt id="125">3.47257e-12</wgt>
  <wgt id="126">3.47553e-12</wgt>
  <wgt id="127">3.46507e-12</wgt>
  <wgt id="128">3.48018e-12</wgt>
  <wgt id="129">3.45836e-12</wgt>
  <wgt id="130">3.48952e-12</wgt>
  <wgt id="131">3.44845e-12</wgt>
  <wgt id="132">3.38018e-12</wgt>
  <wgt id="133">3.57437e-12</wgt>
  <wgt id="134">3.43252e-12</wgt>
  <wgt id="135">3.4979e-12</wgt>
  <wgt id="136">3.51241e-12</wgt>
  <wgt id="137">3.41696e-12</wgt>
  <wgt id="138">3.60012e-12</wgt>
  <wgt id="139">3.34239e-12</wgt>
  <wgt id="140">3.44569e-12</wgt>
  <wgt id="141">3.48769e-12</wgt>
  <wgt id="142">3.46983e-12</wgt>
  <wgt id="143">3.47357e-12</wgt>
  <wgt id="144">3.37825e-12</wgt>
  <wgt id="145">3.55316e-12</wgt>
  <wgt id="146">3.49823e-12</wgt>
  <wgt id="147">3.44647e-12</wgt>
  <wgt id="148">3.4796e-12</wgt>
  <wgt id="149">3.46858e-12</wgt>
  <wgt id="150">3.49912e-12</wgt>
  <wgt id="151">3.45525e-12</wgt>
  <wgt id="152">3.47078e-12</wgt>
  <wgt id="153">3.46869e-12</wgt>
  <wgt id="154">3.49901e-12</wgt>
  <wgt id="155">3.43419e-12</wgt>
  <wgt id="156">3.53187e-12</wgt>
  <wgt id="157">3.40138e-12</wgt>
  <wgt id="158">4.17423e-12</wgt>
  <wgt id="159">4.19154e-12</wgt>
  <wgt id="160">4.16023e-12</wgt>
  <wgt id="161">4.16388e-12</wgt>
  <wgt id="162">4.18578e-12</wgt>
  <wgt id="163">4.16989e-12</wgt>
  <wgt id="164">4.18084e-12</wgt>
  <wgt id="165">4.17586e-12</wgt>
  <wgt id="166">4.17315e-12</wgt>
  <wgt id="167">4.1712e-12</wgt>
  <wgt id="168">4.17853e-12</wgt>
  <wgt id="169">4.15644e-12</wgt>
  <wgt id="170">4.18557e-12</wgt>
  <wgt id="171">4.16963e-12</wgt>
  <wgt id="172">4.18076e-12</wgt>
  <wgt id="173">4.17467e-12</wgt>
  <wgt id="174">4.17395e-12</wgt>
  <wgt id="175">4.05858e-12</wgt>
  <wgt id="176">4.32476e-12</wgt>
  <wgt id="177">4.19625e-12</wgt>
  <wgt id="178">4.15388e-12</wgt>
  <wgt id="179">4.34359e-12</wgt>
  <wgt id="180">3.9064e-12</wgt>
  <wgt id="181">4.05592e-12</wgt>
  <wgt id="182">4.25223e-12</wgt>
  <wgt id="183">4.10189e-12</wgt>
  <wgt id="184">4.21031e-12</wgt>
  <wgt id="185">4.14181e-12</wgt>
  <wgt id="186">4.21327e-12</wgt>
  <wgt id="187">4.13779e-12</wgt>
  <wgt id="188">4.24037e-12</wgt>
  <wgt id="189">4.14842e-12</wgt>
  <wgt id="190">4.18495e-12</wgt>
  <wgt id="191">4.18528e-12</wgt>
  <wgt id="192">4.16781e-12</wgt>
  <wgt id="193">4.23195e-12</wgt>
  <wgt id="194">4.1458e-12</wgt>
  <wgt id="195">4.07903e-12</wgt>
  <wgt id="196">4.34783e-12</wgt>
  <wgt id="197">4.19463e-12</wgt>
  <wgt id="198">4.16949e-12</wgt>
  <wgt id="199">4.17423e-12</wgt>
  <wgt id="200">4.20926e-12</wgt>
  <wgt id="201">4.19626e-12</wgt>
  <wgt id="202">4.18386e-12</wgt>
  <wgt id="203">4.16494e-12</wgt>
  <wgt id="204">4.15599e-12</wgt>
  <wgt id="205">4.14868e-12</wgt>
  <wgt id="206">4.05174e-12</wgt>
  <wgt id="207">4.07532e-12</wgt>
  <wgt id="208">4.02846e-12</wgt>
  <wgt id="209">4.06383e-12</wgt>
  <wgt id="210">4.04286e-12</wgt>
  <wgt id="211">4.05039e-12</wgt>
  <wgt id="212">4.05296e-12</wgt>
  <wgt id="213">4.05137e-12</wgt>
  <wgt id="214">4.05235e-12</wgt>
  <wgt id="215">4.05461e-12</wgt>
  <wgt id="216">4.04971e-12</wgt>
  <wgt id="217">4.06341e-12</wgt>
  <wgt id="218">4.04284e-12</wgt>
  <wgt id="219">4.04738e-12</wgt>
  <wgt id="220">4.05437e-12</wgt>
  <wgt id="221">4.04976e-12</wgt>
  <wgt id="222">4.05645e-12</wgt>
  <wgt id="223">3.84191e-12</wgt>
  <wgt id="224">4.2427e-12</wgt>
  <wgt id="225">4.0044e-12</wgt>
  <wgt id="226">4.11117e-12</wgt>
  <wgt id="227">4.01422e-12</wgt>
  <wgt id="228">4.06821e-12</wgt>
  <wgt id="229">3.99637e-12</wgt>
  <wgt id="230">4.07932e-12</wgt>
  <wgt id="231">4.16411e-12</wgt>
  <wgt id="232">3.95934e-12</wgt>
  <wgt id="233">4.03128e-12</wgt>
  <wgt id="234">4.08322e-12</wgt>
  <wgt id="235">3.97948e-12</wgt>
  <wgt id="236">4.12165e-12</wgt>
  <wgt id="237">4.00089e-12</wgt>
  <wgt id="238">4.06931e-12</wgt>
  <wgt id="239">4.02938e-12</wgt>
  <wgt id="240">4.09236e-12</wgt>
  <wgt id="241">4.01216e-12</wgt>
  <wgt id="242">4.09964e-12</wgt>
  <wgt id="243">4.09725e-12</wgt>
  <wgt id="244">4.07599e-12</wgt>
  <wgt id="245">4.04874e-12</wgt>
  <wgt id="246">4.08261e-12</wgt>
  <wgt id="247">4.05174e-12</wgt>
  <wgt id="248">4.08557e-12</wgt>
  <wgt id="249">4.07246e-12</wgt>
  <wgt id="250">4.06056e-12</wgt>
  <wgt id="251">4.04219e-12</wgt>
  <wgt id="252">4.03371e-12</wgt>
  <wgt id="253">4.02748e-12</wgt>
  <wgt id="254">3.97299e-12</wgt>
  <wgt id="255">3.97686e-12</wgt>
  <wgt id="256">3.96877e-12</wgt>
  <wgt id="257">3.97593e-12</wgt>
  <wgt id="258">3.97073e-12</wgt>
  <wgt id="259">3.99956e-12</wgt>
  <wgt id="260">3.94743e-12</wgt>
  <wgt id="261">3.97821e-12</wgt>
  <wgt id="262">3.96678e-12</wgt>
  <wgt id="263">3.9714e-12</wgt>
  <wgt id="264">3.97485e-12</wgt>
  <wgt id="265">3.96847e-12</wgt>
  <wgt id="266">3.98173e-12</wgt>
  <wgt id="267">3.97428e-12</wgt>
  <wgt id="268">3.97132e-12</wgt>
  <wgt id="269">3.98537e-12</wgt>
  <wgt id="270">3.96455e-12</wgt>
  <wgt id="271">3.96663e-12</wgt>
  <wgt id="272">3.98022e-12</wgt>
  <wgt id="273">3.96068e-12</wgt>
  <wgt id="274">3.98238e-12</wgt>
  <wgt id="275">3.9576e-12</wgt>
  <wgt id="276">3.98877e-12</wgt>
  <wgt id="277">3.95081e-12</wgt>
  <wgt id="278">3.99331e-12</wgt>
  <wgt id="279">3.89788e-12</wgt>
  <wgt id="280">4.06691e-12</wgt>
  <wgt id="281">3.95604e-12</wgt>
  <wgt id="282">3.97341e-12</wgt>
  <wgt id="283">3.8635e-12</wgt>
  <wgt id="284">4.10751e-12</wgt>
  <wgt id="285">3.79082e-12</wgt>
  <wgt id="286">4.1229e-12</wgt>
  <wgt id="287">3.98484e-12</wgt>
  <wgt id="288">3.95763e-12</wgt>
  <wgt id="289">3.99951e-12</wgt>
  <wgt id="290">3.91034e-12</wgt>
  <wgt id="291">3.96319e-12</wgt>
  <wgt id="292">3.97532e-12</wgt>
  <wgt id="293">3.94366e-12</wgt>
  <wgt id="294">4.00205e-12</wgt>
  <wgt id="295">3.90063e-12</wgt>
  <wgt id="296">4.06115e-12</wgt>
  <wgt id="297">3.97417e-12</wgt>
  <wgt id="298">3.98648e-12</wgt>
  <wgt id="299">3.96062e-12</wgt>
  <wgt id="300">4.00533e-12</wgt>
  <wgt id="301">3.9242e-12</wgt>
  <wgt id="302">4.10056e-12</wgt>
  <wgt id="303">3.94591e-12</wgt>
  <wgt id="304">3.98878e-12</wgt>
  <wgt id="305">3.99154e-12</wgt>
  <wgt id="306">3.99578e-12</wgt>
  <wgt id="307">3.98729e-12</wgt>
  <wgt id="308">3.99505e-12</wgt>
  <wgt id="309">3.98932e-12</wgt>
  <wgt id="310">4.01919e-12</wgt>
  <wgt id="311">3.96619e-12</wgt>
  <wgt id="312">3.99579e-12</wgt>
  <wgt id="313">3.98758e-12</wgt>
  <wgt id="314">3.99023e-12</wgt>
  <wgt id="315">3.99315e-12</wgt>
  <wgt id="316">3.98736e-12</wgt>
  <wgt id="317">4.00093e-12</wgt>
  <wgt id="318">3.99448e-12</wgt>
  <wgt id="319">3.98698e-12</wgt>
  <wgt id="320">4.00458e-12</wgt>
  <wgt id="321">3.98443e-12</wgt>
  <wgt id="322">3.98304e-12</wgt>
  <wgt id="323">4.00178e-12</wgt>
  <wgt id="324">3.98147e-12</wgt>
  <wgt id="325">4.00064e-12</wgt>
  <wgt id="326">3.97937e-12</wgt>
  <wgt id="327">4.00735e-12</wgt>
  <wgt id="328">3.97161e-12</wgt>
  <wgt id="329">4.00306e-12</wgt>
  <wgt id="330">4.10773e-12</wgt>
  <wgt id="331">3.88084e-12</wgt>
  <wgt id="332">3.97754e-12</wgt>
  <wgt id="333">3.99157e-12</wgt>
  <wgt id="334">3.90514e-12</wgt>
  <wgt id="335">4.09879e-12</wgt>
  <wgt id="336">3.85891e-12</wgt>
  <wgt id="337">4.15239e-12</wgt>
  <wgt id="338">4.03415e-12</wgt>
  <wgt id="339">3.95232e-12</wgt>
  <wgt id="340">4.01711e-12</wgt>
  <wgt id="341">3.92582e-12</wgt>
  <wgt id="342">3.98492e-12</wgt>
  <wgt id="343">3.98821e-12</wgt>
  <wgt id="344">3.965e-12</wgt>
  <wgt id="345">4.02267e-12</wgt>
  <wgt id="346">3.91637e-12</wgt>
  <wgt id="347">4.07854e-12</wgt>
  <wgt id="348">3.99463e-12</wgt>
  <wgt id="349">4.00243e-12</wgt>
  <wgt id="350">3.97616e-12</wgt>
  <wgt id="351">4.03113e-12</wgt>
  <wgt id="352">3.93703e-12</wgt>
  <wgt id="353">4.12665e-12</wgt>
  <wgt id="354">3.94965e-12</wgt>
  <wgt id="355">4.01759e-12</wgt>
  <wgt id="356">3.97299e-12</wgt>
  <wgt id="357">4.00992e-12</wgt>
  <wgt id="358">3.99154e-12</wgt>
  <wgt id="359">3.98877e-12</wgt>
  <wgt id="360">3.99354e-12</wgt>
  <wgt id="361">3.98422e-12</wgt>
  <wgt id="362">4.05061e-12</wgt>
  <wgt id="363">4.0411e-12</wgt>
  <wgt id="364">4.02832e-12</wgt>
  <wgt id="365">4.01523e-12</wgt>
  <wgt id="366">4.00053e-12</wgt>
  <wgt id="367">3.96964e-12</wgt>
  <wgt id="368">3.95304e-12</wgt>
  <wgt id="369">3.93499e-12</wgt>
  <wgt id="370">3.98422e-12</wgt>
  <wgt id="371">4.00206e-12</wgt>
  <wgt id="372">3.99227e-12</wgt>
  <wgt id="373">3.97773e-12</wgt>
  <wgt id="374">3.97558e-12</wgt>
  <wgt id="375">4.21773e-12</wgt>
  <wgt id="376">4.21834e-12</wgt>
  <wgt id="377">4.21703e-12</wgt>
  <wgt id="378">4.2328e-12</wgt>
  <wgt id="379">4.20264e-12</wgt>
  <wgt id="380">4.22903e-12</wgt>
  <wgt id="381">4.2131e-12</wgt>
  <wgt id="382">4.23916e-12</wgt>
  <wgt id="383">4.19639e-12</wgt>
  <wgt id="384">4.22043e-12</wgt>
  <wgt id="385">4.21506e-12</wgt>
  <wgt id="386">4.23436e-12</wgt>
  <wgt id="387">4.21041e-12</wgt>
  <wgt id="388">4.21371e-12</wgt>
  <wgt id="389">4.22242e-12</wgt>
  <wgt id="390">4.22906e-12</wgt>
  <wgt id="391">4.20572e-12</wgt>
  <wgt id="392">4.18707e-12</wgt>
  <wgt id="393">4.23498e-12</wgt>
  <wgt id="394">4.22373e-12</wgt>
  <wgt id="395">4.20916e-12</wgt>
  <wgt id="396">4.21955e-12</wgt>
  <wgt id="397">4.21633e-12</wgt>
  <wgt id="398">4.19909e-12</wgt>
  <wgt id="399">4.2357e-12</wgt>
  <wgt id="400">4.21068e-12</wgt>
  <wgt id="401">4.2334e-12</wgt>
  <wgt id="402">4.18462e-12</wgt>
  <wgt id="403">4.23134e-12</wgt>
  <wgt id="404">4.31021e-12</wgt>
  <wgt id="405">3.99413e-12</wgt>
  <wgt id="406">4.1513e-12</wgt>
  <wgt id="407">4.36115e-12</wgt>
  <wgt id="408">4.25181e-12</wgt>
  <wgt id="409">4.15209e-12</wgt>
  <wgt id="410">4.10833e-12</wgt>
  <wgt id="411">4.26779e-12</wgt>
  <wgt id="412">4.2107e-12</wgt>
  <wgt id="413">4.22761e-12</wgt>
  <wgt id="414">4.17403e-12</wgt>
  <wgt id="415">4.2515e-12</wgt>
  <wgt id="416">4.32196e-12</wgt>
  <wgt id="417">4.0735e-12</wgt>
  <wgt id="418">4.22288e-12</wgt>
  <wgt id="419">4.18962e-12</wgt>
  <wgt id="420">4.27227e-12</wgt>
  <wgt id="421">4.18813e-12</wgt>
  <wgt id="422">4.21424e-12</wgt>
  <wgt id="423">4.22029e-12</wgt>
  <wgt id="424">4.29479e-12</wgt>
  <wgt id="425">4.17018e-12</wgt>
  <wgt id="426">4.21773e-12</wgt>
  <wgt id="427">4.18636e-12</wgt>
  <wgt id="428">4.31484e-12</wgt>
  <wgt id="429">4.25208e-12</wgt>
  <wgt id="430">4.36609e-12</wgt>
  <wgt id="431">4.34349e-12</wgt>
  <wgt id="432">4.32179e-12</wgt>
  <wgt id="433">4.30078e-12</wgt>
  <wgt id="434">4.27567e-12</wgt>
  <wgt id="435">4.22249e-12</wgt>
  <wgt id="436">4.19505e-12</wgt>
  <wgt id="437">4.16922e-12</wgt>
  <wgt id="438">4.25208e-12</wgt>
  <wgt id="439">4.26612e-12</wgt>
  <wgt id="440">4.25799e-12</wgt>
  <wgt id="441">4.24774e-12</wgt>
  <wgt id="442">4.24381e-12</wgt>
  <wgt id="443">4.14968e-12</wgt>
  <wgt id="444">4.16945e-12</wgt>
  <wgt id="445">4.13048e-12</wgt>
  <wgt id="446">4.1244e-12</wgt>
  <wgt id="447">4.13395e-12</wgt>
  <wgt id="448">4.04369e-12</wgt>
  <wgt id="449">4.21008e-12</wgt>
  <wgt id="450">4.12987e-12</wgt>
  <wgt id="451">4.14374e-12</wgt>
  <wgt id="452">4.23851e-12</wgt>
  <wgt id="453">4.18584e-12</wgt>
  <wgt id="454">3.99195e-12</wgt>
  <wgt id="455">4.15319e-12</wgt>
  <wgt id="456">4.09291e-12</wgt>
  <wgt id="457">4.16602e-12</wgt>
  <wgt id="458">4.19336e-12</wgt>
  <wgt id="459">4.17514e-12</wgt>
  <wgt id="460">4.16915e-12</wgt>
  <wgt id="461">4.08009e-12</wgt>
  <wgt id="462">4.11765e-12</wgt>
  <wgt id="463">4.10896e-12</wgt>
  <wgt id="464">4.12774e-12</wgt>
  <wgt id="465">4.18988e-12</wgt>
  <wgt id="466">4.10733e-12</wgt>
  <wgt id="467">4.11199e-12</wgt>
  <wgt id="468">4.1389e-12</wgt>
  <wgt id="469">4.1386e-12</wgt>
  <wgt id="470">4.11614e-12</wgt>
  <wgt id="471">4.11631e-12</wgt>
  <wgt id="472">4.16736e-12</wgt>
  <wgt id="473">4.02403e-12</wgt>
  <wgt id="474">3.0282e-12</wgt>
  <wgt id="475">3.22919e-12</wgt>
  <wgt id="476">2.9611e-12</wgt>
  <wgt id="477">2.94939e-12</wgt>
  <wgt id="478">3.04234e-12</wgt>
  <wgt id="479">2.9812e-12</wgt>
  <wgt id="480">3.12655e-12</wgt>
  <wgt id="481">2.9516e-12</wgt>
  <wgt id="482">2.90352e-12</wgt>
  <wgt id="483">2.94848e-12</wgt>
  <wgt id="484">3.25755e-12</wgt>
  <wgt id="485">3.04143e-12</wgt>
  <wgt id="486">3.08488e-12</wgt>
  <wgt id="487">3.08658e-12</wgt>
  <wgt id="488">3.06503e-12</wgt>
  <wgt id="489">2.93379e-12</wgt>
  <wgt id="490">2.94092e-12</wgt>
  <wgt id="491">2.99172e-12</wgt>
  <wgt id="492">2.92987e-12</wgt>
  <wgt id="493">2.92245e-12</wgt>
  <wgt id="494">2.93872e-12</wgt>
  <wgt id="495">3.09581e-12</wgt>
  <wgt id="496">2.92589e-12</wgt>
  <wgt id="497">2.91657e-12</wgt>
  <wgt id="498">3.06195e-12</wgt>
  <wgt id="499">2.94689e-12</wgt>
  <wgt id="500">2.9803e-12</wgt>
  <wgt id="501">3.16301e-12</wgt>
  <wgt id="502">2.94128e-12</wgt>
  <wgt id="503">3.01992e-12</wgt>
  <wgt id="504">3.03609e-12</wgt>
  <wgt id="505">3.05868e-12</wgt>
  <wgt id="506">3.09472e-12</wgt>
  <wgt id="507">2.99215e-12</wgt>
  <wgt id="508">3.06618e-12</wgt>
  <wgt id="509">3.00787e-12</wgt>
  <wgt id="510">3.10366e-12</wgt>
  <wgt id="511">2.96999e-12</wgt>
  <wgt id="512">3.06187e-12</wgt>
  <wgt id="513">3.15216e-12</wgt>
  <wgt id="514">2.99709e-12</wgt>
  <wgt id="515">2.98524e-12</wgt>
  <wgt id="516">3.10007e-12</wgt>
  <wgt id="517">3.09144e-12</wgt>
  <wgt id="518">3.10014e-12</wgt>
  <wgt id="519">2.94997e-12</wgt>
  <wgt id="520">3.04442e-12</wgt>
  <wgt id="521">3.13855e-12</wgt>
  <wgt id="522">3.13971e-12</wgt>
  <wgt id="523">3.10672e-12</wgt>
  <wgt id="524">3.09081e-12</wgt>
  <wgt id="525">3.11314e-12</wgt>
  <wgt id="526">3.02682e-12</wgt>
  <wgt id="527">3.08147e-12</wgt>
  <wgt id="528">3.0334e-12</wgt>
  <wgt id="529">2.98075e-12</wgt>
  <wgt id="530">3.04422e-12</wgt>
  <wgt id="531">2.99566e-12</wgt>
  <wgt id="532">3.18732e-12</wgt>
  <wgt id="533">2.84093e-12</wgt>
  <wgt id="534">3.03997e-12</wgt>
  <wgt id="535">3.09307e-12</wgt>
  <wgt id="536">3.02745e-12</wgt>
  <wgt id="537">3.04119e-12</wgt>
  <wgt id="538">3.07213e-12</wgt>
  <wgt id="539">2.96487e-12</wgt>
  <wgt id="540">2.97998e-12</wgt>
  <wgt id="541">2.96792e-12</wgt>
  <wgt id="542">2.96519e-12</wgt>
  <wgt id="543">3.02408e-12</wgt>
  <wgt id="544">3.17752e-12</wgt>
  <wgt id="545">2.99188e-12</wgt>
  <wgt id="546">3.00152e-12</wgt>
  <wgt id="547">2.93394e-12</wgt>
  <wgt id="548">2.90458e-12</wgt>
  <wgt id="549">2.97809e-12</wgt>
  <wgt id="550">3.03867e-12</wgt>
  <wgt id="551">3.05845e-12</wgt>
  <wgt id="552">3.0104e-12</wgt>
  <wgt id="553">3.02344e-12</wgt>
  <wgt id="554">3.25372e-12</wgt>
  <wgt id="555">3.10683e-12</wgt>
  <wgt id="556">2.94092e-12</wgt>
  <wgt id="557">3.07091e-12</wgt>
  <wgt id="558">2.92582e-12</wgt>
  <wgt id="559">2.9938e-12</wgt>
  <wgt id="560">3.26634e-12</wgt>
  <wgt id="561">2.95867e-12</wgt>
  <wgt id="562">3.06558e-12</wgt>
  <wgt id="563">2.93565e-12</wgt>
  <wgt id="564">3.01654e-12</wgt>
  <wgt id="565">2.91755e-12</wgt>
  <wgt id="566">3.06793e-12</wgt>
  <wgt id="567">2.98042e-12</wgt>
  <wgt id="568">3.02384e-12</wgt>
  <wgt id="569">3.07048e-12</wgt>
  <wgt id="570">2.9513e-12</wgt>
  <wgt id="571">3.3511e-12</wgt>
  <wgt id="572">2.95692e-12</wgt>
  <wgt id="573">2.88916e-12</wgt>
  <wgt id="574">2.91865e-12</wgt>
  <wgt id="575">3.32405e-12</wgt>
  <wgt id="576">3.27151e-12</wgt>
  <wgt id="577">3.4287e-12</wgt>
  <wgt id="578">3.39408e-12</wgt>
  <wgt id="579">3.36183e-12</wgt>
  <wgt id="580">3.37272e-12</wgt>
  <wgt id="581">3.52087e-12</wgt>
  <wgt id="582">3.2618e-12</wgt>
  <wgt id="583">3.35889e-12</wgt>
  <wgt id="584">3.33001e-12</wgt>
  <wgt id="585">3.36217e-12</wgt>
  <wgt id="586">3.25398e-12</wgt>
  <wgt id="587">3.36507e-12</wgt>
  <wgt id="588">3.29981e-12</wgt>
  <wgt id="589">3.36613e-12</wgt>
  <wgt id="590">3.38493e-12</wgt>
  <wgt id="591">3.45324e-12</wgt>
  <wgt id="592">3.27309e-12</wgt>
  <wgt id="593">3.31106e-12</wgt>
  <wgt id="594">3.4467e-12</wgt>
  <wgt id="595">3.30038e-12</wgt>
  <wgt id="596">3.35267e-12</wgt>
  <wgt id="597">3.20509e-12</wgt>
  <wgt id="598">3.2754e-12</wgt>
  <wgt id="599">3.50908e-12</wgt>
  <wgt id="600">3.28604e-12</wgt>
  <wgt id="601">3.23123e-12</wgt>
  <wgt id="602">3.26506e-12</wgt>
  <wgt id="603">3.27642e-12</wgt>
  <wgt id="604">3.36853e-12</wgt>
  <wgt id="605">3.46011e-12</wgt>
  <wgt id="606">3.23605e-12</wgt>
  <wgt id="607">3.27319e-12</wgt>
  <wgt id="608">3.32299e-12</wgt>
  <wgt id="609">3.12989e-12</wgt>
  <wgt id="610">3.19554e-12</wgt>
  <wgt id="611">3.37443e-12</wgt>
  <wgt id="612">3.55854e-12</wgt>
  <wgt id="613">3.32748e-12</wgt>
  <wgt id="614">3.37115e-12</wgt>
  <wgt id="615">3.25277e-12</wgt>
  <wgt id="616">3.5373e-12</wgt>
  <wgt id="617">3.44725e-12</wgt>
  <wgt id="618">3.31965e-12</wgt>
  <wgt id="619">3.2972e-12</wgt>
  <wgt id="620">3.45402e-12</wgt>
  <wgt id="621">3.3793e-12</wgt>
  <wgt id="622">3.36507e-12</wgt>
  <wgt id="623">3.41504e-12</wgt>
  <wgt id="624">3.30594e-12</wgt>
  <wgt id="625">3.29034e-12</wgt>
  <wgt id="626">3.25604e-12</wgt>
  <wgt id="627">3.20495e-12</wgt>
  <wgt id="628">3.52169e-12</wgt>
  <wgt id="629">3.24571e-12</wgt>
  <wgt id="630">3.21784e-12</wgt>
  <wgt id="631">3.33042e-12</wgt>
  <wgt id="632">3.2288e-12</wgt>
  <wgt id="633">3.28166e-12</wgt>
  <wgt id="634">3.33687e-12</wgt>
  <wgt id="635">3.2893e-12</wgt>
  <wgt id="636">3.34047e-12</wgt>
  <wgt id="637">3.32133e-12</wgt>
  <wgt id="638">3.20128e-12</wgt>
  <wgt id="639">3.28624e-12</wgt>
  <wgt id="640">3.32987e-12</wgt>
  <wgt id="641">3.32963e-12</wgt>
  <wgt id="642">3.22637e-12</wgt>
  <wgt id="643">3.30991e-12</wgt>
  <wgt id="644">3.22195e-12</wgt>
  <wgt id="645">3.35033e-12</wgt>
  <wgt id="646">3.39321e-12</wgt>
  <wgt id="647">3.27375e-12</wgt>
  <wgt id="648">3.33443e-12</wgt>
  <wgt id="649">3.37749e-12</wgt>
  <wgt id="650">3.26774e-12</wgt>
  <wgt id="651">3.34009e-12</wgt>
  <wgt id="652">3.31469e-12</wgt>
  <wgt id="653">3.23614e-12</wgt>
  <wgt id="654">3.31432e-12</wgt>
  <wgt id="655">3.26069e-12</wgt>
  <wgt id="656">3.33483e-12</wgt>
  <wgt id="657">3.40612e-12</wgt>
  <wgt id="658">3.36386e-12</wgt>
  <wgt id="659">3.20193e-12</wgt>
  <wgt id="660">3.39195e-12</wgt>
  <wgt id="661">3.27191e-12</wgt>
  <wgt id="662">3.31995e-12</wgt>
  <wgt id="663">3.3159e-12</wgt>
  <wgt id="664">3.2695e-12</wgt>
  <wgt id="665">3.31084e-12</wgt>
  <wgt id="666">3.3092e-12</wgt>
  <wgt id="667">3.42366e-12</wgt>
  <wgt id="668">3.31162e-12</wgt>
  <wgt id="669">3.40649e-12</wgt>
  <wgt id="670">3.36985e-12</wgt>
  <wgt id="671">3.27872e-12</wgt>
  <wgt id="672">3.18515e-12</wgt>
  <wgt id="673">3.31386e-12</wgt>
  <wgt id="674">3.26048e-12</wgt>
  <wgt id="675">3.26417e-12</wgt>
  <wgt id="676">4.155e-12</wgt>
  <wgt id="677">4.20722e-12</wgt>
  <wgt id="678">4.341e-12</wgt>
  <wgt id="679">3.92018e-12</wgt>
  <wgt id="680">4.0236e-12</wgt>
  <wgt id="681">4.27112e-12</wgt>
  <wgt id="682">4.24223e-12</wgt>
  <wgt id="683">4.11805e-12</wgt>
  <wgt id="684">4.33995e-12</wgt>
  <wgt id="685">3.92513e-12</wgt>
  <wgt id="686">4.14242e-12</wgt>
  <wgt id="687">4.3524e-12</wgt>
  <wgt id="688">4.15037e-12</wgt>
  <wgt id="689">4.48427e-12</wgt>
  <wgt id="690">4.38597e-12</wgt>
  <wgt id="691">4.40656e-12</wgt>
  <wgt id="692">4.12717e-12</wgt>
  <wgt id="693">4.80262e-12</wgt>
  <wgt id="694">4.3874e-12</wgt>
  <wgt id="695">4.02487e-12</wgt>
  <wgt id="696">3.93801e-12</wgt>
  <wgt id="697">4.05224e-12</wgt>
  <wgt id="698">3.87876e-12</wgt>
  <wgt id="699">3.83823e-12</wgt>
  <wgt id="700">3.66805e-12</wgt>
  <wgt id="701">4.16867e-12</wgt>
  <wgt id="702">3.9831e-12</wgt>
  <wgt id="703">4.72002e-12</wgt>
  <wgt id="704">4.48056e-12</wgt>
  <wgt id="705">4.30104e-12</wgt>
  <wgt id="706">3.86876e-12</wgt>
  <wgt id="707">3.99774e-12</wgt>
  <wgt id="708">4.10764e-12</wgt>
  <wgt id="709">4.08781e-12</wgt>
  <wgt id="710">3.72116e-12</wgt>
  <wgt id="711">4.14193e-12</wgt>
  <wgt id="712">4.10374e-12</wgt>
  <wgt id="713">4.46906e-12</wgt>
  <wgt id="714">4.13079e-12</wgt>
  <wgt id="715">4.11795e-12</wgt>
  <wgt id="716">3.9991e-12</wgt>
  <wgt id="717">3.99617e-12</wgt>
  <wgt id="718">4.09955e-12</wgt>
  <wgt id="719">3.79384e-12</wgt>
  <wgt id="720">3.91658e-12</wgt>
  <wgt id="721">3.91122e-12</wgt>
  <wgt id="722">3.74403e-12</wgt>
  <wgt id="723">4.40026e-12</wgt>
  <wgt id="724">4.3271e-12</wgt>
  <wgt id="725">4.39171e-12</wgt>
  <wgt id="726">4.20309e-12</wgt>
  <wgt id="727">4.05617e-12</wgt>
  <wgt id="728">4.09971e-12</wgt>
  <wgt id="729">3.74237e-12</wgt>
  <wgt id="730">4.44615e-12</wgt>
  <wgt id="731">4.1142e-12</wgt>
  <wgt id="732">4.53244e-12</wgt>
  <wgt id="733">4.16746e-12</wgt>
  <wgt id="734">4.25364e-12</wgt>
  <wgt id="735">4.12528e-12</wgt>
  <wgt id="736">4.09939e-12</wgt>
  <wgt id="737">4.2294e-12</wgt>
  <wgt id="738">3.97111e-12</wgt>
  <wgt id="739">4.15983e-12</wgt>
  <wgt id="740">4.59299e-12</wgt>
  <wgt id="741">3.69065e-12</wgt>
  <wgt id="742">4.08895e-12</wgt>
  <wgt id="743">4.0115e-12</wgt>
  <wgt id="744">4.07332e-12</wgt>
  <wgt id="745">4.32169e-12</wgt>
  <wgt id="746">4.37824e-12</wgt>
  <wgt id="747">3.81978e-12</wgt>
  <wgt id="748">4.09683e-12</wgt>
  <wgt id="749">4.3877e-12</wgt>
  <wgt id="750">4.13596e-12</wgt>
  <wgt id="751">4.30606e-12</wgt>
  <wgt id="752">3.82921e-12</wgt>
  <wgt id="753">3.97064e-12</wgt>
  <wgt id="754">4.31839e-12</wgt>
  <wgt id="755">4.18077e-12</wgt>
  <wgt id="756">4.18775e-12</wgt>
  <wgt id="757">3.85531e-12</wgt>
  <wgt id="758">4.20961e-12</wgt>
  <wgt id="759">4.15272e-12</wgt>
  <wgt id="760">4.22879e-12</wgt>
  <wgt id="761">4.37016e-12</wgt>
  <wgt id="762">4.3838e-12</wgt>
  <wgt id="763">4.1535e-12</wgt>
  <wgt id="764">4.30723e-12</wgt>
  <wgt id="765">4.2225e-12</wgt>
  <wgt id="766">4.14226e-12</wgt>
  <wgt id="767">4.25824e-12</wgt>
  <wgt id="768">3.94488e-12</wgt>
  <wgt id="769">4.397e-12</wgt>
  <wgt id="770">4.02459e-12</wgt>
  <wgt id="771">4.87618e-12</wgt>
  <wgt id="772">3.91181e-12</wgt>
  <wgt id="773">4.13359e-12</wgt>
  <wgt id="774">3.7518e-12</wgt>
  <wgt id="775">4.36989e-12</wgt>
  <wgt id="776">4.53746e-12</wgt>
  <wgt id="777">4.00472e-12</wgt>
  <wgt id="778">3.1028e-12</wgt>
  <wgt id="779">2.63947e-12</wgt>
  <wgt id="780">2.20742e-12</wgt>
  <wgt id="781">3.08613e-12</wgt>
  <wgt id="782">3.27955e-12</wgt>
  <wgt id="783">2.68381e-12</wgt>
  <wgt id="784">2.75336e-12</wgt>
  <wgt id="785">3.71957e-12</wgt>
  <wgt id="786">2.42363e-12</wgt>
  <wgt id="787">3.48751e-12</wgt>
  <wgt id="788">2.05332e-12</wgt>
  <wgt id="789">2.48083e-12</wgt>
  <wgt id="790">2.40854e-12</wgt>
  <wgt id="791">2.86996e-12</wgt>
  <wgt id="792">3.95643e-12</wgt>
  <wgt id="793">3.0017e-12</wgt>
  <wgt id="794">2.44373e-12</wgt>
  <wgt id="795">3.5703e-12</wgt>
  <wgt id="796">4.04629e-12</wgt>
  <wgt id="797">3.53855e-12</wgt>
  <wgt id="798">2.89724e-12</wgt>
  <wgt id="799">3.50271e-12</wgt>
  <wgt id="800">2.51588e-12</wgt>
  <wgt id="801">2.92229e-12</wgt>
  <wgt id="802">2.46622e-12</wgt>
  <wgt id="803">3.984e-12</wgt>
  <wgt id="804">3.54421e-12</wgt>
  <wgt id="805">3.61821e-12</wgt>
  <wgt id="806">3.50531e-12</wgt>
  <wgt id="807">2.96866e-12</wgt>
  <wgt id="808">3.03289e-12</wgt>
  <wgt id="809">2.86096e-12</wgt>
  <wgt id="810">3.54883e-12</wgt>
  <wgt id="811">3.38181e-12</wgt>
  <wgt id="812">2.41969e-12</wgt>
  <wgt id="813">2.45932e-12</wgt>
  <wgt id="814">2.66206e-12</wgt>
  <wgt id="815">2.64808e-12</wgt>
  <wgt id="816">2.32678e-12</wgt>
  <wgt id="817">3.27281e-12</wgt>
  <wgt id="818">3.02176e-12</wgt>
  <wgt id="819">2.64209e-12</wgt>
  <wgt id="820">3.11725e-12</wgt>
  <wgt id="821">3.54054e-12</wgt>
  <wgt id="822">2.64368e-12</wgt>
  <wgt id="823">3.54796e-12</wgt>
  <wgt id="824">4.13476e-12</wgt>
  <wgt id="825">2.35467e-12</wgt>
  <wgt id="826">3.23449e-12</wgt>
  <wgt id="827">1.96154e-12</wgt>
  <wgt id="828">3.97723e-12</wgt>
  <wgt id="829">3.21739e-12</wgt>
  <wgt id="830">2.23646e-12</wgt>
  <wgt id="831">3.31734e-12</wgt>
  <wgt id="832">5.01548e-12</wgt>
  <wgt id="833">2.93259e-12</wgt>
  <wgt id="834">4.67513e-12</wgt>
  <wgt id="835">2.53492e-12</wgt>
  <wgt id="836">3.12466e-12</wgt>
  <wgt id="837">3.49622e-12</wgt>
  <wgt id="838">2.98721e-12</wgt>
  <wgt id="839">3.29953e-12</wgt>
  <wgt id="840">2.93359e-12</wgt>
  <wgt id="841">3.75299e-12</wgt>
  <wgt id="842">2.82873e-12</wgt>
  <wgt id="843">3.02137e-12</wgt>
  <wgt id="844">3.22149e-12</wgt>
  <wgt id="845">4.22356e-12</wgt>
  <wgt id="846">2.8396e-12</wgt>
  <wgt id="847">3.09769e-12</wgt>
  <wgt id="848">2.74205e-12</wgt>
  <wgt id="849">3.1745e-12</wgt>
  <wgt id="850">3.97449e-12</wgt>
  <wgt id="851">3.3831e-12</wgt>
  <wgt id="852">2.72693e-12</wgt>
  <wgt id="853">3.36885e-12</wgt>
  <wgt id="854">3.73382e-12</wgt>
  <wgt id="855">3.55889e-12</wgt>
  <wgt id="856">2.29771e-12</wgt>
  <wgt id="857">3.1359e-12</wgt>
  <wgt id="858">3.10298e-12</wgt>
  <wgt id="859">2.88474e-12</wgt>
  <wgt id="860">3.28245e-12</wgt>
  <wgt id="861">2.76893e-12</wgt>
  <wgt id="862">3.16263e-12</wgt>
  <wgt id="863">3.25657e-12</wgt>
  <wgt id="864">3.28571e-12</wgt>
  <wgt id="865">4.37713e-12</wgt>
  <wgt id="866">4.78156e-12</wgt>
  <wgt id="867">3.15066e-12</wgt>
  <wgt id="868">3.068e-12</wgt>
  <wgt id="869">2.45953e-12</wgt>
  <wgt id="870">2.58222e-12</wgt>
  <wgt id="871">2.50914e-12</wgt>
  <wgt id="872">3.64086e-12</wgt>
  <wgt id="873">2.56753e-12</wgt>
  <wgt id="874">3.24566e-12</wgt>
  <wgt id="875">2.71494e-12</wgt>
  <wgt id="876">3.65572e-12</wgt>
  <wgt id="877">3.53252e-12</wgt>
  <wgt id="878">2.7124e-12</wgt>
  <wgt id="879">4.155e-12</wgt>
  <wgt id="880">4.20722e-12</wgt>
  <wgt id="881">4.341e-12</wgt>
  <wgt id="882">3.92018e-12</wgt>
  <wgt id="883">4.0236e-12</wgt>
  <wgt id="884">4.27112e-12</wgt>
  <wgt id="885">4.24223e-12</wgt>
  <wgt id="886">4.11805e-12</wgt>
  <wgt id="887">4.33995e-12</wgt>
  <wgt id="888">3.92513e-12</wgt>
  <wgt id="889">4.14242e-12</wgt>
  <wgt id="890">4.3524e-12</wgt>
  <wgt id="891">4.15037e-12</wgt>
  <wgt id="892">4.48427e-12</wgt>
  <wgt id="893">4.38597e-12</wgt>
  <wgt id="894">4.40656e-12</wgt>
  <wgt id="895">4.12717e-12</wgt>
  <wgt id="896">4.80262e-12</wgt>
  <wgt id="897">4.3874e-12</wgt>
  <wgt id="898">4.02487e-12</wgt>
  <wgt id="899">3.93801e-12</wgt>
  <wgt id="900">4.05224e-12</wgt>
  <wgt id="901">3.87876e-12</wgt>
  <wgt id="902">3.83823e-12</wgt>
  <wgt id="903">3.66805e-12</wgt>
  <wgt id="904">4.16867e-12</wgt>
  <wgt id="905">3.9831e-12</wgt>
  <wgt id="906">4.72002e-12</wgt>
  <wgt id="907">4.48056e-12</wgt>
  <wgt id="908">4.30104e-12</wgt>
  <wgt id="909">3.86876e-12</wgt>
  <wgt id="910">3.99774e-12</wgt>
  <wgt id="911">4.10764e-12</wgt>
  <wgt id="912">4.08781e-12</wgt>
  <wgt id="913">3.72116e-12</wgt>
  <wgt id="914">4.14193e-12</wgt>
  <wgt id="915">4.10374e-12</wgt>
  <wgt id="916">4.46906e-12</wgt>
  <wgt id="917">4.13079e-12</wgt>
  <wgt id="918">4.11795e-12</wgt>
  <wgt id="919">3.9991e-12</wgt>
  <wgt id="920">3.99617e-12</wgt>
  <wgt id="921">4.09955e-12</wgt>
  <wgt id="922">3.79384e-12</wgt>
  <wgt id="923">3.91658e-12</wgt>
  <wgt id="924">3.91122e-12</wgt>
  <wgt id="925">3.74403e-12</wgt>
  <wgt id="926">4.40026e-12</wgt>
  <wgt id="927">4.3271e-12</wgt>
  <wgt id="928">4.39171e-12</wgt>
  <wgt id="929">4.20309e-12</wgt>
  <wgt id="930">4.05617e-12</wgt>
  <wgt id="931">4.09971e-12</wgt>
  <wgt id="932">3.74237e-12</wgt>
  <wgt id="933">4.44615e-12</wgt>
  <wgt id="934">4.1142e-12</wgt>
  <wgt id="935">4.53244e-12</wgt>
  <wgt id="936">4.16746e-12</wgt>
  <wgt id="937">4.25364e-12</wgt>
  <wgt id="938">4.12528e-12</wgt>
  <wgt id="939">4.09939e-12</wgt>
  <wgt id="940">4.2294e-12</wgt>
  <wgt id="941">3.97111e-12</wgt>
  <wgt id="942">4.15983e-12</wgt>
  <wgt id="943">4.59299e-12</wgt>
  <wgt id="944">3.69065e-12</wgt>
  <wgt id="945">4.08895e-12</wgt>
  <wgt id="946">4.0115e-12</wgt>
  <wgt id="947">4.07332e-12</wgt>
  <wgt id="948">4.32169e-12</wgt>
  <wgt id="949">4.37824e-12</wgt>
  <wgt id="950">3.81978e-12</wgt>
  <wgt id="951">4.09683e-12</wgt>
  <wgt id="952">4.3877e-12</wgt>
  <wgt id="953">4.13596e-12</wgt>
  <wgt id="954">4.30606e-12</wgt>
  <wgt id="955">3.82921e-12</wgt>
  <wgt id="956">3.97064e-12</wgt>
  <wgt id="957">4.31839e-12</wgt>
  <wgt id="958">4.18077e-12</wgt>
  <wgt id="959">4.18775e-12</wgt>
  <wgt id="960">3.85531e-12</wgt>
  <wgt id="961">4.20961e-12</wgt>
  <wgt id="962">4.15272e-12</wgt>
  <wgt id="963">4.22879e-12</wgt>
  <wgt id="964">4.37016e-12</wgt>
  <wgt id="965">4.3838e-12</wgt>
  <wgt id="966">4.1535e-12</wgt>
  <wgt id="967">4.30723e-12</wgt>
  <wgt id="968">4.2225e-12</wgt>
  <wgt id="969">4.14226e-12</wgt>
  <wgt id="970">4.25824e-12</wgt>
  <wgt id="971">3.94488e-12</wgt>
  <wgt id="972">4.397e-12</wgt>
  <wgt id="973">4.02459e-12</wgt>
  <wgt id="974">4.87618e-12</wgt>
  <wgt id="975">3.91181e-12</wgt>
  <wgt id="976">4.13359e-12</wgt>
  <wgt id="977">3.7518e-12</wgt>
  <wgt id="978">4.36989e-12</wgt>
  <wgt id="979">4.53746e-12</wgt>
  <wgt id="980">4.1602e-12</wgt>
  <wgt id="981">4.17338e-12</wgt>
  <wgt id="982">4.04003e-12</wgt>
</rwgt>
</event>
<event>
 5   1  0.3028200E-11  0.2433169E+04  0.7818608E-02  0.7666336E-01
       21   -1    0    0  502  501  0.00000000000E+00  0.00000000000E+00  0.12940910330E+04  0.12940910330E+04  0.00000000000E+00 0. -1.
       21   -1    0    0  501  502 -0.00000000000E+00 -0.00000000000E+00 -0.11437197061E+04  0.11437197061E+04  0.00000000000E+00 0.  1.
       39    2    1    2    0    0  0.00000000000E+00  0.00000000000E+00  0.15037132688E+03  0.24378107390E+04  0.24331686467E+04 0.  0.
       25    1    3    3    0    0 -0.16899423631E+03  0.88186497445E+03 -0.73766206746E+03  0.11687665339E+04  0.12500000000E+03 0.  0.
       25    1    3    3    0    0  0.16899423631E+03 -0.88186497445E+03  0.88803339434E+03  0.12690442051E+04  0.12500000000E+03 0.  0.
<mgrwt>
<rscale>  0 0.24331686E+04</rscale>
<asrwt>0</asrwt>
<pdfrwt beam="1">  1       21 0.19909093E+00 0.24331686E+04</pdfrwt>
<pdfrwt beam="2">  1       21 0.17595688E+00 0.24331686E+04</pdfrwt>
<totfact> 0.94183661E+00</totfact>
</mgrwt>
<rwgt>
  <wgt id="1">3.0282e-12</wgt>
  <wgt id="2">2.63008e-12</wgt>
  <wgt id="3">3.52386e-12</wgt>
  <wgt id="4">3.0282e-12</wgt>
  <wgt id="5">2.63008e-12</wgt>
  <wgt id="6">3.52386e-12</wgt>
  <wgt id="7">3.0282e-12</wgt>
  <wgt id="8">2.63008e-12</wgt>
  <wgt id="9">3.52386e-12</wgt>
  <wgt id="10">3.14325e-12</wgt>
  <wgt id="11">3.13977e-12</wgt>
  <wgt id="12">3.13693e-12</wgt>
  <wgt id="13">3.13211e-12</wgt>
  <wgt id="14">3.15505e-12</wgt>
  <wgt id="15">3.14802e-12</wgt>
  <wgt id="16">3.13695e-12</wgt>
  <wgt id="17">3.14788e-12</wgt>
  <wgt id="18">3.13679e-12</wgt>
  <wgt id="19">3.15075e-12</wgt>
  <wgt id="20">3.13315e-12</wgt>
  <wgt id="21">3.12509e-12</wgt>
  <wgt id="22">3.133e-12</wgt>
  <wgt id="23">3.11568e-12</wgt>
  <wgt id="24">3.12971e-12</wgt>
  <wgt id="25">3.13627e-12</wgt>
  <wgt id="26">3.15724e-12</wgt>
  <wgt id="27">3.14372e-12</wgt>
  <wgt id="28">3.12926e-12</wgt>
  <wgt id="29">3.1461e-12</wgt>
  <wgt id="30">3.13747e-12</wgt>
  <wgt id="31">3.15078e-12</wgt>
  <wgt id="32">3.14034e-12</wgt>
  <wgt id="33">3.15183e-12</wgt>
  <wgt id="34">3.1341e-12</wgt>
  <wgt id="35">3.14361e-12</wgt>
  <wgt id="36">3.1542e-12</wgt>
  <wgt id="37">3.13527e-12</wgt>
  <wgt id="38">3.13329e-12</wgt>
  <wgt id="39">3.17365e-12</wgt>
  <wgt id="40">3.15007e-12</wgt>
  <wgt id="41">3.14289e-12</wgt>
  <wgt id="42">3.14932e-12</wgt>
  <wgt id="43">3.14335e-12</wgt>
  <wgt id="44">3.13347e-12</wgt>
  <wgt id="45">3.1514e-12</wgt>
  <wgt id="46">3.1502e-12</wgt>
  <wgt id="47">3.12956e-12</wgt>
  <wgt id="48">3.14246e-12</wgt>
  <wgt id="49">3.14948e-12</wgt>
  <wgt id="50">3.16324e-12</wgt>
  <wgt id="51">3.1599e-12</wgt>
  <wgt id="52">3.141e-12</wgt>
  <wgt id="53">3.11591e-12</wgt>
  <wgt id="54">3.13491e-12</wgt>
  <wgt id="55">3.14314e-12</wgt>
  <wgt id="56">3.15499e-12</wgt>
  <wgt id="57">3.15442e-12</wgt>
  <wgt id="58">3.11963e-12</wgt>
  <wgt id="59">3.13084e-12</wgt>
  <wgt id="60">3.14443e-12</wgt>
  <wgt id="61">3.13512e-12</wgt>
  <wgt id="62">3.142e-12</wgt>
  <wgt id="63">3.14657e-12</wgt>
  <wgt id="64">3.14709e-12</wgt>
  <wgt id="65">3.14701e-12</wgt>
  <wgt id="66">3.13851e-12</wgt>
  <wgt id="67">3.13722e-12</wgt>
  <wgt id="68">3.13951e-12</wgt>
  <wgt id="69">3.14309e-12</wgt>
  <wgt id="70">3.14046e-12</wgt>
  <wgt id="71">3.14336e-12</wgt>
  <wgt id="72">3.13994e-12</wgt>
  <wgt id="73">3.14493e-12</wgt>
  <wgt id="74">3.1458e-12</wgt>
  <wgt id="75">3.14039e-12</wgt>
  <wgt id="76">3.15237e-12</wgt>
  <wgt id="77">3.14285e-12</wgt>
  <wgt id="78">3.14418e-12</wgt>
  <wgt id="79">3.1492e-12</wgt>
  <wgt id="80">3.1295e-12</wgt>
  <wgt id="81">3.13891e-12</wgt>
  <wgt id="82">3.14321e-12</wgt>
  <wgt id="83">3.13023e-12</wgt>
  <wgt id="84">3.13596e-12</wgt>
  <wgt id="85">3.13701e-12</wgt>
  <wgt id="86">3.15114e-12</wgt>
  <wgt id="87">3.12629e-12</wgt>
  <wgt id="88">3.14744e-12</wgt>
  <wgt id="89">3.14646e-12</wgt>
  <wgt id="90">3.1476e-12</wgt>
  <wgt id="91">3.1455e-12</wgt>
  <wgt id="92">3.14941e-12</wgt>
  <wgt id="93">3.14248e-12</wgt>
  <wgt id="94">3.14003e-12</wgt>
  <wgt id="95">3.14506e-12</wgt>
  <wgt id="96">3.14561e-12</wgt>
  <wgt id="97">3.13901e-12</wgt>
  <wgt id="98">3.14463e-12</wgt>
  <wgt id="99">3.14237e-12</wgt>
  <wgt id="100">3.14607e-12</wgt>
  <wgt id="101">3.14159e-12</wgt>
  <wgt id="102">3.13946e-12</wgt>
  <wgt id="103">3.14807e-12</wgt>
  <wgt id="104">3.14057e-12</wgt>
  <wgt id="105">3.1462e-12</wgt>
  <wgt id="106">3.13907e-12</wgt>
  <wgt id="107">3.15169e-12</wgt>
  <wgt id="108">3.14027e-12</wgt>
  <wgt id="109">3.14409e-12</wgt>
  <wgt id="110">3.14284e-12</wgt>
  <wgt id="111">3.17232e-12</wgt>
  <wgt id="112">3.14213e-12</wgt>
  <wgt id="113">4.27096e-12</wgt>
  <wgt id="114">4.40194e-12</wgt>
  <wgt id="115">4.34178e-12</wgt>
  <wgt id="116">6.18129e-12</wgt>
  <wgt id="117">3.52627e-12</wgt>
  <wgt id="118">3.53924e-12</wgt>
  <wgt id="119">3.51908e-12</wgt>
  <wgt id="120">3.52662e-12</wgt>
  <wgt id="121">3.52611e-12</wgt>
  <wgt id="122">3.52032e-12</wgt>
  <wgt id="123">3.53469e-12</wgt>
  <wgt id="124">3.52133e-12</wgt>
  <wgt id="125">3.52961e-12</wgt>
  <wgt id="126">3.53312e-12</wgt>
  <wgt id="127">3.52176e-12</wgt>
  <wgt id="128">3.53741e-12</wgt>
  <wgt id="129">3.51534e-12</wgt>
  <wgt id="130">3.54707e-12</wgt>
  <wgt id="131">3.505e-12</wgt>
  <wgt id="132">3.43315e-12</wgt>
  <wgt id="133">3.63677e-12</wgt>
  <wgt id="134">3.48752e-12</wgt>
  <wgt id="135">3.55665e-12</wgt>
  <wgt id="136">3.57272e-12</wgt>
  <wgt id="137">3.47022e-12</wgt>
  <wgt id="138">3.6666e-12</wgt>
  <wgt id="139">3.39108e-12</wgt>
  <wgt id="140">3.50312e-12</wgt>
  <wgt id="141">3.54438e-12</wgt>
  <wgt id="142">3.52678e-12</wgt>
  <wgt id="143">3.53159e-12</wgt>
  <wgt id="144">3.42154e-12</wgt>
  <wgt id="145">3.62411e-12</wgt>
  <wgt id="146">3.55986e-12</wgt>
  <wgt id="147">3.49964e-12</wgt>
  <wgt id="148">3.53756e-12</wgt>
  <wgt id="149">3.52555e-12</wgt>
  <wgt id="150">3.55741e-12</wgt>
  <wgt id="151">3.51172e-12</wgt>
  <wgt id="152">3.52809e-12</wgt>
  <wgt id="153">3.52573e-12</wgt>
  <wgt id="154">3.55377e-12</wgt>
  <wgt id="155">3.49342e-12</wgt>
  <wgt id="156">3.60135e-12</wgt>
  <wgt id="157">3.44879e-12</wgt>
  <wgt id="158">4.2415e-12</wgt>
  <wgt id="159">4.25921e-12</wgt>
  <wgt id="160">4.22712e-12</wgt>
  <wgt id="161">4.23028e-12</wgt>
  <wgt id="162">4.25388e-12</wgt>
  <wgt id="163">4.23675e-12</wgt>
  <wgt id="164">4.24859e-12</wgt>
  <wgt id="165">4.24302e-12</wgt>
  <wgt id="166">4.24031e-12</wgt>
  <wgt id="167">4.23841e-12</wgt>
  <wgt id="168">4.24572e-12</wgt>
  <wgt id="169">4.22356e-12</wgt>
  <wgt id="170">4.25288e-12</wgt>
  <wgt id="171">4.23657e-12</wgt>
  <wgt id="172">4.24838e-12</wgt>
  <wgt id="173">4.24095e-12</wgt>
  <wgt id="174">4.24155e-12</wgt>
  <wgt id="175">4.11968e-12</wgt>
  <wgt id="176">4.40052e-12</wgt>
  <wgt id="177">4.26506e-12</wgt>
  <wgt id="178">4.21976e-12</wgt>
  <wgt id="179">4.42428e-12</wgt>
  <wgt id="180">3.9536e-12</wgt>
  <wgt id="181">4.11468e-12</wgt>
  <wgt id="182">4.32522e-12</wgt>
  <wgt id="183">4.16406e-12</wgt>
  <wgt id="184">4.27996e-12</wgt>
  <wgt id="185">4.20667e-12</wgt>
  <wgt id="186">4.2843e-12</wgt>
  <wgt id="187">4.20288e-12</wgt>
  <wgt id="188">4.31154e-12</wgt>
  <wgt id="189">4.21345e-12</wgt>
  <wgt id="190">4.25307e-12</wgt>
  <wgt id="191">4.25347e-12</wgt>
  <wgt id="192">4.23442e-12</wgt>
  <wgt id="193">4.30397e-12</wgt>
  <wgt id="194">4.21073e-12</wgt>
  <wgt id="195">4.12825e-12</wgt>
  <wgt id="196">4.43902e-12</wgt>
  <wgt id="197">4.26328e-12</wgt>
  <wgt id="198">4.23639e-12</wgt>
  <wgt id="199">4.2415e-12</wgt>
  <wgt id="200">4.27855e-12</wgt>
  <wgt id="201">4.26506e-12</wgt>
  <wgt id="202">4.25192e-12</wgt>
  <wgt id="203">4.23219e-12</wgt>
  <wgt id="204">4.22286e-12</wgt>
  <wgt id="205">4.21526e-12</wgt>
  <wgt id="206">4.10388e-12</wgt>
  <wgt id="207">4.12802e-12</wgt>
  <wgt id="208">4.07999e-12</wgt>
  <wgt id="209">4.11734e-12</wgt>
  <wgt id="210">4.09393e-12</wgt>
  <wgt id="211">4.1023e-12</wgt>
  <wgt id="212">4.10523e-12</wgt>
  <wgt id="213">4.10349e-12</wgt>
  <wgt id="214">4.10444e-12</wgt>
  <wgt id="215">4.10698e-12</wgt>
  <wgt id="216">4.1015e-12</wgt>
  <wgt id="217">4.11601e-12</wgt>
  <wgt id="218">4.09442e-12</wgt>
  <wgt id="219">4.10029e-12</wgt>
  <wgt id="220">4.10602e-12</wgt>
  <wgt id="221">4.10197e-12</wgt>
  <wgt id="222">4.10801e-12</wgt>
  <wgt id="223">3.88325e-12</wgt>
  <wgt id="224">4.30501e-12</wgt>
  <wgt id="225">4.05332e-12</wgt>
  <wgt id="226">4.16735e-12</wgt>
  <wgt id="227">4.06438e-12</wgt>
  <wgt id="228">4.12119e-12</wgt>
  <wgt id="229">4.04587e-12</wgt>
  <wgt id="230">4.13272e-12</wgt>
  <wgt id="231">4.22308e-12</wgt>
  <wgt id="232">4.00594e-12</wgt>
  <wgt id="233">4.08192e-12</wgt>
  <wgt id="234">4.1384e-12</wgt>
  <wgt id="235">4.01461e-12</wgt>
  <wgt id="236">4.18553e-12</wgt>
  <wgt id="237">4.04434e-12</wgt>
  <wgt id="238">4.12423e-12</wgt>
  <wgt id="239">4.07814e-12</wgt>
  <wgt id="240">4.15021e-12</wgt>
  <wgt id="241">4.06136e-12</wgt>
  <wgt id="242">4.15537e-12</wgt>
  <wgt id="243">4.1595e-12</wgt>
  <wgt id="244">4.12313e-12</wgt>
  <wgt id="245">4.10128e-12</wgt>
  <wgt id="246">4.13338e-12</wgt>
  <wgt id="247">4.10388e-12</wgt>
  <wgt id="248">4.13957e-12</wgt>
  <wgt id="249">4.12587e-12</wgt>
  <wgt id="250">4.11335e-12</wgt>
  <wgt id="251">4.09411e-12</wgt>
  <wgt id="252">4.08531e-12</wgt>
  <wgt id="253">4.07878e-12</wgt>
  <wgt id="254">4.02267e-12</wgt>
  <wgt id="255">4.02641e-12</wgt>
  <wgt id="256">4.01829e-12</wgt>
  <wgt id="257">4.02549e-12</wgt>
  <wgt id="258">4.02039e-12</wgt>
  <wgt id="259">4.04955e-12</wgt>
  <wgt id="260">3.99657e-12</wgt>
  <wgt id="261">4.02894e-12</wgt>
  <wgt id="262">4.01499e-12</wgt>
  <wgt id="263">4.02068e-12</wgt>
  <wgt id="264">4.02482e-12</wgt>
  <wgt id="265">4.01765e-12</wgt>
  <wgt id="266">4.03231e-12</wgt>
  <wgt id="267">4.024e-12</wgt>
  <wgt id="268">4.02071e-12</wgt>
  <wgt id="269">4.03613e-12</wgt>
  <wgt id="270">4.01345e-12</wgt>
  <wgt id="271">4.01582e-12</wgt>
  <wgt id="272">4.03023e-12</wgt>
  <wgt id="273">4.00973e-12</wgt>
  <wgt id="274">4.03234e-12</wgt>
  <wgt id="275">4.00558e-12</wgt>
  <wgt id="276">4.04017e-12</wgt>
  <wgt id="277">3.99932e-12</wgt>
  <wgt id="278">4.04396e-12</wgt>
  <wgt id="279">3.94343e-12</wgt>
  <wgt id="280">4.12174e-12</wgt>
  <wgt id="281">4.00428e-12</wgt>
  <wgt id="282">4.02348e-12</wgt>
  <wgt id="283">3.90578e-12</wgt>
  <wgt id="284">4.16647e-12</wgt>
  <wgt id="285">3.8291e-12</wgt>
  <wgt id="286">4.18274e-12</wgt>
  <wgt id="287">4.03524e-12</wgt>
  <wgt id="288">4.0063e-12</wgt>
  <wgt id="289">4.05094e-12</wgt>
  <wgt id="290">3.95646e-12</wgt>
  <wgt id="291">4.01146e-12</wgt>
  <wgt id="292">4.02514e-12</wgt>
  <wgt id="293">3.99124e-12</wgt>
  <wgt id="294">4.0536e-12</wgt>
  <wgt id="295">3.94584e-12</wgt>
  <wgt id="296">4.11618e-12</wgt>
  <wgt id="297">4.02185e-12</wgt>
  <wgt id="298">4.0384e-12</wgt>
  <wgt id="299">4.00927e-12</wgt>
  <wgt id="300">4.05732e-12</wgt>
  <wgt id="301">3.96335e-12</wgt>
  <wgt id="302">4.16934e-12</wgt>
  <wgt id="303">3.99069e-12</wgt>
  <wgt id="304">4.04086e-12</wgt>
  <wgt id="305">4.03414e-12</wgt>
  <wgt id="306">4.03851e-12</wgt>
  <wgt id="307">4.02977e-12</wgt>
  <wgt id="308">4.03751e-12</wgt>
  <wgt id="309">4.03209e-12</wgt>
  <wgt id="310">4.06223e-12</wgt>
  <wgt id="311">4.00842e-12</wgt>
  <wgt id="312">4.03971e-12</wgt>
  <wgt id="313">4.0287e-12</wgt>
  <wgt id="314">4.03254e-12</wgt>
  <wgt id="315">4.03613e-12</wgt>
  <wgt id="316">4.02951e-12</wgt>
  <wgt id="317">4.04458e-12</wgt>
  <wgt id="318">4.03742e-12</wgt>
  <wgt id="319">4.02912e-12</wgt>
  <wgt id="320">4.04841e-12</wgt>
  <wgt id="321">4.02647e-12</wgt>
  <wgt id="322">4.02546e-12</wgt>
  <wgt id="323">4.04474e-12</wgt>
  <wgt id="324">4.02366e-12</wgt>
  <wgt id="325">4.04369e-12</wgt>
  <wgt id="326">4.02069e-12</wgt>
  <wgt id="327">4.05166e-12</wgt>
  <wgt id="328">4.01349e-12</wgt>
  <wgt id="329">4.0461e-12</wgt>
  <wgt id="330">4.15556e-12</wgt>
  <wgt id="331">3.91865e-12</wgt>
  <wgt id="332">4.01898e-12</wgt>
  <wgt id="333">4.03458e-12</wgt>
  <wgt id="334">3.94245e-12</wgt>
  <wgt id="335">4.14841e-12</wgt>
  <wgt id="336">3.89358e-12</wgt>
  <wgt id="337">4.20528e-12</wgt>
  <wgt id="338">4.07925e-12</wgt>
  <wgt id="339">3.99271e-12</wgt>
  <wgt id="340">4.06129e-12</wgt>
  <wgt id="341">3.96507e-12</wgt>
  <wgt id="342">4.02634e-12</wgt>
  <wgt id="343">4.0305e-12</wgt>
  <wgt id="344">4.00593e-12</wgt>
  <wgt id="345">4.06723e-12</wgt>
  <wgt id="346">3.95457e-12</wgt>
  <wgt id="347">4.12623e-12</wgt>
  <wgt id="348">4.03498e-12</wgt>
  <wgt id="349">4.04749e-12</wgt>
  <wgt id="350">4.0177e-12</wgt>
  <wgt id="351">4.07629e-12</wgt>
  <wgt id="352">3.96863e-12</wgt>
  <wgt id="353">4.18791e-12</wgt>
  <wgt id="354">3.98538e-12</wgt>
  <wgt id="355">4.06401e-12</wgt>
  <wgt id="356">4.02267e-12</wgt>
  <wgt id="357">4.05071e-12</wgt>
  <wgt id="358">4.03414e-12</wgt>
  <wgt id="359">4.03655e-12</wgt>
  <wgt id="360">4.05061e-12</wgt>
  <wgt id="361">4.03564e-12</wgt>
  <wgt id="362">4.1068e-12</wgt>
  <wgt id="363">4.09655e-12</wgt>
  <wgt id="364">4.0824e-12</wgt>
  <wgt id="365">4.06834e-12</wgt>
  <wgt id="366">4.05283e-12</wgt>
  <wgt id="367">4.02063e-12</wgt>
  <wgt id="368">4.00313e-12</wgt>
  <wgt id="369">3.98416e-12</wgt>
  <wgt id="370">4.03564e-12</wgt>
  <wgt id="371">4.05388e-12</wgt>
  <wgt id="372">4.04379e-12</wgt>
  <wgt id="373">4.02898e-12</wgt>
  <wgt id="374">4.0276e-12</wgt>
  <wgt id="375">4.31062e-12</wgt>
  <wgt id="376">4.31119e-12</wgt>
  <wgt id="377">4.30982e-12</wgt>
  <wgt id="378">4.32612e-12</wgt>
  <wgt id="379">4.29492e-12</wgt>
  <wgt id="380">4.32194e-12</wgt>
  <wgt id="381">4.30592e-12</wgt>
  <wgt id="382">4.33362e-12</wgt>
  <wgt id="383">4.28767e-12</wgt>
  <wgt id="384">4.31335e-12</wgt>
  <wgt id="385">4.30789e-12</wgt>
  <wgt id="386">4.32849e-12</wgt>
  <wgt id="387">4.30267e-12</wgt>
  <wgt id="388">4.30626e-12</wgt>
  <wgt id="389">4.31554e-12</wgt>
  <wgt id="390">4.32269e-12</wgt>
  <wgt id="391">4.29775e-12</wgt>
  <wgt id="392">4.27625e-12</wgt>
  <wgt id="393">4.32994e-12</wgt>
  <wgt id="394">4.3167e-12</wgt>
  <wgt id="395">4.30201e-12</wgt>
  <wgt id="396">4.31379e-12</wgt>
  <wgt id="397">4.30831e-12</wgt>
  <wgt id="398">4.29063e-12</wgt>
  <wgt id="399">4.32985e-12</wgt>
  <wgt id="400">4.30285e-12</wgt>
  <wgt id="401">4.32774e-12</wgt>
  <wgt id="402">4.27462e-12</wgt>
  <wgt id="403">4.32646e-12</wgt>
  <wgt id="404">4.41165e-12</wgt>
  <wgt id="405">4.06719e-12</wgt>
  <wgt id="406">4.23826e-12</wgt>
  <wgt id="407">4.46753e-12</wgt>
  <wgt id="408">4.34771e-12</wgt>
  <wgt id="409">4.23947e-12</wgt>
  <wgt id="410">4.19194e-12</wgt>
  <wgt id="411">4.36548e-12</wgt>
  <wgt id="412">4.30288e-12</wgt>
  <wgt id="413">4.32203e-12</wgt>
  <wgt id="414">4.26305e-12</wgt>
  <wgt id="415">4.3473e-12</wgt>
  <wgt id="416">4.42694e-12</wgt>
  <wgt id="417">4.14984e-12</wgt>
  <wgt id="418">4.3164e-12</wgt>
  <wgt id="419">4.27955e-12</wgt>
  <wgt id="420">4.37854e-12</wgt>
  <wgt id="421">4.27118e-12</wgt>
  <wgt id="422">4.30255e-12</wgt>
  <wgt id="423">4.31508e-12</wgt>
  <wgt id="424">4.40116e-12</wgt>
  <wgt id="425">4.2534e-12</wgt>
  <wgt id="426">4.31062e-12</wgt>
  <wgt id="427">4.27151e-12</wgt>
  <wgt id="428">4.42603e-12</wgt>
  <wgt id="429">4.35057e-12</wgt>
  <wgt id="430">4.47364e-12</wgt>
  <wgt id="431">4.44904e-12</wgt>
  <wgt id="432">4.42581e-12</wgt>
  <wgt id="433">4.40318e-12</wgt>
  <wgt id="434">4.37578e-12</wgt>
  <wgt id="435">4.31887e-12</wgt>
  <wgt id="436">4.28971e-12</wgt>
  <wgt id="437">4.26194e-12</wgt>
  <wgt id="438">4.35057e-12</wgt>
  <wgt id="439">4.36498e-12</wgt>
  <wgt id="440">4.35644e-12</wgt>
  <wgt id="441">4.34624e-12</wgt>
  <wgt id="442">4.34233e-12</wgt>
  <wgt id="443">4.21058e-12</wgt>
  <wgt id="444">4.23441e-12</wgt>
  <wgt id="445">4.19042e-12</wgt>
  <wgt id="446">4.18355e-12</wgt>
  <wgt id="447">4.19415e-12</wgt>
  <wgt id="448">4.09696e-12</wgt>
  <wgt id="449">4.27628e-12</wgt>
  <wgt id="450">4.19283e-12</wgt>
  <wgt id="451">4.20364e-12</wgt>
  <wgt id="452">4.30785e-12</wgt>
  <wgt id="453">4.25281e-12</wgt>
  <wgt id="454">4.04335e-12</wgt>
  <wgt id="455">4.21461e-12</wgt>
  <wgt id="456">4.16878e-12</wgt>
  <wgt id="457">4.22894e-12</wgt>
  <wgt id="458">4.25827e-12</wgt>
  <wgt id="459">4.23847e-12</wgt>
  <wgt id="460">4.23191e-12</wgt>
  <wgt id="461">4.13142e-12</wgt>
  <wgt id="462">4.1741e-12</wgt>
  <wgt id="463">4.16475e-12</wgt>
  <wgt id="464">4.18507e-12</wgt>
  <wgt id="465">4.25639e-12</wgt>
  <wgt id="466">4.16225e-12</wgt>
  <wgt id="467">4.16805e-12</wgt>
  <wgt id="468">4.19849e-12</wgt>
  <wgt id="469">4.19759e-12</wgt>
  <wgt id="470">4.17373e-12</wgt>
  <wgt id="471">4.17246e-12</wgt>
  <wgt id="472">4.23078e-12</wgt>
  <wgt id="473">4.06858e-12</wgt>
  <wgt id="474">3.0282e-12</wgt>
  <wgt id="475">3.22323e-12</wgt>
  <wgt id="476">2.9545e-12</wgt>
  <wgt id="477">2.91326e-12</wgt>
  <wgt id="478">3.0414e-12</wgt>
  <wgt id="479">2.96561e-12</wgt>
  <wgt id="480">3.14159e-12</wgt>
  <wgt id="481">2.96383e-12</wgt>
  <wgt id="482">2.91342e-12</wgt>
  <wgt id="483">2.94613e-12</wgt>
  <wgt id="484">3.2409e-12</wgt>
  <wgt id="485">3.03137e-12</wgt>
  <wgt id="486">3.1118e-12</wgt>
  <wgt id="487">3.09689e-12</wgt>
  <wgt id="488">3.07235e-12</wgt>
  <wgt id="489">2.93624e-12</wgt>
  <wgt id="490">2.93488e-12</wgt>
  <wgt id="491">2.99218e-12</wgt>
  <wgt id="492">2.93239e-12</wgt>
  <wgt id="493">2.91429e-12</wgt>
  <wgt id="494">2.93773e-12</wgt>
  <wgt id="495">3.10256e-12</wgt>
  <wgt id="496">2.92826e-12</wgt>
  <wgt id="497">2.90742e-12</wgt>
  <wgt id="498">3.07098e-12</wgt>
  <wgt id="499">2.95014e-12</wgt>
  <wgt id="500">2.98361e-12</wgt>
  <wgt id="501">3.17134e-12</wgt>
  <wgt id="502">2.94867e-12</wgt>
  <wgt id="503">3.02669e-12</wgt>
  <wgt id="504">3.05507e-12</wgt>
  <wgt id="505">3.00416e-12</wgt>
  <wgt id="506">3.11756e-12</wgt>
  <wgt id="507">2.9987e-12</wgt>
  <wgt id="508">3.06583e-12</wgt>
  <wgt id="509">2.96303e-12</wgt>
  <wgt id="510">3.1133e-12</wgt>
  <wgt id="511">2.97157e-12</wgt>
  <wgt id="512">3.07283e-12</wgt>
  <wgt id="513">3.17227e-12</wgt>
  <wgt id="514">3.00206e-12</wgt>
  <wgt id="515">2.98406e-12</wgt>
  <wgt id="516">3.1093e-12</wgt>
  <wgt id="517">3.08907e-12</wgt>
  <wgt id="518">3.09476e-12</wgt>
  <wgt id="519">2.93715e-12</wgt>
  <wgt id="520">3.0587e-12</wgt>
  <wgt id="521">3.13391e-12</wgt>
  <wgt id="522">3.1444e-12</wgt>
  <wgt id="523">3.11042e-12</wgt>
  <wgt id="524">3.07754e-12</wgt>
  <wgt id="525">3.1301e-12</wgt>
  <wgt id="526">3.03983e-12</wgt>
  <wgt id="527">3.07345e-12</wgt>
  <wgt id="528">3.04752e-12</wgt>
  <wgt id="529">2.96976e-12</wgt>
  <wgt id="530">3.05712e-12</wgt>
  <wgt id="531">3.00035e-12</wgt>
  <wgt id="532">3.19957e-12</wgt>
  <wgt id="533">2.8436e-12</wgt>
  <wgt id="534">3.04678e-12</wgt>
  <wgt id="535">3.09918e-12</wgt>
  <wgt id="536">3.01107e-12</wgt>
  <wgt id="537">3.04119e-12</wgt>
  <wgt id="538">3.06044e-12</wgt>
  <wgt id="539">2.97431e-12</wgt>
  <wgt id="540">2.95912e-12</wgt>
  <wgt id="541">2.94103e-12</wgt>
  <wgt id="542">2.97783e-12</wgt>
  <wgt id="543">3.02506e-12</wgt>
  <wgt id="544">3.17979e-12</wgt>
  <wgt id="545">2.99203e-12</wgt>
  <wgt id="546">2.99318e-12</wgt>
  <wgt id="547">2.93317e-12</wgt>
  <wgt id="548">2.90392e-12</wgt>
  <wgt id="549">2.97277e-12</wgt>
  <wgt id="550">3.00933e-12</wgt>
  <wgt id="551">3.05442e-12</wgt>
  <wgt id="552">3.00775e-12</wgt>
  <wgt id="553">3.02193e-12</wgt>
  <wgt id="554">3.25167e-12</wgt>
  <wgt id="555">3.10197e-12</wgt>
  <wgt id="556">2.93488e-12</wgt>
  <wgt id="557">3.0768e-12</wgt>
  <wgt id="558">2.92734e-12</wgt>
  <wgt id="559">2.98973e-12</wgt>
  <wgt id="560">3.28118e-12</wgt>
  <wgt id="561">2.96821e-12</wgt>
  <wgt id="562">3.076e-12</wgt>
  <wgt id="563">2.92789e-12</wgt>
  <wgt id="564">3.0237e-12</wgt>
  <wgt id="565">2.90533e-12</wgt>
  <wgt id="566">3.08254e-12</wgt>
  <wgt id="567">2.98458e-12</wgt>
  <wgt id="568">3.01422e-12</wgt>
  <wgt id="569">3.0955e-12</wgt>
  <wgt id="570">2.9314e-12</wgt>
  <wgt id="571">3.35833e-12</wgt>
  <wgt id="572">2.95497e-12</wgt>
  <wgt id="573">2.89087e-12</wgt>
  <wgt id="574">2.91806e-12</wgt>
  <wgt id="575">3.33827e-12</wgt>
  <wgt id="576">3.30686e-12</wgt>
  <wgt id="577">3.42357e-12</wgt>
  <wgt id="578">3.43096e-12</wgt>
  <wgt id="579">3.39716e-12</wgt>
  <wgt id="580">3.40096e-12</wgt>
  <wgt id="581">3.55366e-12</wgt>
  <wgt id="582">3.2993e-12</wgt>
  <wgt id="583">3.37658e-12</wgt>
  <wgt id="584">3.34527e-12</wgt>
  <wgt id="585">3.37158e-12</wgt>
  <wgt id="586">3.26769e-12</wgt>
  <wgt id="587">3.38812e-12</wgt>
  <wgt id="588">3.31735e-12</wgt>
  <wgt id="589">3.40338e-12</wgt>
  <wgt id="590">3.40143e-12</wgt>
  <wgt id="591">3.46372e-12</wgt>
  <wgt id="592">3.27354e-12</wgt>
  <wgt id="593">3.32629e-12</wgt>
  <wgt id="594">3.43561e-12</wgt>
  <wgt id="595">3.32375e-12</wgt>
  <wgt id="596">3.35594e-12</wgt>
  <wgt id="597">3.23614e-12</wgt>
  <wgt id="598">3.24161e-12</wgt>
  <wgt id="599">3.52545e-12</wgt>
  <wgt id="600">3.30084e-12</wgt>
  <wgt id="601">3.24627e-12</wgt>
  <wgt id="602">3.26891e-12</wgt>
  <wgt id="603">3.27488e-12</wgt>
  <wgt id="604">3.38843e-12</wgt>
  <wgt id="605">3.47526e-12</wgt>
  <wgt id="606">3.25913e-12</wgt>
  <wgt id="607">3.29252e-12</wgt>
  <wgt id="608">3.36598e-12</wgt>
  <wgt id="609">3.15534e-12</wgt>
  <wgt id="610">3.21282e-12</wgt>
  <wgt id="611">3.37162e-12</wgt>
  <wgt id="612">3.55948e-12</wgt>
  <wgt id="613">3.33311e-12</wgt>
  <wgt id="614">3.38735e-12</wgt>
  <wgt id="615">3.26694e-12</wgt>
  <wgt id="616">3.52827e-12</wgt>
  <wgt id="617">3.46501e-12</wgt>
  <wgt id="618">3.39417e-12</wgt>
  <wgt id="619">3.296e-12</wgt>
  <wgt id="620">3.49209e-12</wgt>
  <wgt id="621">3.39025e-12</wgt>
  <wgt id="622">3.38812e-12</wgt>
  <wgt id="623">3.4386e-12</wgt>
  <wgt id="624">3.32801e-12</wgt>
  <wgt id="625">3.30299e-12</wgt>
  <wgt id="626">3.25953e-12</wgt>
  <wgt id="627">3.20707e-12</wgt>
  <wgt id="628">3.54263e-12</wgt>
  <wgt id="629">3.25653e-12</wgt>
  <wgt id="630">3.20388e-12</wgt>
  <wgt id="631">3.35697e-12</wgt>
  <wgt id="632">3.22351e-12</wgt>
  <wgt id="633">3.30081e-12</wgt>
  <wgt id="634">3.33087e-12</wgt>
  <wgt id="635">3.27009e-12</wgt>
  <wgt id="636">3.3556e-12</wgt>
  <wgt id="637">3.32033e-12</wgt>
  <wgt id="638">3.20585e-12</wgt>
  <wgt id="639">3.29289e-12</wgt>
  <wgt id="640">3.33979e-12</wgt>
  <wgt id="641">3.35707e-12</wgt>
  <wgt id="642">3.17236e-12</wgt>
  <wgt id="643">3.31791e-12</wgt>
  <wgt id="644">3.21552e-12</wgt>
  <wgt id="645">3.37328e-12</wgt>
  <wgt id="646">3.39028e-12</wgt>
  <wgt id="647">3.29726e-12</wgt>
  <wgt id="648">3.35458e-12</wgt>
  <wgt id="649">3.3916e-12</wgt>
  <wgt id="650">3.27896e-12</wgt>
  <wgt id="651">3.34182e-12</wgt>
  <wgt id="652">3.31487e-12</wgt>
  <wgt id="653">3.24375e-12</wgt>
  <wgt id="654">3.32175e-12</wgt>
  <wgt id="655">3.2891e-12</wgt>
  <wgt id="656">3.36667e-12</wgt>
  <wgt id="657">3.461e-12</wgt>
  <wgt id="658">3.3431e-12</wgt>
  <wgt id="659">3.20532e-12</wgt>
  <wgt id="660">3.40806e-12</wgt>
  <wgt id="661">3.28123e-12</wgt>
  <wgt id="662">3.34481e-12</wgt>
  <wgt id="663">3.33832e-12</wgt>
  <wgt id="664">3.2884e-12</wgt>
  <wgt id="665">3.32739e-12</wgt>
  <wgt id="666">3.30902e-12</wgt>
  <wgt id="667">3.43993e-12</wgt>
  <wgt id="668">3.33594e-12</wgt>
  <wgt id="669">3.42002e-12</wgt>
  <wgt id="670">3.40582e-12</wgt>
  <wgt id="671">3.31062e-12</wgt>
  <wgt id="672">3.19888e-12</wgt>
  <wgt id="673">3.34457e-12</wgt>
  <wgt id="674">3.27704e-12</wgt>
  <wgt id="675">3.29726e-12</wgt>
  <wgt id="676">4.21981e-12</wgt>
  <wgt id="677">4.26433e-12</wgt>
  <wgt id="678">4.41826e-12</wgt>
  <wgt id="679">3.93327e-12</wgt>
  <wgt id="680">4.11892e-12</wgt>
  <wgt id="681">4.31659e-12</wgt>
  <wgt id="682">4.35303e-12</wgt>
  <wgt id="683">4.16465e-12</wgt>
  <wgt id="684">4.41503e-12</wgt>
  <wgt id="685">3.98614e-12</wgt>
  <wgt id="686">4.13831e-12</wgt>
  <wgt id="687">4.43749e-12</wgt>
  <wgt id="688">4.22025e-12</wgt>
  <wgt id="689">4.58686e-12</wgt>
  <wgt id="690">4.43885e-12</wgt>
  <wgt id="691">4.50028e-12</wgt>
  <wgt id="692">4.16895e-12</wgt>
  <wgt id="693">4.95398e-12</wgt>
  <wgt id="694">4.46844e-12</wgt>
  <wgt id="695">4.09193e-12</wgt>
  <wgt id="696">3.98136e-12</wgt>
  <wgt id="697">4.12628e-12</wgt>
  <wgt id="698">3.87411e-12</wgt>
  <wgt id="699">3.84532e-12</wgt>
  <wgt id="700">3.67013e-12</wgt>
  <wgt id="701">4.23781e-12</wgt>
  <wgt id="702">4.07526e-12</wgt>
  <wgt id="703">4.84672e-12</wgt>
  <wgt id="704">4.60958e-12</wgt>
  <wgt id="705">4.39438e-12</wgt>
  <wgt id="706">3.92315e-12</wgt>
  <wgt id="707">4.05152e-12</wgt>
  <wgt id="708">4.16632e-12</wgt>
  <wgt id="709">4.14659e-12</wgt>
  <wgt id="710">3.78026e-12</wgt>
  <wgt id="711">4.19039e-12</wgt>
  <wgt id="712">4.15235e-12</wgt>
  <wgt id="713">4.58546e-12</wgt>
  <wgt id="714">4.15862e-12</wgt>
  <wgt id="715">4.18226e-12</wgt>
  <wgt id="716">4.05182e-12</wgt>
  <wgt id="717">4.03171e-12</wgt>
  <wgt id="718">4.20855e-12</wgt>
  <wgt id="719">3.8252e-12</wgt>
  <wgt id="720">3.95446e-12</wgt>
  <wgt id="721">3.88442e-12</wgt>
  <wgt id="722">3.74206e-12</wgt>
  <wgt id="723">4.50227e-12</wgt>
  <wgt id="724">4.42069e-12</wgt>
  <wgt id="725">4.45711e-12</wgt>
  <wgt id="726">4.26354e-12</wgt>
  <wgt id="727">4.11672e-12</wgt>
  <wgt id="728">4.12634e-12</wgt>
  <wgt id="729">3.80649e-12</wgt>
  <wgt id="730">4.57103e-12</wgt>
  <wgt id="731">4.16853e-12</wgt>
  <wgt id="732">4.63575e-12</wgt>
  <wgt id="733">4.22925e-12</wgt>
  <wgt id="734">4.32381e-12</wgt>
  <wgt id="735">4.19469e-12</wgt>
  <wgt id="736">4.14215e-12</wgt>
  <wgt id="737">4.29618e-12</wgt>
  <wgt id="738">3.99338e-12</wgt>
  <wgt id="739">4.27691e-12</wgt>
  <wgt id="740">4.68912e-12</wgt>
  <wgt id="741">3.74503e-12</wgt>
  <wgt id="742">4.14823e-12</wgt>
  <wgt id="743">4.02454e-12</wgt>
  <wgt id="744">4.13327e-12</wgt>
  <wgt id="745">4.4181e-12</wgt>
  <wgt id="746">4.49185e-12</wgt>
  <wgt id="747">3.82089e-12</wgt>
  <wgt id="748">4.17231e-12</wgt>
  <wgt id="749">4.44705e-12</wgt>
  <wgt id="750">4.27786e-12</wgt>
  <wgt id="751">4.36028e-12</wgt>
  <wgt id="752">3.86022e-12</wgt>
  <wgt id="753">4.02273e-12</wgt>
  <wgt id="754">4.44281e-12</wgt>
  <wgt id="755">4.23691e-12</wgt>
  <wgt id="756">4.25647e-12</wgt>
  <wgt id="757">3.87861e-12</wgt>
  <wgt id="758">4.26165e-12</wgt>
  <wgt id="759">4.29282e-12</wgt>
  <wgt id="760">4.27417e-12</wgt>
  <wgt id="761">4.44223e-12</wgt>
  <wgt id="762">4.47559e-12</wgt>
  <wgt id="763">4.19838e-12</wgt>
  <wgt id="764">4.39146e-12</wgt>
  <wgt id="765">4.32046e-12</wgt>
  <wgt id="766">4.21315e-12</wgt>
  <wgt id="767">4.33596e-12</wgt>
  <wgt id="768">3.97784e-12</wgt>
  <wgt id="769">4.48222e-12</wgt>
  <wgt id="770">4.08455e-12</wgt>
  <wgt id="771">5.00486e-12</wgt>
  <wgt id="772">3.97771e-12</wgt>
  <wgt id="773">4.1856e-12</wgt>
  <wgt id="774">3.75441e-12</wgt>
  <wgt id="775">4.47068e-12</wgt>
  <wgt id="776">4.61173e-12</wgt>
  <wgt id="777">4.00302e-12</wgt>
  <wgt id="778">3.09758e-12</wgt>
  <wgt id="779">2.56974e-12</wgt>
  <wgt id="780">2.07297e-12</wgt>
  <wgt id="781">3.13949e-12</wgt>
  <wgt id="782">3.27841e-12</wgt>
  <wgt id="783">2.59709e-12</wgt>
  <wgt id="784">2.6981e-12</wgt>
  <wgt id="785">3.77314e-12</wgt>
  <wgt id="786">2.37995e-12</wgt>
  <wgt id="787">3.54702e-12</wgt>
  <wgt id="788">1.92608e-12</wgt>
  <wgt id="789">2.45284e-12</wgt>
  <wgt id="790">2.34511e-12</wgt>
  <wgt id="791">2.88723e-12</wgt>
  <wgt id="792">4.03549e-12</wgt>
  <wgt id="793">3.02454e-12</wgt>
  <wgt id="794">2.34492e-12</wgt>
  <wgt id="795">3.66267e-12</wgt>
  <wgt id="796">4.10375e-12</wgt>
  <wgt id="797">3.60922e-12</wgt>
  <wgt id="798">2.84966e-12</wgt>
  <wgt id="799">3.54765e-12</wgt>
  <wgt id="800">2.48228e-12</wgt>
  <wgt id="801">2.88143e-12</wgt>
  <wgt id="802">2.36088e-12</wgt>
  <wgt id="803">3.9849e-12</wgt>
  <wgt id="804">3.63156e-12</wgt>
  <wgt id="805">3.70428e-12</wgt>
  <wgt id="806">3.47554e-12</wgt>
  <wgt id="807">2.93823e-12</wgt>
  <wgt id="808">3.01371e-12</wgt>
  <wgt id="809">2.8463e-12</wgt>
  <wgt id="810">3.53544e-12</wgt>
  <wgt id="811">3.4002e-12</wgt>
  <wgt id="812">2.32276e-12</wgt>
  <wgt id="813">2.38172e-12</wgt>
  <wgt id="814">2.67123e-12</wgt>
  <wgt id="815">2.57526e-12</wgt>
  <wgt id="816">2.23658e-12</wgt>
  <wgt id="817">3.25761e-12</wgt>
  <wgt id="818">3.07083e-12</wgt>
  <wgt id="819">2.56304e-12</wgt>
  <wgt id="820">3.1045e-12</wgt>
  <wgt id="821">3.59834e-12</wgt>
  <wgt id="822">2.54034e-12</wgt>
  <wgt id="823">3.6219e-12</wgt>
  <wgt id="824">4.18558e-12</wgt>
  <wgt id="825">2.26461e-12</wgt>
  <wgt id="826">3.29138e-12</wgt>
  <wgt id="827">1.84777e-12</wgt>
  <wgt id="828">3.98548e-12</wgt>
  <wgt id="829">3.24159e-12</wgt>
  <wgt id="830">2.14461e-12</wgt>
  <wgt id="831">3.35223e-12</wgt>
  <wgt id="832">5.15344e-12</wgt>
  <wgt id="833">2.87468e-12</wgt>
  <wgt id="834">4.79419e-12</wgt>
  <wgt id="835">2.49699e-12</wgt>
  <wgt id="836">3.08175e-12</wgt>
  <wgt id="837">3.55146e-12</wgt>
  <wgt id="838">2.96163e-12</wgt>
  <wgt id="839">3.32714e-12</wgt>
  <wgt id="840">2.88249e-12</wgt>
  <wgt id="841">3.86057e-12</wgt>
  <wgt id="842">2.78089e-12</wgt>
  <wgt id="843">3.05081e-12</wgt>
  <wgt id="844">3.25092e-12</wgt>
  <wgt id="845">4.38705e-12</wgt>
  <wgt id="846">2.85314e-12</wgt>
  <wgt id="847">3.15617e-12</wgt>
  <wgt id="848">2.65801e-12</wgt>
  <wgt id="849">3.18346e-12</wgt>
  <wgt id="850">4.09011e-12</wgt>
  <wgt id="851">3.40986e-12</wgt>
  <wgt id="852">2.64942e-12</wgt>
  <wgt id="853">3.4143e-12</wgt>
  <wgt id="854">3.80056e-12</wgt>
  <wgt id="855">3.6415e-12</wgt>
  <wgt id="856">2.20514e-12</wgt>
  <wgt id="857">3.10282e-12</wgt>
  <wgt id="858">3.09242e-12</wgt>
  <wgt id="859">2.86631e-12</wgt>
  <wgt id="860">3.35494e-12</wgt>
  <wgt id="861">2.69488e-12</wgt>
  <wgt id="862">3.16989e-12</wgt>
  <wgt id="863">3.29724e-12</wgt>
  <wgt id="864">3.3239e-12</wgt>
  <wgt id="865">4.51812e-12</wgt>
  <wgt id="866">4.93875e-12</wgt>
  <wgt id="867">3.18497e-12</wgt>
  <wgt id="868">3.08791e-12</wgt>
  <wgt id="869">2.38452e-12</wgt>
  <wgt id="870">2.5043e-12</wgt>
  <wgt id="871">2.42745e-12</wgt>
  <wgt id="872">3.73826e-12</wgt>
  <wgt id="873">2.51532e-12</wgt>
  <wgt id="874">3.2788e-12</wgt>
  <wgt id="875">2.6854e-12</wgt>
  <wgt id="876">3.7545e-12</wgt>
  <wgt id="877">3.59885e-12</wgt>
  <wgt id="878">2.63518e-12</wgt>
  <wgt id="879">4.21981e-12</wgt>
  <wgt id="880">4.26433e-12</wgt>
  <wgt id="881">4.41826e-12</wgt>
  <wgt id="882">3.93327e-12</wgt>
  <wgt id="883">4.11892e-12</wgt>
  <wgt id="884">4.31659e-12</wgt>
  <wgt id="885">4.35303e-12</wgt>
  <wgt id="886">4.16465e-12</wgt>
  <wgt id="887">4.41503e-12</wgt>
  <wgt id="888">3.98614e-12</wgt>
  <wgt id="889">4.13831e-12</wgt>
  <wgt id="890">4.43749e-12</wgt>
  <wgt id="891">4.22025e-12</wgt>
  <wgt id="892">4.58686e-12</wgt>
  <wgt id="893">4.43885e-12</wgt>
  <wgt id="894">4.50028e-12</wgt>
  <wgt id="895">4.16895e-12</wgt>
  <wgt id="896">4.95398e-12</wgt>
  <wgt id="897">4.46844e-12</wgt>
  <wgt id="898">4.09193e-12</wgt>
  <wgt id="899">3.98136e-12</wgt>
  <wgt id="900">4.12628e-12</wgt>
  <wgt id="901">3.87411e-12</wgt>
  <wgt id="902">3.84532e-12</wgt>
  <wgt id="903">3.67013e-12</wgt>
  <wgt id="904">4.23781e-12</wgt>
  <wgt id="905">4.07526e-12</wgt>
  <wgt id="906">4.84672e-12</wgt>
  <wgt id="907">4.60958e-12</wgt>
  <wgt id="908">4.39438e-12</wgt>
  <wgt id="909">3.92315e-12</wgt>
  <wgt id="910">4.05152e-12</wgt>
  <wgt id="911">4.16632e-12</wgt>
  <wgt id="912">4.14659e-12</wgt>
  <wgt id="913">3.78026e-12</wgt>
  <wgt id="914">4.19039e-12</wgt>
  <wgt id="915">4.15235e-12</wgt>
  <wgt id="916">4.58546e-12</wgt>
  <wgt id="917">4.15862e-12</wgt>
  <wgt id="918">4.18226e-12</wgt>
  <wgt id="919">4.05182e-12</wgt>
  <wgt id="920">4.03171e-12</wgt>
  <wgt id="921">4.20855e-12</wgt>
  <wgt id="922">3.8252e-12</wgt>
  <wgt id="923">3.95446e-12</wgt>
  <wgt id="924">3.88442e-12</wgt>
  <wgt id="925">3.74206e-12</wgt>
  <wgt id="926">4.50227e-12</wgt>
  <wgt id="927">4.42069e-12</wgt>
  <wgt id="928">4.45711e-12</wgt>
  <wgt id="929">4.26354e-12</wgt>
  <wgt id="930">4.11672e-12</wgt>
  <wgt id="931">4.12634e-12</wgt>
  <wgt id="932">3.80649e-12</wgt>
  <wgt id="933">4.57103e-12</wgt>
  <wgt id="934">4.16853e-12</wgt>
  <wgt id="935">4.63575e-12</wgt>
  <wgt id="936">4.22925e-12</wgt>
  <wgt id="937">4.32381e-12</wgt>
  <wgt id="938">4.19469e-12</wgt>
  <wgt id="939">4.14215e-12</wgt>
  <wgt id="940">4.29618e-12</wgt>
  <wgt id="941">3.99338e-12</wgt>
  <wgt id="942">4.27691e-12</wgt>
  <wgt id="943">4.68912e-12</wgt>
  <wgt id="944">3.74503e-12</wgt>
  <wgt id="945">4.14823e-12</wgt>
  <wgt id="946">4.02454e-12</wgt>
  <wgt id="947">4.13327e-12</wgt>
  <wgt id="948">4.4181e-12</wgt>
  <wgt id="949">4.49185e-12</wgt>
  <wgt id="950">3.82089e-12</wgt>
  <wgt id="951">4.17231e-12</wgt>
  <wgt id="952">4.44705e-12</wgt>
  <wgt id="953">4.27786e-12</wgt>
  <wgt id="954">4.36028e-12</wgt>
  <wgt id="955">3.86022e-12</wgt>
  <wgt id="956">4.02273e-12</wgt>
  <wgt id="957">4.44281e-12</wgt>
  <wgt id="958">4.23691e-12</wgt>
  <wgt id="959">4.25647e-12</wgt>
  <wgt id="960">3.87861e-12</wgt>
  <wgt id="961">4.26165e-12</wgt>
  <wgt id="962">4.29282e-12</wgt>
  <wgt id="963">4.27417e-12</wgt>
  <wgt id="964">4.44223e-12</wgt>
  <wgt id="965">4.47559e-12</wgt>
  <wgt id="966">4.19838e-12</wgt>
  <wgt id="967">4.39146e-12</wgt>
  <wgt id="968">4.32046e-12</wgt>
  <wgt id="969">4.21315e-12</wgt>
  <wgt id="970">4.33596e-12</wgt>
  <wgt id="971">3.97784e-12</wgt>
  <wgt id="972">4.48222e-12</wgt>
  <wgt id="973">4.08455e-12</wgt>
  <wgt id="974">5.00486e-12</wgt>
  <wgt id="975">3.97771e-12</wgt>
  <wgt id="976">4.1856e-12</wgt>
  <wgt id="977">3.75441e-12</wgt>
  <wgt id="978">4.47068e-12</wgt>
  <wgt id="979">4.61173e-12</wgt>
  <wgt id="980">4.21762e-12</wgt>
  <wgt id="981">4.24634e-12</wgt>
  <wgt id="982">4.09821e-12</wgt>
</rwgt>
</event>
<event>
 5   1  0.3028200E-11  0.2168592E+04  0.7818608E-02  0.7760804E-01
       21   -1    0    0  502  501  0.00000000000E+00  0.00000000000E+00  0.93020151530E+03  0.93020151530E+03  0.00000000000E+00 0. -1.
       21   -1    0    0  501  502 -0.00000000000E+00 -0.00000000000E+00 -0.12639170636E+04  0.12639170636E+04  0.00000000000E+00 0.  1.
       39    2    1    2    0    0  0.00000000000E+00  0.00000000000E+00 -0.33371554834E+03  0.21941185790E+04  0.21685917715E+04 0.  0.
       25    1    3    3    0    0  0.73814538278E+03  0.46737389319E+03 -0.80417369972E+03  0.11939921698E+04  0.12500000000E+03 0.  0.
       25    1    3    3    0    0 -0.73814538278E+03 -0.46737389319E+03  0.47045815138E+03  0.10001264092E+04  0.12500000000E+03 0.  0.
<mgrwt>
<rscale>  0 0.21685918E+04</rscale>
<asrwt>0</asrwt>
<pdfrwt beam="1">  1       21 0.14310792E+00 0.21685918E+04</pdfrwt>
<pdfrwt beam="2">  1       21 0.19444878E+00 0.21685918E+04</pdfrwt>
<totfact> 0.20282428E+01</totfact>
</mgrwt>
<rwgt>
  <wgt id="1">3.0282e-12</wgt>
  <wgt id="2">2.64557e-12</wgt>
  <wgt id="3">3.50133e-12</wgt>
  <wgt id="4">3.0282e-12</wgt>
  <wgt id="5">2.64557e-12</wgt>
  <wgt id="6">3.50133e-12</wgt>
  <wgt id="7">3.0282e-12</wgt>
  <wgt id="8">2.64557e-12</wgt>
  <wgt id="9">3.50133e-12</wgt>
  <wgt id="10">3.11353e-12</wgt>
  <wgt id="11">3.11055e-12</wgt>
  <wgt id="12">3.10769e-12</wgt>
  <wgt id="13">3.10294e-12</wgt>
  <wgt id="14">3.12454e-12</wgt>
  <wgt id="15">3.11805e-12</wgt>
  <wgt id="16">3.10688e-12</wgt>
  <wgt id="17">3.11903e-12</wgt>
  <wgt id="18">3.10953e-12</wgt>
  <wgt id="19">3.11977e-12</wgt>
  <wgt id="20">3.10436e-12</wgt>
  <wgt id="21">3.09688e-12</wgt>
  <wgt id="22">3.10393e-12</wgt>
  <wgt id="23">3.08726e-12</wgt>
  <wgt id="24">3.09989e-12</wgt>
  <wgt id="25">3.10596e-12</wgt>
  <wgt id="26">3.12612e-12</wgt>
  <wgt id="27">3.11315e-12</wgt>
  <wgt id="28">3.09887e-12</wgt>
  <wgt id="29">3.11669e-12</wgt>
  <wgt id="30">3.10534e-12</wgt>
  <wgt id="31">3.12183e-12</wgt>
  <wgt id="32">3.10673e-12</wgt>
  <wgt id="33">3.12004e-12</wgt>
  <wgt id="34">3.10447e-12</wgt>
  <wgt id="35">3.10942e-12</wgt>
  <wgt id="36">3.12067e-12</wgt>
  <wgt id="37">3.10563e-12</wgt>
  <wgt id="38">3.10612e-12</wgt>
  <wgt id="39">3.14518e-12</wgt>
  <wgt id="40">3.12116e-12</wgt>
  <wgt id="41">3.11274e-12</wgt>
  <wgt id="42">3.12337e-12</wgt>
  <wgt id="43">3.11622e-12</wgt>
  <wgt id="44">3.10121e-12</wgt>
  <wgt id="45">3.11805e-12</wgt>
  <wgt id="46">3.11681e-12</wgt>
  <wgt id="47">3.10053e-12</wgt>
  <wgt id="48">3.11376e-12</wgt>
  <wgt id="49">3.12475e-12</wgt>
  <wgt id="50">3.1325e-12</wgt>
  <wgt id="51">3.12582e-12</wgt>
  <wgt id="52">3.10296e-12</wgt>
  <wgt id="53">3.09551e-12</wgt>
  <wgt id="54">3.10761e-12</wgt>
  <wgt id="55">3.11269e-12</wgt>
  <wgt id="56">3.12321e-12</wgt>
  <wgt id="57">3.12417e-12</wgt>
  <wgt id="58">3.09303e-12</wgt>
  <wgt id="59">3.10355e-12</wgt>
  <wgt id="60">3.11476e-12</wgt>
  <wgt id="61">3.11004e-12</wgt>
  <wgt id="62">3.11304e-12</wgt>
  <wgt id="63">3.11714e-12</wgt>
  <wgt id="64">3.11708e-12</wgt>
  <wgt id="65">3.11661e-12</wgt>
  <wgt id="66">3.1099e-12</wgt>
  <wgt id="67">3.10941e-12</wgt>
  <wgt id="68">3.11054e-12</wgt>
  <wgt id="69">3.11273e-12</wgt>
  <wgt id="70">3.11173e-12</wgt>
  <wgt id="71">3.11199e-12</wgt>
  <wgt id="72">3.11013e-12</wgt>
  <wgt id="73">3.11564e-12</wgt>
  <wgt id="74">3.11476e-12</wgt>
  <wgt id="75">3.11283e-12</wgt>
  <wgt id="76">3.12051e-12</wgt>
  <wgt id="77">3.11311e-12</wgt>
  <wgt id="78">3.11448e-12</wgt>
  <wgt id="79">3.1185e-12</wgt>
  <wgt id="80">3.10222e-12</wgt>
  <wgt id="81">3.10993e-12</wgt>
  <wgt id="82">3.11359e-12</wgt>
  <wgt id="83">3.10342e-12</wgt>
  <wgt id="84">3.10806e-12</wgt>
  <wgt id="85">3.10881e-12</wgt>
  <wgt id="86">3.11958e-12</wgt>
  <wgt id="87">3.10046e-12</wgt>
  <wgt id="88">3.11649e-12</wgt>
  <wgt id="89">3.1161e-12</wgt>
  <wgt id="90">3.11724e-12</wgt>
  <wgt id="91">3.11559e-12</wgt>
  <wgt id="92">3.11853e-12</wgt>
  <wgt id="93">3.11334e-12</wgt>
  <wgt id="94">3.11127e-12</wgt>
  <wgt id="95">3.11527e-12</wgt>
  <wgt id="96">3.11513e-12</wgt>
  <wgt id="97">3.10999e-12</wgt>
  <wgt id="98">3.11488e-12</wgt>
  <wgt id="99">3.112e-12</wgt>
  <wgt id="100">3.11604e-12</wgt>
  <wgt id="101">3.11287e-12</wgt>
  <wgt id="102">3.11094e-12</wgt>
  <wgt id="103">3.11705e-12</wgt>
  <wgt id="104">3.11179e-12</wgt>
  <wgt id="105">3.11615e-12</wgt>
  <wgt id="106">3.1101e-12</wgt>
  <wgt id="107">3.12066e-12</wgt>
  <wgt id="108">3.11093e-12</wgt>
  <wgt id="109">3.11428e-12</wgt>
  <wgt id="110">3.11322e-12</wgt>
  <wgt id="111">3.15005e-12</wgt>
  <wgt id="112">3.10755e-12</wgt>
  <wgt id="113">4.09769e-12</wgt>
  <wgt id="114">4.26181e-12</wgt>
  <wgt id="115">4.20351e-12</wgt>
  <wgt id="116">5.73572e-12</wgt>
  <wgt id="117">3.42697e-12</wgt>
  <wgt id="118">3.43799e-12</wgt>
  <wgt id="119">3.42085e-12</wgt>
  <wgt id="120">3.42746e-12</wgt>
  <wgt id="121">3.42683e-12</wgt>
  <wgt id="122">3.42084e-12</wgt>
  <wgt id="123">3.43554e-12</wgt>
  <wgt id="124">3.42197e-12</wgt>
  <wgt id="125">3.4303e-12</wgt>
  <wgt id="126">3.43273e-12</wgt>
  <wgt id="127">3.42326e-12</wgt>
  <wgt id="128">3.43775e-12</wgt>
  <wgt id="129">3.41643e-12</wgt>
  <wgt id="130">3.44669e-12</wgt>
  <wgt id="131">3.4069e-12</wgt>
  <wgt id="132">3.34119e-12</wgt>
  <wgt id="133">3.52823e-12</wgt>
  <wgt id="134">3.39197e-12</wgt>
  <wgt id="135">3.45436e-12</wgt>
  <wgt id="136">3.46808e-12</wgt>
  <wgt id="137">3.37737e-12</wgt>
  <wgt id="138">3.55153e-12</wgt>
  <wgt id="139">3.30619e-12</wgt>
  <wgt id="140">3.40354e-12</wgt>
  <wgt id="141">3.44542e-12</wgt>
  <wgt id="142">3.42756e-12</wgt>
  <wgt id="143">3.4311e-12</wgt>
  <wgt id="144">3.34487e-12</wgt>
  <wgt id="145">3.50222e-12</wgt>
  <wgt id="146">3.45305e-12</wgt>
  <wgt id="147">3.40671e-12</wgt>
  <wgt id="148">3.43679e-12</wgt>
  <wgt id="149">3.4263e-12</wgt>
  <wgt id="150">3.45577e-12</wgt>
  <wgt id="151">3.41357e-12</wgt>
  <wgt id="152">3.4284e-12</wgt>
  <wgt id="153">3.4266e-12</wgt>
  <wgt id="154">3.45757e-12</wgt>
  <wgt id="155">3.39131e-12</wgt>
  <wgt id="156">3.48206e-12</wgt>
  <wgt id="157">3.36508e-12</wgt>
  <wgt id="158">4.12472e-12</wgt>
  <wgt id="159">4.14176e-12</wgt>
  <wgt id="160">4.11081e-12</wgt>
  <wgt id="161">4.11496e-12</wgt>
  <wgt id="162">4.13533e-12</wgt>
  <wgt id="163">4.12057e-12</wgt>
  <wgt id="164">4.1308e-12</wgt>
  <wgt id="165">4.12628e-12</wgt>
  <wgt id="166">4.12344e-12</wgt>
  <wgt id="167">4.12165e-12</wgt>
  <wgt id="168">4.12889e-12</wgt>
  <wgt id="169">4.10693e-12</wgt>
  <wgt id="170">4.1358e-12</wgt>
  <wgt id="171">4.12042e-12</wgt>
  <wgt id="172">4.13064e-12</wgt>
  <wgt id="173">4.12538e-12</wgt>
  <wgt id="174">4.12427e-12</wgt>
  <wgt id="175">4.01398e-12</wgt>
  <wgt id="176">4.26842e-12</wgt>
  <wgt id="177">4.1452e-12</wgt>
  <wgt id="178">4.10555e-12</wgt>
  <wgt id="179">4.28488e-12</wgt>
  <wgt id="180">3.87023e-12</wgt>
  <wgt id="181">4.01215e-12</wgt>
  <wgt id="182">4.19875e-12</wgt>
  <wgt id="183">4.05574e-12</wgt>
  <wgt id="184">4.15879e-12</wgt>
  <wgt id="185">4.09333e-12</wgt>
  <wgt id="186">4.16157e-12</wgt>
  <wgt id="187">4.08933e-12</wgt>
  <wgt id="188">4.18842e-12</wgt>
  <wgt id="189">4.10026e-12</wgt>
  <wgt id="190">4.13471e-12</wgt>
  <wgt id="191">4.13505e-12</wgt>
  <wgt id="192">4.1185e-12</wgt>
  <wgt id="193">4.17888e-12</wgt>
  <wgt id="194">4.09785e-12</wgt>
  <wgt id="195">4.04195e-12</wgt>
  <wgt id="196">4.28153e-12</wgt>
  <wgt id="197">4.14402e-12</wgt>
  <wgt id="198">4.11999e-12</wgt>
  <wgt id="199">4.12472e-12</wgt>
  <wgt id="200">4.15815e-12</wgt>
  <wgt id="201">4.14572e-12</wgt>
  <wgt id="202">4.13374e-12</wgt>
  <wgt id="203">4.11549e-12</wgt>
  <wgt id="204">4.10693e-12</wgt>
  <wgt id="205">4.09981e-12</wgt>
  <wgt id="206">4.01739e-12</wgt>
  <wgt id="207">4.04057e-12</wgt>
  <wgt id="208">3.9944e-12</wgt>
  <wgt id="209">4.02825e-12</wgt>
  <wgt id="210">4.00937e-12</wgt>
  <wgt id="211">4.0162e-12</wgt>
  <wgt id="212">4.0183e-12</wgt>
  <wgt id="213">4.01702e-12</wgt>
  <wgt id="214">4.01793e-12</wgt>
  <wgt id="215">4.01991e-12</wgt>
  <wgt id="216">4.01547e-12</wgt>
  <wgt id="217">4.0283e-12</wgt>
  <wgt id="218">4.00884e-12</wgt>
  <wgt id="219">4.01229e-12</wgt>
  <wgt id="220">4.02043e-12</wgt>
  <wgt id="221">4.01532e-12</wgt>
  <wgt id="222">4.02202e-12</wgt>
  <wgt id="223">3.81541e-12</wgt>
  <wgt id="224">4.20059e-12</wgt>
  <wgt id="225">3.97235e-12</wgt>
  <wgt id="226">4.07369e-12</wgt>
  <wgt id="227">3.98122e-12</wgt>
  <wgt id="228">4.03326e-12</wgt>
  <wgt id="229">3.96405e-12</wgt>
  <wgt id="230">4.04386e-12</wgt>
  <wgt id="231">4.12533e-12</wgt>
  <wgt id="232">3.92829e-12</wgt>
  <wgt id="233">3.99789e-12</wgt>
  <wgt id="234">4.0469e-12</wgt>
  <wgt id="235">3.954e-12</wgt>
  <wgt id="236">4.08113e-12</wgt>
  <wgt id="237">3.97128e-12</wgt>
  <wgt id="238">4.03328e-12</wgt>
  <wgt id="239">3.99673e-12</wgt>
  <wgt id="240">4.05489e-12</wgt>
  <wgt id="241">3.97958e-12</wgt>
  <wgt id="242">4.06272e-12</wgt>
  <wgt id="243">4.05532e-12</wgt>
  <wgt id="244">4.04415e-12</wgt>
  <wgt id="245">4.01392e-12</wgt>
  <wgt id="246">4.0487e-12</wgt>
  <wgt id="247">4.01739e-12</wgt>
  <wgt id="248">4.05019e-12</wgt>
  <wgt id="249">4.03747e-12</wgt>
  <wgt id="250">4.0258e-12</wgt>
  <wgt id="251">4.00794e-12</wgt>
  <wgt id="252">3.99972e-12</wgt>
  <wgt id="253">3.99356e-12</wgt>
  <wgt id="254">3.93592e-12</wgt>
  <wgt id="255">3.93967e-12</wgt>
  <wgt id="256">3.93182e-12</wgt>
  <wgt id="257">3.939e-12</wgt>
  <wgt id="258">3.93362e-12</wgt>
  <wgt id="259">3.96201e-12</wgt>
  <wgt id="260">3.91074e-12</wgt>
  <wgt id="261">3.94017e-12</wgt>
  <wgt id="262">3.93088e-12</wgt>
  <wgt id="263">3.93453e-12</wgt>
  <wgt id="264">3.93745e-12</wgt>
  <wgt id="265">3.93185e-12</wgt>
  <wgt id="266">3.94398e-12</wgt>
  <wgt id="267">3.93713e-12</wgt>
  <wgt id="268">3.9343e-12</wgt>
  <wgt id="269">3.94742e-12</wgt>
  <wgt id="270">3.9281e-12</wgt>
  <wgt id="271">3.92945e-12</wgt>
  <wgt id="272">3.94301e-12</wgt>
  <wgt id="273">3.92427e-12</wgt>
  <wgt id="274">3.94483e-12</wgt>
  <wgt id="275">3.92148e-12</wgt>
  <wgt id="276">3.95084e-12</wgt>
  <wgt id="277">3.91456e-12</wgt>
  <wgt id="278">3.95561e-12</wgt>
  <wgt id="279">3.86454e-12</wgt>
  <wgt id="280">4.0252e-12</wgt>
  <wgt id="281">3.9199e-12</wgt>
  <wgt id="282">3.9361e-12</wgt>
  <wgt id="283">3.8316e-12</wgt>
  <wgt id="284">4.06381e-12</wgt>
  <wgt id="285">3.76169e-12</wgt>
  <wgt id="286">4.07897e-12</wgt>
  <wgt id="287">3.94741e-12</wgt>
  <wgt id="288">3.92121e-12</wgt>
  <wgt id="289">3.96133e-12</wgt>
  <wgt id="290">3.87575e-12</wgt>
  <wgt id="291">3.92689e-12</wgt>
  <wgt id="292">3.93813e-12</wgt>
  <wgt id="293">3.90804e-12</wgt>
  <wgt id="294">3.96353e-12</wgt>
  <wgt id="295">3.86657e-12</wgt>
  <wgt id="296">4.02028e-12</wgt>
  <wgt id="297">3.93815e-12</wgt>
  <wgt id="298">3.9478e-12</wgt>
  <wgt id="299">3.92431e-12</wgt>
  <wgt id="300">3.96653e-12</wgt>
  <wgt id="301">3.89463e-12</wgt>
  <wgt id="302">4.05003e-12</wgt>
  <wgt id="303">3.91181e-12</wgt>
  <wgt id="304">3.94996e-12</wgt>
  <wgt id="305">3.95736e-12</wgt>
  <wgt id="306">3.96149e-12</wgt>
  <wgt id="307">3.95306e-12</wgt>
  <wgt id="308">3.96081e-12</wgt>
  <wgt id="309">3.95513e-12</wgt>
  <wgt id="310">3.9846e-12</wgt>
  <wgt id="311">3.93218e-12</wgt>
  <wgt id="312">3.96049e-12</wgt>
  <wgt id="313">3.95445e-12</wgt>
  <wgt id="314">3.95611e-12</wgt>
  <wgt id="315">3.95873e-12</wgt>
  <wgt id="316">3.95359e-12</wgt>
  <wgt id="317">3.96579e-12</wgt>
  <wgt id="318">3.96005e-12</wgt>
  <wgt id="319">3.95305e-12</wgt>
  <wgt id="320">3.96936e-12</wgt>
  <wgt id="321">3.95083e-12</wgt>
  <wgt id="322">3.9489e-12</wgt>
  <wgt id="323">3.96753e-12</wgt>
  <wgt id="324">3.94769e-12</wgt>
  <wgt id="325">3.96597e-12</wgt>
  <wgt id="326">3.94581e-12</wgt>
  <wgt id="327">3.97232e-12</wgt>
  <wgt id="328">3.9379e-12</wgt>
  <wgt id="329">3.96871e-12</wgt>
  <wgt id="330">4.06856e-12</wgt>
  <wgt id="331">3.85108e-12</wgt>
  <wgt id="332">3.94423e-12</wgt>
  <wgt id="333">3.95713e-12</wgt>
  <wgt id="334">3.87498e-12</wgt>
  <wgt id="335">4.05946e-12</wgt>
  <wgt id="336">3.83023e-12</wgt>
  <wgt id="337">4.111e-12</wgt>
  <wgt id="338">3.99809e-12</wgt>
  <wgt id="339">3.91959e-12</wgt>
  <wgt id="340">3.98175e-12</wgt>
  <wgt id="341">3.89399e-12</wgt>
  <wgt id="342">3.9513e-12</wgt>
  <wgt id="343">3.95401e-12</wgt>
  <wgt id="344">3.93177e-12</wgt>
  <wgt id="345">3.98709e-12</wgt>
  <wgt id="346">3.8851e-12</wgt>
  <wgt id="347">4.04054e-12</wgt>
  <wgt id="348">3.96169e-12</wgt>
  <wgt id="349">3.96651e-12</wgt>
  <wgt id="350">3.94263e-12</wgt>
  <wgt id="351">3.99484e-12</wgt>
  <wgt id="352">3.91092e-12</wgt>
  <wgt id="353">4.07888e-12</wgt>
  <wgt id="354">3.92019e-12</wgt>
  <wgt id="355">3.98069e-12</wgt>
  <wgt id="356">3.93592e-12</wgt>
  <wgt id="357">3.97628e-12</wgt>
  <wgt id="358">3.95736e-12</wgt>
  <wgt id="359">3.95234e-12</wgt>
  <wgt id="360">3.95299e-12</wgt>
  <wgt id="361">3.94623e-12</wgt>
  <wgt id="362">4.00917e-12</wgt>
  <wgt id="363">4.00026e-12</wgt>
  <wgt id="364">3.98843e-12</wgt>
  <wgt id="365">3.97603e-12</wgt>
  <wgt id="366">3.96187e-12</wgt>
  <wgt id="367">3.93215e-12</wgt>
  <wgt id="368">3.91606e-12</wgt>
  <wgt id="369">3.89887e-12</wgt>
  <wgt id="370">3.94623e-12</wgt>
  <wgt id="371">3.96368e-12</wgt>
  <wgt id="372">3.95402e-12</wgt>
  <wgt id="373">3.93976e-12</wgt>
  <wgt id="374">3.93738e-12</wgt>
  <wgt id="375">4.16256e-12</wgt>
  <wgt id="376">4.16305e-12</wgt>
  <wgt id="377">4.16192e-12</wgt>
  <wgt id="378">4.17737e-12</wgt>
  <wgt id="379">4.14772e-12</wgt>
  <wgt id="380">4.17378e-12</wgt>
  <wgt id="381">4.15803e-12</wgt>
  <wgt id="382">4.18267e-12</wgt>
  <wgt id="383">4.14265e-12</wgt>
  <wgt id="384">4.16522e-12</wgt>
  <wgt id="385">4.16e-12</wgt>
  <wgt id="386">4.178e-12</wgt>
  <wgt id="387">4.1558e-12</wgt>
  <wgt id="388">4.1588e-12</wgt>
  <wgt id="389">4.16703e-12</wgt>
  <wgt id="390">4.17324e-12</wgt>
  <wgt id="391">4.15127e-12</wgt>
  <wgt id="392">4.13456e-12</wgt>
  <wgt id="393">4.17844e-12</wgt>
  <wgt id="394">4.16852e-12</wgt>
  <wgt id="395">4.15439e-12</wgt>
  <wgt id="396">4.16358e-12</wgt>
  <wgt id="397">4.16185e-12</wgt>
  <wgt id="398">4.14585e-12</wgt>
  <wgt id="399">4.17865e-12</wgt>
  <wgt id="400">4.15612e-12</wgt>
  <wgt id="401">4.17678e-12</wgt>
  <wgt id="402">4.13165e-12</wgt>
  <wgt id="403">4.17497e-12</wgt>
  <wgt id="404">4.24992e-12</wgt>
  <wgt id="405">3.95114e-12</wgt>
  <wgt id="406">4.09965e-12</wgt>
  <wgt id="407">4.29803e-12</wgt>
  <wgt id="408">4.19481e-12</wgt>
  <wgt id="409">4.10039e-12</wgt>
  <wgt id="410">4.05872e-12</wgt>
  <wgt id="411">4.2099e-12</wgt>
  <wgt id="412">4.15599e-12</wgt>
  <wgt id="413">4.17167e-12</wgt>
  <wgt id="414">4.12108e-12</wgt>
  <wgt id="415">4.1947e-12</wgt>
  <wgt id="416">4.25928e-12</wgt>
  <wgt id="417">4.02853e-12</wgt>
  <wgt id="418">4.16758e-12</wgt>
  <wgt id="419">4.13565e-12</wgt>
  <wgt id="420">4.20869e-12</wgt>
  <wgt id="421">4.13911e-12</wgt>
  <wgt id="422">4.16179e-12</wgt>
  <wgt id="423">4.16398e-12</wgt>
  <wgt id="424">4.23117e-12</wgt>
  <wgt id="425">4.12094e-12</wgt>
  <wgt id="426">4.16256e-12</wgt>
  <wgt id="427">4.13476e-12</wgt>
  <wgt id="428">4.24993e-12</wgt>
  <wgt id="429">4.19361e-12</wgt>
  <wgt id="430">4.30184e-12</wgt>
  <wgt id="431">4.28032e-12</wgt>
  <wgt id="432">4.25979e-12</wgt>
  <wgt id="433">4.23984e-12</wgt>
  <wgt id="434">4.21604e-12</wgt>
  <wgt id="435">4.16543e-12</wgt>
  <wgt id="436">4.1392e-12</wgt>
  <wgt id="437">4.11436e-12</wgt>
  <wgt id="438">4.19361e-12</wgt>
  <wgt id="439">4.20741e-12</wgt>
  <wgt id="440">4.19938e-12</wgt>
  <wgt id="441">4.18919e-12</wgt>
  <wgt id="442">4.18544e-12</wgt>
  <wgt id="443">4.09972e-12</wgt>
  <wgt id="444">4.11776e-12</wgt>
  <wgt id="445">4.08516e-12</wgt>
  <wgt id="446">4.07526e-12</wgt>
  <wgt id="447">4.08633e-12</wgt>
  <wgt id="448">4.00013e-12</wgt>
  <wgt id="449">4.157e-12</wgt>
  <wgt id="450">4.08318e-12</wgt>
  <wgt id="451">4.0942e-12</wgt>
  <wgt id="452">4.18194e-12</wgt>
  <wgt id="453">4.13113e-12</wgt>
  <wgt id="454">3.94665e-12</wgt>
  <wgt id="455">4.10459e-12</wgt>
  <wgt id="456">4.04191e-12</wgt>
  <wgt id="457">4.11396e-12</wgt>
  <wgt id="458">4.14234e-12</wgt>
  <wgt id="459">4.12452e-12</wgt>
  <wgt id="460">4.12145e-12</wgt>
  <wgt id="461">4.03571e-12</wgt>
  <wgt id="462">4.07189e-12</wgt>
  <wgt id="463">4.06104e-12</wgt>
  <wgt id="464">4.08089e-12</wgt>
  <wgt id="465">4.13586e-12</wgt>
  <wgt id="466">4.0598e-12</wgt>
  <wgt id="467">4.06592e-12</wgt>
  <wgt id="468">4.09012e-12</wgt>
  <wgt id="469">4.09078e-12</wgt>
  <wgt id="470">4.06701e-12</wgt>
  <wgt id="471">4.06938e-12</wgt>
  <wgt id="472">4.11551e-12</wgt>
  <wgt id="473">3.98812e-12</wgt>
  <wgt id="474">3.0282e-12</wgt>
  <wgt id="475">3.21298e-12</wgt>
  <wgt id="476">2.97013e-12</wgt>
  <wgt id="477">2.96745e-12</wgt>
  <wgt id="478">3.04624e-12</wgt>
  <wgt id="479">2.99197e-12</wgt>
  <wgt id="480">3.11977e-12</wgt>
  <wgt id="481">2.9547e-12</wgt>
  <wgt id="482">2.9114e-12</wgt>
  <wgt id="483">2.95193e-12</wgt>
  <wgt id="484">3.23661e-12</wgt>
  <wgt id="485">3.03519e-12</wgt>
  <wgt id="486">3.08053e-12</wgt>
  <wgt id="487">3.06847e-12</wgt>
  <wgt id="488">3.06547e-12</wgt>
  <wgt id="489">2.91778e-12</wgt>
  <wgt id="490">2.94216e-12</wgt>
  <wgt id="491">2.99798e-12</wgt>
  <wgt id="492">2.93774e-12</wgt>
  <wgt id="493">2.92677e-12</wgt>
  <wgt id="494">2.93974e-12</wgt>
  <wgt id="495">3.0748e-12</wgt>
  <wgt id="496">2.92683e-12</wgt>
  <wgt id="497">2.92272e-12</wgt>
  <wgt id="498">3.06544e-12</wgt>
  <wgt id="499">2.95406e-12</wgt>
  <wgt id="500">2.97446e-12</wgt>
  <wgt id="501">3.15391e-12</wgt>
  <wgt id="502">2.94863e-12</wgt>
  <wgt id="503">3.01962e-12</wgt>
  <wgt id="504">3.0321e-12</wgt>
  <wgt id="505">3.04443e-12</wgt>
  <wgt id="506">3.06929e-12</wgt>
  <wgt id="507">2.99641e-12</wgt>
  <wgt id="508">3.07935e-12</wgt>
  <wgt id="509">2.9979e-12</wgt>
  <wgt id="510">3.09627e-12</wgt>
  <wgt id="511">2.96206e-12</wgt>
  <wgt id="512">3.0641e-12</wgt>
  <wgt id="513">3.13148e-12</wgt>
  <wgt id="514">3.00637e-12</wgt>
  <wgt id="515">2.99294e-12</wgt>
  <wgt id="516">3.10978e-12</wgt>
  <wgt id="517">3.09583e-12</wgt>
  <wgt id="518">3.10758e-12</wgt>
  <wgt id="519">2.96032e-12</wgt>
  <wgt id="520">3.04387e-12</wgt>
  <wgt id="521">3.13661e-12</wgt>
  <wgt id="522">3.14163e-12</wgt>
  <wgt id="523">3.08249e-12</wgt>
  <wgt id="524">3.08115e-12</wgt>
  <wgt id="525">3.10136e-12</wgt>
  <wgt id="526">3.02534e-12</wgt>
  <wgt id="527">3.08269e-12</wgt>
  <wgt id="528">3.02597e-12</wgt>
  <wgt id="529">2.99344e-12</wgt>
  <wgt id="530">3.04693e-12</wgt>
  <wgt id="531">2.98889e-12</wgt>
  <wgt id="532">3.18439e-12</wgt>
  <wgt id="533">2.85152e-12</wgt>
  <wgt id="534">3.03057e-12</wgt>
  <wgt id="535">3.07417e-12</wgt>
  <wgt id="536">3.02963e-12</wgt>
  <wgt id="537">3.03881e-12</wgt>
  <wgt id="538">3.07997e-12</wgt>
  <wgt id="539">2.96116e-12</wgt>
  <wgt id="540">2.99872e-12</wgt>
  <wgt id="541">2.97798e-12</wgt>
  <wgt id="542">2.9634e-12</wgt>
  <wgt id="543">3.0234e-12</wgt>
  <wgt id="544">3.17337e-12</wgt>
  <wgt id="545">2.9876e-12</wgt>
  <wgt id="546">2.99508e-12</wgt>
  <wgt id="547">2.94132e-12</wgt>
  <wgt id="548">2.90609e-12</wgt>
  <wgt id="549">2.98333e-12</wgt>
  <wgt id="550">3.03724e-12</wgt>
  <wgt id="551">3.06574e-12</wgt>
  <wgt id="552">2.99653e-12</wgt>
  <wgt id="553">3.02045e-12</wgt>
  <wgt id="554">3.25219e-12</wgt>
  <wgt id="555">3.1128e-12</wgt>
  <wgt id="556">2.94216e-12</wgt>
  <wgt id="557">3.07493e-12</wgt>
  <wgt id="558">2.93257e-12</wgt>
  <wgt id="559">2.99094e-12</wgt>
  <wgt id="560">3.26774e-12</wgt>
  <wgt id="561">2.95941e-12</wgt>
  <wgt id="562">3.06938e-12</wgt>
  <wgt id="563">2.95757e-12</wgt>
  <wgt id="564">3.03118e-12</wgt>
  <wgt id="565">2.93568e-12</wgt>
  <wgt id="566">3.05906e-12</wgt>
  <wgt id="567">2.98342e-12</wgt>
  <wgt id="568">3.03093e-12</wgt>
  <wgt id="569">3.05345e-12</wgt>
  <wgt id="570">2.95704e-12</wgt>
  <wgt id="571">3.34516e-12</wgt>
  <wgt id="572">2.9651e-12</wgt>
  <wgt id="573">2.89675e-12</wgt>
  <wgt id="574">2.92477e-12</wgt>
  <wgt id="575">3.3147e-12</wgt>
  <wgt id="576">3.26607e-12</wgt>
  <wgt id="577">3.43262e-12</wgt>
  <wgt id="578">3.3765e-12</wgt>
  <wgt id="579">3.3476e-12</wgt>
  <wgt id="580">3.36639e-12</wgt>
  <wgt id="581">3.51028e-12</wgt>
  <wgt id="582">3.25767e-12</wgt>
  <wgt id="583">3.34473e-12</wgt>
  <wgt id="584">3.31605e-12</wgt>
  <wgt id="585">3.33361e-12</wgt>
  <wgt id="586">3.23799e-12</wgt>
  <wgt id="587">3.35094e-12</wgt>
  <wgt id="588">3.294e-12</wgt>
  <wgt id="589">3.35337e-12</wgt>
  <wgt id="590">3.36227e-12</wgt>
  <wgt id="591">3.44588e-12</wgt>
  <wgt id="592">3.25101e-12</wgt>
  <wgt id="593">3.2979e-12</wgt>
  <wgt id="594">3.44869e-12</wgt>
  <wgt id="595">3.29321e-12</wgt>
  <wgt id="596">3.36543e-12</wgt>
  <wgt id="597">3.19679e-12</wgt>
  <wgt id="598">3.2806e-12</wgt>
  <wgt id="599">3.46705e-12</wgt>
  <wgt id="600">3.28575e-12</wgt>
  <wgt id="601">3.22098e-12</wgt>
  <wgt id="602">3.25327e-12</wgt>
  <wgt id="603">3.27127e-12</wgt>
  <wgt id="604">3.35683e-12</wgt>
  <wgt id="605">3.44757e-12</wgt>
  <wgt id="606">3.23726e-12</wgt>
  <wgt id="607">3.27105e-12</wgt>
  <wgt id="608">3.30546e-12</wgt>
  <wgt id="609">3.12464e-12</wgt>
  <wgt id="610">3.18824e-12</wgt>
  <wgt id="611">3.36641e-12</wgt>
  <wgt id="612">3.56264e-12</wgt>
  <wgt id="613">3.31902e-12</wgt>
  <wgt id="614">3.3525e-12</wgt>
  <wgt id="615">3.2511e-12</wgt>
  <wgt id="616">3.52953e-12</wgt>
  <wgt id="617">3.4205e-12</wgt>
  <wgt id="618">3.33076e-12</wgt>
  <wgt id="619">3.29805e-12</wgt>
  <wgt id="620">3.42016e-12</wgt>
  <wgt id="621">3.36004e-12</wgt>
  <wgt id="622">3.35094e-12</wgt>
  <wgt id="623">3.39719e-12</wgt>
  <wgt id="624">3.29307e-12</wgt>
  <wgt id="625">3.27601e-12</wgt>
  <wgt id="626">3.24279e-12</wgt>
  <wgt id="627">3.19921e-12</wgt>
  <wgt id="628">3.47814e-12</wgt>
  <wgt id="629">3.24813e-12</wgt>
  <wgt id="630">3.22823e-12</wgt>
  <wgt id="631">3.31516e-12</wgt>
  <wgt id="632">3.22068e-12</wgt>
  <wgt id="633">3.27453e-12</wgt>
  <wgt id="634">3.32987e-12</wgt>
  <wgt id="635">3.28352e-12</wgt>
  <wgt id="636">3.33641e-12</wgt>
  <wgt id="637">3.3287e-12</wgt>
  <wgt id="638">3.20365e-12</wgt>
  <wgt id="639">3.28083e-12</wgt>
  <wgt id="640">3.32304e-12</wgt>
  <wgt id="641">3.32324e-12</wgt>
  <wgt id="642">3.25573e-12</wgt>
  <wgt id="643">3.30414e-12</wgt>
  <wgt id="644">3.20147e-12</wgt>
  <wgt id="645">3.33288e-12</wgt>
  <wgt id="646">3.37712e-12</wgt>
  <wgt id="647">3.26078e-12</wgt>
  <wgt id="648">3.32994e-12</wgt>
  <wgt id="649">3.36224e-12</wgt>
  <wgt id="650">3.25451e-12</wgt>
  <wgt id="651">3.35361e-12</wgt>
  <wgt id="652">3.30959e-12</wgt>
  <wgt id="653">3.22989e-12</wgt>
  <wgt id="654">3.29817e-12</wgt>
  <wgt id="655">3.2455e-12</wgt>
  <wgt id="656">3.30612e-12</wgt>
  <wgt id="657">3.3928e-12</wgt>
  <wgt id="658">3.36682e-12</wgt>
  <wgt id="659">3.19551e-12</wgt>
  <wgt id="660">3.37481e-12</wgt>
  <wgt id="661">3.26853e-12</wgt>
  <wgt id="662">3.2998e-12</wgt>
  <wgt id="663">3.30567e-12</wgt>
  <wgt id="664">3.2632e-12</wgt>
  <wgt id="665">3.30355e-12</wgt>
  <wgt id="666">3.30699e-12</wgt>
  <wgt id="667">3.41845e-12</wgt>
  <wgt id="668">3.2984e-12</wgt>
  <wgt id="669">3.39608e-12</wgt>
  <wgt id="670">3.35449e-12</wgt>
  <wgt id="671">3.26277e-12</wgt>
  <wgt id="672">3.17775e-12</wgt>
  <wgt id="673">3.30452e-12</wgt>
  <wgt id="674">3.24684e-12</wgt>
  <wgt id="675">3.24603e-12</wgt>
  <wgt id="676">4.11513e-12</wgt>
  <wgt id="677">4.17259e-12</wgt>
  <wgt id="678">4.29957e-12</wgt>
  <wgt id="679">3.92326e-12</wgt>
  <wgt id="680">3.97619e-12</wgt>
  <wgt id="681">4.23133e-12</wgt>
  <wgt id="682">4.17609e-12</wgt>
  <wgt id="683">4.08132e-12</wgt>
  <wgt id="684">4.28849e-12</wgt>
  <wgt id="685">3.90866e-12</wgt>
  <wgt id="686">4.12715e-12</wgt>
  <wgt id="687">4.28936e-12</wgt>
  <wgt id="688">4.0888e-12</wgt>
  <wgt id="689">4.39196e-12</wgt>
  <wgt id="690">4.3412e-12</wgt>
  <wgt id="691">4.32822e-12</wgt>
  <wgt id="692">4.10157e-12</wgt>
  <wgt id="693">4.72508e-12</wgt>
  <wgt id="694">4.34358e-12</wgt>
  <wgt id="695">3.98371e-12</wgt>
  <wgt id="696">3.93168e-12</wgt>
  <wgt id="697">3.98656e-12</wgt>
  <wgt id="698">3.86513e-12</wgt>
  <wgt id="699">3.81653e-12</wgt>
  <wgt id="700">3.67333e-12</wgt>
  <wgt id="701">4.12223e-12</wgt>
  <wgt id="702">3.95013e-12</wgt>
  <wgt id="703">4.64609e-12</wgt>
  <wgt id="704">4.42176e-12</wgt>
  <wgt id="705">4.27091e-12</wgt>
  <wgt id="706">3.85413e-12</wgt>
  <wgt id="707">3.96281e-12</wgt>
  <wgt id="708">4.06613e-12</wgt>
  <wgt id="709">4.04772e-12</wgt>
  <wgt id="710">3.71269e-12</wgt>
  <wgt id="711">4.111e-12</wgt>
  <wgt id="712">4.06115e-12</wgt>
  <wgt id="713">4.38688e-12</wgt>
  <wgt id="714">4.09464e-12</wgt>
  <wgt id="715">4.07348e-12</wgt>
  <wgt id="716">3.96991e-12</wgt>
  <wgt id="717">3.95586e-12</wgt>
  <wgt id="718">4.05251e-12</wgt>
  <wgt id="719">3.77569e-12</wgt>
  <wgt id="720">3.91118e-12</wgt>
  <wgt id="721">3.90629e-12</wgt>
  <wgt id="722">3.734e-12</wgt>
  <wgt id="723">4.3418e-12</wgt>
  <wgt id="724">4.27403e-12</wgt>
  <wgt id="725">4.34301e-12</wgt>
  <wgt id="726">4.15864e-12</wgt>
  <wgt id="727">4.02432e-12</wgt>
  <wgt id="728">4.07511e-12</wgt>
  <wgt id="729">3.76554e-12</wgt>
  <wgt id="730">4.36008e-12</wgt>
  <wgt id="731">4.07488e-12</wgt>
  <wgt id="732">4.4763e-12</wgt>
  <wgt id="733">4.10662e-12</wgt>
  <wgt id="734">4.20761e-12</wgt>
  <wgt id="735">4.09967e-12</wgt>
  <wgt id="736">4.06222e-12</wgt>
  <wgt id="737">4.18068e-12</wgt>
  <wgt id="738">3.96554e-12</wgt>
  <wgt id="739">4.10719e-12</wgt>
  <wgt id="740">4.53699e-12</wgt>
  <wgt id="741">3.67598e-12</wgt>
  <wgt id="742">4.05774e-12</wgt>
  <wgt id="743">3.9945e-12</wgt>
  <wgt id="744">4.03463e-12</wgt>
  <wgt id="745">4.2617e-12</wgt>
  <wgt id="746">4.31157e-12</wgt>
  <wgt id="747">3.80394e-12</wgt>
  <wgt id="748">4.05074e-12</wgt>
  <wgt id="749">4.33946e-12</wgt>
  <wgt id="750">4.10959e-12</wgt>
  <wgt id="751">4.25793e-12</wgt>
  <wgt id="752">3.81164e-12</wgt>
  <wgt id="753">3.92499e-12</wgt>
  <wgt id="754">4.22556e-12</wgt>
  <wgt id="755">4.13975e-12</wgt>
  <wgt id="756">4.13273e-12</wgt>
  <wgt id="757">3.8352e-12</wgt>
  <wgt id="758">4.16408e-12</wgt>
  <wgt id="759">4.11815e-12</wgt>
  <wgt id="760">4.18784e-12</wgt>
  <wgt id="761">4.32898e-12</wgt>
  <wgt id="762">4.32877e-12</wgt>
  <wgt id="763">4.12512e-12</wgt>
  <wgt id="764">4.25527e-12</wgt>
  <wgt id="765">4.14656e-12</wgt>
  <wgt id="766">4.10029e-12</wgt>
  <wgt id="767">4.20343e-12</wgt>
  <wgt id="768">3.91868e-12</wgt>
  <wgt id="769">4.34237e-12</wgt>
  <wgt id="770">4.01577e-12</wgt>
  <wgt id="771">4.79167e-12</wgt>
  <wgt id="772">3.88109e-12</wgt>
  <wgt id="773">4.09955e-12</wgt>
  <wgt id="774">3.72909e-12</wgt>
  <wgt id="775">4.29336e-12</wgt>
  <wgt id="776">4.47816e-12</wgt>
  <wgt id="777">3.99338e-12</wgt>
  <wgt id="778">3.09828e-12</wgt>
  <wgt id="779">2.64934e-12</wgt>
  <wgt id="780">2.25174e-12</wgt>
  <wgt id="781">3.11349e-12</wgt>
  <wgt id="782">3.27893e-12</wgt>
  <wgt id="783">2.701e-12</wgt>
  <wgt id="784">2.76561e-12</wgt>
  <wgt id="785">3.70027e-12</wgt>
  <wgt id="786">2.43759e-12</wgt>
  <wgt id="787">3.45205e-12</wgt>
  <wgt id="788">2.09202e-12</wgt>
  <wgt id="789">2.53607e-12</wgt>
  <wgt id="790">2.42987e-12</wgt>
  <wgt id="791">2.88844e-12</wgt>
  <wgt id="792">3.9714e-12</wgt>
  <wgt id="793">3.00349e-12</wgt>
  <wgt id="794">2.47673e-12</wgt>
  <wgt id="795">3.5184e-12</wgt>
  <wgt id="796">3.99538e-12</wgt>
  <wgt id="797">3.50874e-12</wgt>
  <wgt id="798">2.89667e-12</wgt>
  <wgt id="799">3.46754e-12</wgt>
  <wgt id="800">2.55567e-12</wgt>
  <wgt id="801">2.93166e-12</wgt>
  <wgt id="802">2.49939e-12</wgt>
  <wgt id="803">4.00326e-12</wgt>
  <wgt id="804">3.49711e-12</wgt>
  <wgt id="805">3.5602e-12</wgt>
  <wgt id="806">3.48517e-12</wgt>
  <wgt id="807">2.98072e-12</wgt>
  <wgt id="808">3.02804e-12</wgt>
  <wgt id="809">2.8706e-12</wgt>
  <wgt id="810">3.52638e-12</wgt>
  <wgt id="811">3.35144e-12</wgt>
  <wgt id="812">2.45978e-12</wgt>
  <wgt id="813">2.48606e-12</wgt>
  <wgt id="814">2.62079e-12</wgt>
  <wgt id="815">2.65956e-12</wgt>
  <wgt id="816">2.37683e-12</wgt>
  <wgt id="817">3.25951e-12</wgt>
  <wgt id="818">3.01941e-12</wgt>
  <wgt id="819">2.66164e-12</wgt>
  <wgt id="820">3.10883e-12</wgt>
  <wgt id="821">3.49039e-12</wgt>
  <wgt id="822">2.68585e-12</wgt>
  <wgt id="823">3.49786e-12</wgt>
  <wgt id="824">4.08623e-12</wgt>
  <wgt id="825">2.38687e-12</wgt>
  <wgt id="826">3.2088e-12</wgt>
  <wgt id="827">2.01863e-12</wgt>
  <wgt id="828">3.95303e-12</wgt>
  <wgt id="829">3.18787e-12</wgt>
  <wgt id="830">2.27188e-12</wgt>
  <wgt id="831">3.29348e-12</wgt>
  <wgt id="832">4.91588e-12</wgt>
  <wgt id="833">2.94305e-12</wgt>
  <wgt id="834">4.61731e-12</wgt>
  <wgt id="835">2.55816e-12</wgt>
  <wgt id="836">3.11231e-12</wgt>
  <wgt id="837">3.44853e-12</wgt>
  <wgt id="838">2.96986e-12</wgt>
  <wgt id="839">3.28028e-12</wgt>
  <wgt id="840">2.94672e-12</wgt>
  <wgt id="841">3.69138e-12</wgt>
  <wgt id="842">2.86021e-12</wgt>
  <wgt id="843">3.01353e-12</wgt>
  <wgt id="844">3.19718e-12</wgt>
  <wgt id="845">4.17873e-12</wgt>
  <wgt id="846">2.88809e-12</wgt>
  <wgt id="847">3.0686e-12</wgt>
  <wgt id="848">2.76162e-12</wgt>
  <wgt id="849">3.16349e-12</wgt>
  <wgt id="850">3.90567e-12</wgt>
  <wgt id="851">3.36332e-12</wgt>
  <wgt id="852">2.72173e-12</wgt>
  <wgt id="853">3.34589e-12</wgt>
  <wgt id="854">3.69509e-12</wgt>
  <wgt id="855">3.49647e-12</wgt>
  <wgt id="856">2.3272e-12</wgt>
  <wgt id="857">3.12993e-12</wgt>
  <wgt id="858">3.06469e-12</wgt>
  <wgt id="859">2.89977e-12</wgt>
  <wgt id="860">3.2546e-12</wgt>
  <wgt id="861">2.80136e-12</wgt>
  <wgt id="862">3.14213e-12</wgt>
  <wgt id="863">3.23162e-12</wgt>
  <wgt id="864">3.24598e-12</wgt>
  <wgt id="865">4.27753e-12</wgt>
  <wgt id="866">4.67976e-12</wgt>
  <wgt id="867">3.11714e-12</wgt>
  <wgt id="868">3.04223e-12</wgt>
  <wgt id="869">2.48357e-12</wgt>
  <wgt id="870">2.61079e-12</wgt>
  <wgt id="871">2.54074e-12</wgt>
  <wgt id="872">3.58958e-12</wgt>
  <wgt id="873">2.60727e-12</wgt>
  <wgt id="874">3.22245e-12</wgt>
  <wgt id="875">2.72011e-12</wgt>
  <wgt id="876">3.59226e-12</wgt>
  <wgt id="877">3.47286e-12</wgt>
  <wgt id="878">2.73761e-12</wgt>
  <wgt id="879">4.11513e-12</wgt>
  <wgt id="880">4.17259e-12</wgt>
  <wgt id="881">4.29957e-12</wgt>
  <wgt id="882">3.92326e-12</wgt>
  <wgt id="883">3.97619e-12</wgt>
  <wgt id="884">4.23133e-12</wgt>
  <wgt id="885">4.17609e-12</wgt>
  <wgt id="886">4.08132e-12</wgt>
  <wgt id="887">4.28849e-12</wgt>
  <wgt id="888">3.90866e-12</wgt>
  <wgt id="889">4.12715e-12</wgt>
  <wgt id="890">4.28936e-12</wgt>
  <wgt id="891">4.0888e-12</wgt>
  <wgt id="892">4.39196e-12</wgt>
  <wgt id="893">4.3412e-12</wgt>
  <wgt id="894">4.32822e-12</wgt>
  <wgt id="895">4.10157e-12</wgt>
  <wgt id="896">4.72508e-12</wgt>
  <wgt id="897">4.34358e-12</wgt>
  <wgt id="898">3.98371e-12</wgt>
  <wgt id="899">3.93168e-12</wgt>
  <wgt id="900">3.98656e-12</wgt>
  <wgt id="901">3.86513e-12</wgt>
  <wgt id="902">3.81653e-12</wgt>
  <wgt id="903">3.67333e-12</wgt>
  <wgt id="904">4.12223e-12</wgt>
  <wgt id="905">3.95013e-12</wgt>
  <wgt id="906">4.64609e-12</wgt>
  <wgt id="907">4.42176e-12</wgt>
  <wgt id="908">4.27091e-12</wgt>
  <wgt id="909">3.85413e-12</wgt>
  <wgt id="910">3.96281e-12</wgt>
  <wgt id="911">4.06613e-12</wgt>
  <wgt id="912">4.04772e-12</wgt>
  <wgt id="913">3.71269e-12</wgt>
  <wgt id="914">4.111e-12</wgt>
  <wgt id="915">4.06115e-12</wgt>
  <wgt id="916">4.38688e-12</wgt>
  <wgt id="917">4.09464e-12</wgt>
  <wgt id="918">4.07348e-12</wgt>
  <wgt id="919">3.96991e-12</wgt>
  <wgt id="920">3.95586e-12</wgt>
  <wgt id="921">4.05251e-12</wgt>
  <wgt id="922">3.77569e-12</wgt>
  <wgt id="923">3.91118e-12</wgt>
  <wgt id="924">3.90629e-12</wgt>
  <wgt id="925">3.734e-12</wgt>
  <wgt id="926">4.3418e-12</wgt>
  <wgt id="927">4.27403e-12</wgt>
  <wgt id="928">4.34301e-12</wgt>
  <wgt id="929">4.15864e-12</wgt>
  <wgt id="930">4.02432e-12</wgt>
  <wgt id="931">4.07511e-12</wgt>
  <wgt id="932">3.76554e-12</wgt>
  <wgt id="933">4.36008e-12</wgt>
  <wgt id="934">4.07488e-12</wgt>
  <wgt id="935">4.4763e-12</wgt>
  <wgt id="936">4.10662e-12</wgt>
  <wgt id="937">4.20761e-12</wgt>
  <wgt id="938">4.09967e-12</wgt>
  <wgt id="939">4.06222e-12</wgt>
  <wgt id="940">4.18068e-12</wgt>
  <wgt id="941">3.96554e-12</wgt>
  <wgt id="942">4.10719e-12</wgt>
  <wgt id="943">4.53699e-12</wgt>
  <wgt id="944">3.67598e-12</wgt>
  <wgt id="945">4.05774e-12</wgt>
  <wgt id="946">3.9945e-12</wgt>
  <wgt id="947">4.03463e-12</wgt>
  <wgt id="948">4.2617e-12</wgt>
  <wgt id="949">4.31157e-12</wgt>
  <wgt id="950">3.80394e-12</wgt>
  <wgt id="951">4.05074e-12</wgt>
  <wgt id="952">4.33946e-12</wgt>
  <wgt id="953">4.10959e-12</wgt>
  <wgt id="954">4.25793e-12</wgt>
  <wgt id="955">3.81164e-12</wgt>
  <wgt id="956">3.92499e-12</wgt>
  <wgt id="957">4.22556e-12</wgt>
  <wgt id="958">4.13975e-12</wgt>
  <wgt id="959">4.13273e-12</wgt>
  <wgt id="960">3.8352e-12</wgt>
  <wgt id="961">4.16408e-12</wgt>
  <wgt id="962">4.11815e-12</wgt>
  <wgt id="963">4.18784e-12</wgt>
  <wgt id="964">4.32898e-12</wgt>
  <wgt id="965">4.32877e-12</wgt>
  <wgt id="966">4.12512e-12</wgt>
  <wgt id="967">4.25527e-12</wgt>
  <wgt id="968">4.14656e-12</wgt>
  <wgt id="969">4.10029e-12</wgt>
  <wgt id="970">4.20343e-12</wgt>
  <wgt id="971">3.91868e-12</wgt>
  <wgt id="972">4.34237e-12</wgt>
  <wgt id="973">4.01577e-12</wgt>
  <wgt id="974">4.79167e-12</wgt>
  <wgt id="975">3.88109e-12</wgt>
  <wgt id="976">4.09955e-12</wgt>
  <wgt id="977">3.72909e-12</wgt>
  <wgt id="978">4.29336e-12</wgt>
  <wgt id="979">4.47816e-12</wgt>
  <wgt id="980">4.12278e-12</wgt>
  <wgt id="981">4.12786e-12</wgt>
  <wgt id="982">4.0016e-12</wgt>
</rwgt>
</event>
<event>
 5   1  0.3028200E-11  0.2333890E+04  0.7818608E-02  0.7700240E-01
       21   -1    0    0  502  501  0.00000000000E+00  0.00000000000E+00  0.21700438223E+04  0.21700438223E+04  0.00000000000E+00 0.  1.
       21   -1    0    0  501  502 -0.00000000000E+00 -0.00000000000E+00 -0.62752696983E+03  0.62752696983E+03  0.00000000000E+00 0. -1.
       39    2    1    2    0    0  0.00000000000E+00  0.00000000000E+00  0.15425168525E+04  0.27975707921E+04  0.23338903352E+04 0.  0.
       25    1    3    3    0    0  0.10232220065E+04 -0.53817974028E+03  0.65433211065E+03  0.13343148873E+04  0.12500000000E+03 0.  0.
       25    1    3    3    0    0 -0.10232220065E+04  0.53817974028E+03  0.88818474180E+03  0.14632559048E+04  0.12500000000E+03 0.  0.
<mgrwt>
<rscale>  0 0.23338903E+04</rscale>
<asrwt>0</asrwt>
<pdfrwt beam="1">  1       21 0.33385289E+00 0.23338903E+04</pdfrwt>
<pdfrwt beam="2">  1       21 0.96542612E-01 0.23338903E+04</pdfrwt>
<totfact> 0.65757570E+00</totfact>
</mgrwt>
<rwgt>
  <wgt id="1">3.0282e-12</wgt>
  <wgt id="2">2.61021e-12</wgt>
  <wgt id="3">3.55301e-12</wgt>
  <wgt id="4">3.0282e-12</wgt>
  <wgt id="5">2.61021e-12</wgt>
  <wgt id="6">3.55301e-12</wgt>
  <wgt id="7">3.0282e-12</wgt>
  <wgt id="8">2.61021e-12</wgt>
  <wgt id="9">3.55301e-12</wgt>
  <wgt id="10">3.1959e-12</wgt>
  <wgt id="11">3.19529e-12</wgt>
  <wgt id="12">3.18763e-12</wgt>
  <wgt id="13">3.18992e-12</wgt>
  <wgt id="14">3.20574e-12</wgt>
  <wgt id="15">3.20102e-12</wgt>
  <wgt id="16">3.18716e-12</wgt>
  <wgt id="17">3.21486e-12</wgt>
  <wgt id="18">3.19359e-12</wgt>
  <wgt id="19">3.20989e-12</wgt>
  <wgt id="20">3.19574e-12</wgt>
  <wgt id="21">3.16927e-12</wgt>
  <wgt id="22">3.17128e-12</wgt>
  <wgt id="23">3.14345e-12</wgt>
  <wgt id="24">3.16941e-12</wgt>
  <wgt id="25">3.18323e-12</wgt>
  <wgt id="26">3.20423e-12</wgt>
  <wgt id="27">3.18881e-12</wgt>
  <wgt id="28">3.17411e-12</wgt>
  <wgt id="29">3.1967e-12</wgt>
  <wgt id="30">3.16684e-12</wgt>
  <wgt id="31">3.21055e-12</wgt>
  <wgt id="32">3.16796e-12</wgt>
  <wgt id="33">3.19956e-12</wgt>
  <wgt id="34">3.17305e-12</wgt>
  <wgt id="35">3.17001e-12</wgt>
  <wgt id="36">3.21191e-12</wgt>
  <wgt id="37">3.1845e-12</wgt>
  <wgt id="38">3.18131e-12</wgt>
  <wgt id="39">3.25754e-12</wgt>
  <wgt id="40">3.20033e-12</wgt>
  <wgt id="41">3.19364e-12</wgt>
  <wgt id="42">3.2037e-12</wgt>
  <wgt id="43">3.19961e-12</wgt>
  <wgt id="44">3.21505e-12</wgt>
  <wgt id="45">3.19949e-12</wgt>
  <wgt id="46">3.18031e-12</wgt>
  <wgt id="47">3.23242e-12</wgt>
  <wgt id="48">3.21816e-12</wgt>
  <wgt id="49">3.17746e-12</wgt>
  <wgt id="50">3.1641e-12</wgt>
  <wgt id="51">3.17201e-12</wgt>
  <wgt id="52">3.20319e-12</wgt>
  <wgt id="53">3.23452e-12</wgt>
  <wgt id="54">3.2151e-12</wgt>
  <wgt id="55">3.19297e-12</wgt>
  <wgt id="56">3.17437e-12</wgt>
  <wgt id="57">3.17185e-12</wgt>
  <wgt id="58">3.19479e-12</wgt>
  <wgt id="59">3.20369e-12</wgt>
  <wgt id="60">3.1648e-12</wgt>
  <wgt id="61">3.17974e-12</wgt>
  <wgt id="62">3.19167e-12</wgt>
  <wgt id="63">3.19324e-12</wgt>
  <wgt id="64">3.19255e-12</wgt>
  <wgt id="65">3.17949e-12</wgt>
  <wgt id="66">3.20138e-12</wgt>
  <wgt id="67">3.19606e-12</wgt>
  <wgt id="68">3.19468e-12</wgt>
  <wgt id="69">3.18893e-12</wgt>
  <wgt id="70">3.18331e-12</wgt>
  <wgt id="71">3.19649e-12</wgt>
  <wgt id="72">3.17961e-12</wgt>
  <wgt id="73">3.20731e-12</wgt>
  <wgt id="74">3.2105e-12</wgt>
  <wgt id="75">3.192e-12</wgt>
  <wgt id="76">3.21889e-12</wgt>
  <wgt id="77">3.18928e-12</wgt>
  <wgt id="78">3.19305e-12</wgt>
  <wgt id="79">3.20405e-12</wgt>
  <wgt id="80">3.16731e-12</wgt>
  <wgt id="81">3.19423e-12</wgt>
  <wgt id="82">3.1993e-12</wgt>
  <wgt id="83">3.17356e-12</wgt>
  <wgt id="84">3.18301e-12</wgt>
  <wgt id="85">3.1813e-12</wgt>
  <wgt id="86">3.21116e-12</wgt>
  <wgt id="87">3.16251e-12</wgt>
  <wgt id="88">3.20663e-12</wgt>
  <wgt id="89">3.20305e-12</wgt>
  <wgt id="90">3.20824e-12</wgt>
  <wgt id="91">3.20019e-12</wgt>
  <wgt id="92">3.2062e-12</wgt>
  <wgt id="93">3.19954e-12</wgt>
  <wgt id="94">3.18568e-12</wgt>
  <wgt id="95">3.20695e-12</wgt>
  <wgt id="96">3.20543e-12</wgt>
  <wgt id="97">3.18155e-12</wgt>
  <wgt id="98">3.19583e-12</wgt>
  <wgt id="99">3.1923e-12</wgt>
  <wgt id="100">3.2031e-12</wgt>
  <wgt id="101">3.19027e-12</wgt>
  <wgt id="102">3.18888e-12</wgt>
  <wgt id="103">3.20859e-12</wgt>
  <wgt id="104">3.18959e-12</wgt>
  <wgt id="105">3.20448e-12</wgt>
  <wgt id="106">3.1865e-12</wgt>
  <wgt id="107">3.21674e-12</wgt>
  <wgt id="108">3.18925e-12</wgt>
  <wgt id="109">3.19771e-12</wgt>
  <wgt id="110">3.19505e-12</wgt>
  <wgt id="111">3.19349e-12</wgt>
  <wgt id="112">3.24072e-12</wgt>
  <wgt id="113">4.63508e-12</wgt>
  <wgt id="114">4.25627e-12</wgt>
  <wgt id="115">4.17563e-12</wgt>
  <wgt id="116">5.78027e-12</wgt>
  <wgt id="117">3.52164e-12</wgt>
  <wgt id="118">3.53493e-12</wgt>
  <wgt id="119">3.51403e-12</wgt>
  <wgt id="120">3.52167e-12</wgt>
  <wgt id="121">3.52157e-12</wgt>
  <wgt id="122">3.51618e-12</wgt>
  <wgt id="123">3.52921e-12</wgt>
  <wgt id="124">3.51703e-12</wgt>
  <wgt id="125">3.52462e-12</wgt>
  <wgt id="126">3.5267e-12</wgt>
  <wgt id="127">3.51825e-12</wgt>
  <wgt id="128">3.53232e-12</wgt>
  <wgt id="129">3.51101e-12</wgt>
  <wgt id="130">3.53877e-12</wgt>
  <wgt id="131">3.50382e-12</wgt>
  <wgt id="132">3.42296e-12</wgt>
  <wgt id="133">3.63931e-12</wgt>
  <wgt id="134">3.48359e-12</wgt>
  <wgt id="135">3.55152e-12</wgt>
  <wgt id="136">3.57692e-12</wgt>
  <wgt id="137">3.45524e-12</wgt>
  <wgt id="138">3.68545e-12</wgt>
  <wgt id="139">3.36655e-12</wgt>
  <wgt id="140">3.50551e-12</wgt>
  <wgt id="141">3.53374e-12</wgt>
  <wgt id="142">3.52063e-12</wgt>
  <wgt id="143">3.53313e-12</wgt>
  <wgt id="144">3.36957e-12</wgt>
  <wgt id="145">3.67019e-12</wgt>
  <wgt id="146">3.5707e-12</wgt>
  <wgt id="147">3.48135e-12</wgt>
  <wgt id="148">3.53478e-12</wgt>
  <wgt id="149">3.52068e-12</wgt>
  <wgt id="150">3.55133e-12</wgt>
  <wgt id="151">3.50772e-12</wgt>
  <wgt id="152">3.52253e-12</wgt>
  <wgt id="153">3.5213e-12</wgt>
  <wgt id="154">3.5276e-12</wgt>
  <wgt id="155">3.50716e-12</wgt>
  <wgt id="156">3.64734e-12</wgt>
  <wgt id="157">3.40836e-12</wgt>
  <wgt id="158">4.21663e-12</wgt>
  <wgt id="159">4.23466e-12</wgt>
  <wgt id="160">4.20209e-12</wgt>
  <wgt id="161">4.20578e-12</wgt>
  <wgt id="162">4.22876e-12</wgt>
  <wgt id="163">4.21178e-12</wgt>
  <wgt id="164">4.22378e-12</wgt>
  <wgt id="165">4.21814e-12</wgt>
  <wgt id="166">4.21545e-12</wgt>
  <wgt id="167">4.2137e-12</wgt>
  <wgt id="168">4.22069e-12</wgt>
  <wgt id="169">4.19948e-12</wgt>
  <wgt id="170">4.22729e-12</wgt>
  <wgt id="171">4.21356e-12</wgt>
  <wgt id="172">4.22094e-12</wgt>
  <wgt id="173">4.20824e-12</wgt>
  <wgt id="174">4.21951e-12</wgt>
  <wgt id="175">4.09225e-12</wgt>
  <wgt id="176">4.37977e-12</wgt>
  <wgt id="177">4.23606e-12</wgt>
  <wgt id="178">4.19902e-12</wgt>
  <wgt id="179">4.43696e-12</wgt>
  <wgt id="180">3.87807e-12</wgt>
  <wgt id="181">4.07279e-12</wgt>
  <wgt id="182">4.31272e-12</wgt>
  <wgt id="183">4.1294e-12</wgt>
  <wgt id="184">4.25996e-12</wgt>
  <wgt id="185">4.16821e-12</wgt>
  <wgt id="186">4.27512e-12</wgt>
  <wgt id="187">4.16783e-12</wgt>
  <wgt id="188">4.30256e-12</wgt>
  <wgt id="189">4.18271e-12</wgt>
  <wgt id="190">4.23041e-12</wgt>
  <wgt id="191">4.23216e-12</wgt>
  <wgt id="192">4.20743e-12</wgt>
  <wgt id="193">4.28922e-12</wgt>
  <wgt id="194">4.18006e-12</wgt>
  <wgt id="195">4.05731e-12</wgt>
  <wgt id="196">4.47581e-12</wgt>
  <wgt id="197">4.23963e-12</wgt>
  <wgt id="198">4.21107e-12</wgt>
  <wgt id="199">4.21663e-12</wgt>
  <wgt id="200">4.25839e-12</wgt>
  <wgt id="201">4.24431e-12</wgt>
  <wgt id="202">4.2306e-12</wgt>
  <wgt id="203">4.21109e-12</wgt>
  <wgt id="204">4.20117e-12</wgt>
  <wgt id="205">4.19302e-12</wgt>
  <wgt id="206">4.1262e-12</wgt>
  <wgt id="207">4.15097e-12</wgt>
  <wgt id="208">4.10154e-12</wgt>
  <wgt id="209">4.13879e-12</wgt>
  <wgt id="210">4.11701e-12</wgt>
  <wgt id="211">4.1247e-12</wgt>
  <wgt id="212">4.12732e-12</wgt>
  <wgt id="213">4.12577e-12</wgt>
  <wgt id="214">4.12668e-12</wgt>
  <wgt id="215">4.12933e-12</wgt>
  <wgt id="216">4.12395e-12</wgt>
  <wgt id="217">4.13552e-12</wgt>
  <wgt id="218">4.11888e-12</wgt>
  <wgt id="219">4.12111e-12</wgt>
  <wgt id="220">4.12923e-12</wgt>
  <wgt id="221">4.12796e-12</wgt>
  <wgt id="222">4.12093e-12</wgt>
  <wgt id="223">3.88685e-12</wgt>
  <wgt id="224">4.34588e-12</wgt>
  <wgt id="225">4.07428e-12</wgt>
  <wgt id="226">4.19229e-12</wgt>
  <wgt id="227">4.08601e-12</wgt>
  <wgt id="228">4.14383e-12</wgt>
  <wgt id="229">4.06599e-12</wgt>
  <wgt id="230">4.15606e-12</wgt>
  <wgt id="231">4.27005e-12</wgt>
  <wgt id="232">4.00869e-12</wgt>
  <wgt id="233">4.09926e-12</wgt>
  <wgt id="234">4.17141e-12</wgt>
  <wgt id="235">3.94628e-12</wgt>
  <wgt id="236">4.27266e-12</wgt>
  <wgt id="237">4.02196e-12</wgt>
  <wgt id="238">4.16086e-12</wgt>
  <wgt id="239">4.08429e-12</wgt>
  <wgt id="240">4.20128e-12</wgt>
  <wgt id="241">4.07435e-12</wgt>
  <wgt id="242">4.18733e-12</wgt>
  <wgt id="243">4.20186e-12</wgt>
  <wgt id="244">4.12465e-12</wgt>
  <wgt id="245">4.12471e-12</wgt>
  <wgt id="246">4.14865e-12</wgt>
  <wgt id="247">4.1262e-12</wgt>
  <wgt id="248">4.1716e-12</wgt>
  <wgt id="249">4.1562e-12</wgt>
  <wgt id="250">4.13966e-12</wgt>
  <wgt id="251">4.11781e-12</wgt>
  <wgt id="252">4.10635e-12</wgt>
  <wgt id="253">4.09868e-12</wgt>
  <wgt id="254">3.97296e-12</wgt>
  <wgt id="255">3.97641e-12</wgt>
  <wgt id="256">3.96912e-12</wgt>
  <wgt id="257">3.97606e-12</wgt>
  <wgt id="258">3.97071e-12</wgt>
  <wgt id="259">3.99966e-12</wgt>
  <wgt id="260">3.94724e-12</wgt>
  <wgt id="261">3.97954e-12</wgt>
  <wgt id="262">3.9652e-12</wgt>
  <wgt id="263">3.96989e-12</wgt>
  <wgt id="264">3.97649e-12</wgt>
  <wgt id="265">3.96805e-12</wgt>
  <wgt id="266">3.9828e-12</wgt>
  <wgt id="267">3.97437e-12</wgt>
  <wgt id="268">3.97105e-12</wgt>
  <wgt id="269">3.98541e-12</wgt>
  <wgt id="270">3.96447e-12</wgt>
  <wgt id="271">3.96177e-12</wgt>
  <wgt id="272">3.9855e-12</wgt>
  <wgt id="273">3.96236e-12</wgt>
  <wgt id="274">3.98102e-12</wgt>
  <wgt id="275">3.94788e-12</wgt>
  <wgt id="276">3.99904e-12</wgt>
  <wgt id="277">3.94977e-12</wgt>
  <wgt id="278">3.99413e-12</wgt>
  <wgt id="279">3.89795e-12</wgt>
  <wgt id="280">4.06747e-12</wgt>
  <wgt id="281">3.95349e-12</wgt>
  <wgt id="282">3.97933e-12</wgt>
  <wgt id="283">3.83966e-12</wgt>
  <wgt id="284">4.13976e-12</wgt>
  <wgt id="285">3.75344e-12</wgt>
  <wgt id="286">4.15927e-12</wgt>
  <wgt id="287">3.9874e-12</wgt>
  <wgt id="288">3.95455e-12</wgt>
  <wgt id="289">4.00605e-12</wgt>
  <wgt id="290">3.90043e-12</wgt>
  <wgt id="291">3.9572e-12</wgt>
  <wgt id="292">3.97276e-12</wgt>
  <wgt id="293">3.93712e-12</wgt>
  <wgt id="294">4.00864e-12</wgt>
  <wgt id="295">3.88629e-12</wgt>
  <wgt id="296">4.07926e-12</wgt>
  <wgt id="297">3.96179e-12</wgt>
  <wgt id="298">3.99414e-12</wgt>
  <wgt id="299">3.95915e-12</wgt>
  <wgt id="300">4.00977e-12</wgt>
  <wgt id="301">3.88731e-12</wgt>
  <wgt id="302">4.16875e-12</wgt>
  <wgt id="303">3.92645e-12</wgt>
  <wgt id="304">3.99892e-12</wgt>
  <wgt id="305">3.93163e-12</wgt>
  <wgt id="306">3.9353e-12</wgt>
  <wgt id="307">3.92774e-12</wgt>
  <wgt id="308">3.93506e-12</wgt>
  <wgt id="309">3.92941e-12</wgt>
  <wgt id="310">3.95884e-12</wgt>
  <wgt id="311">3.90664e-12</wgt>
  <wgt id="312">3.93768e-12</wgt>
  <wgt id="313">3.92528e-12</wgt>
  <wgt id="314">3.9285e-12</wgt>
  <wgt id="315">3.9347e-12</wgt>
  <wgt id="316">3.92675e-12</wgt>
  <wgt id="317">3.94245e-12</wgt>
  <wgt id="318">3.93472e-12</wgt>
  <wgt id="319">3.92637e-12</wgt>
  <wgt id="320">3.94505e-12</wgt>
  <wgt id="321">3.92424e-12</wgt>
  <wgt id="322">3.91952e-12</wgt>
  <wgt id="323">3.94584e-12</wgt>
  <wgt id="324">3.92397e-12</wgt>
  <wgt id="325">3.93836e-12</wgt>
  <wgt id="326">3.91098e-12</wgt>
  <wgt id="327">3.95824e-12</wgt>
  <wgt id="328">3.91134e-12</wgt>
  <wgt id="329">3.94288e-12</wgt>
  <wgt id="330">4.04531e-12</wgt>
  <wgt id="331">3.82384e-12</wgt>
  <wgt id="332">3.91554e-12</wgt>
  <wgt id="333">3.93575e-12</wgt>
  <wgt id="334">3.83069e-12</wgt>
  <wgt id="335">4.05867e-12</wgt>
  <wgt id="336">3.77663e-12</wgt>
  <wgt id="337">4.12452e-12</wgt>
  <wgt id="338">3.98154e-12</wgt>
  <wgt id="339">3.88585e-12</wgt>
  <wgt id="340">3.9613e-12</wgt>
  <wgt id="341">3.85914e-12</wgt>
  <wgt id="342">3.9205e-12</wgt>
  <wgt id="343">3.9232e-12</wgt>
  <wgt id="344">3.90046e-12</wgt>
  <wgt id="345">3.96797e-12</wgt>
  <wgt id="346">3.84348e-12</wgt>
  <wgt id="347">4.03281e-12</wgt>
  <wgt id="348">3.92108e-12</wgt>
  <wgt id="349">3.95086e-12</wgt>
  <wgt id="350">3.91462e-12</wgt>
  <wgt id="351">3.97501e-12</wgt>
  <wgt id="352">3.84519e-12</wgt>
  <wgt id="353">4.12137e-12</wgt>
  <wgt id="354">3.86612e-12</wgt>
  <wgt id="355">3.97041e-12</wgt>
  <wgt id="356">3.97296e-12</wgt>
  <wgt id="357">3.93311e-12</wgt>
  <wgt id="358">3.93163e-12</wgt>
  <wgt id="359">3.97045e-12</wgt>
  <wgt id="360">4.04781e-12</wgt>
  <wgt id="361">3.9949e-12</wgt>
  <wgt id="362">4.07731e-12</wgt>
  <wgt id="363">4.06663e-12</wgt>
  <wgt id="364">4.04556e-12</wgt>
  <wgt id="365">4.02964e-12</wgt>
  <wgt id="366">4.01365e-12</wgt>
  <wgt id="367">3.98335e-12</wgt>
  <wgt id="368">3.9638e-12</wgt>
  <wgt id="369">3.94269e-12</wgt>
  <wgt id="370">3.9949e-12</wgt>
  <wgt id="371">4.01137e-12</wgt>
  <wgt id="372">4.00204e-12</wgt>
  <wgt id="373">3.98906e-12</wgt>
  <wgt id="374">3.99483e-12</wgt>
  <wgt id="375">4.61062e-12</wgt>
  <wgt id="376">4.61093e-12</wgt>
  <wgt id="377">4.61022e-12</wgt>
  <wgt id="378">4.6284e-12</wgt>
  <wgt id="379">4.59302e-12</wgt>
  <wgt id="380">4.62392e-12</wgt>
  <wgt id="381">4.60533e-12</wgt>
  <wgt id="382">4.63207e-12</wgt>
  <wgt id="383">4.58947e-12</wgt>
  <wgt id="384">4.61362e-12</wgt>
  <wgt id="385">4.60779e-12</wgt>
  <wgt id="386">4.62536e-12</wgt>
  <wgt id="387">4.60433e-12</wgt>
  <wgt id="388">4.60667e-12</wgt>
  <wgt id="389">4.61554e-12</wgt>
  <wgt id="390">4.62101e-12</wgt>
  <wgt id="391">4.59967e-12</wgt>
  <wgt id="392">4.56811e-12</wgt>
  <wgt id="393">4.63466e-12</wgt>
  <wgt id="394">4.61358e-12</wgt>
  <wgt id="395">4.60637e-12</wgt>
  <wgt id="396">4.61943e-12</wgt>
  <wgt id="397">4.60442e-12</wgt>
  <wgt id="398">4.60286e-12</wgt>
  <wgt id="399">4.61807e-12</wgt>
  <wgt id="400">4.60329e-12</wgt>
  <wgt id="401">4.62694e-12</wgt>
  <wgt id="402">4.56622e-12</wgt>
  <wgt id="403">4.63987e-12</wgt>
  <wgt id="404">4.75011e-12</wgt>
  <wgt id="405">4.28e-12</wgt>
  <wgt id="406">4.51011e-12</wgt>
  <wgt id="407">4.83459e-12</wgt>
  <wgt id="408">4.66316e-12</wgt>
  <wgt id="409">4.51404e-12</wgt>
  <wgt id="410">4.44822e-12</wgt>
  <wgt id="411">4.68917e-12</wgt>
  <wgt id="412">4.59938e-12</wgt>
  <wgt id="413">4.62704e-12</wgt>
  <wgt id="414">4.54603e-12</wgt>
  <wgt id="415">4.66088e-12</wgt>
  <wgt id="416">4.77656e-12</wgt>
  <wgt id="417">4.38354e-12</wgt>
  <wgt id="418">4.62057e-12</wgt>
  <wgt id="419">4.55721e-12</wgt>
  <wgt id="420">4.73257e-12</wgt>
  <wgt id="421">4.52884e-12</wgt>
  <wgt id="422">4.57856e-12</wgt>
  <wgt id="423">4.6255e-12</wgt>
  <wgt id="424">4.75821e-12</wgt>
  <wgt id="425">4.50998e-12</wgt>
  <wgt id="426">4.61062e-12</wgt>
  <wgt id="427">4.50985e-12</wgt>
  <wgt id="428">4.83813e-12</wgt>
  <wgt id="429">4.67791e-12</wgt>
  <wgt id="430">4.8387e-12</wgt>
  <wgt id="431">4.8058e-12</wgt>
  <wgt id="432">4.77627e-12</wgt>
  <wgt id="433">4.74724e-12</wgt>
  <wgt id="434">4.70984e-12</wgt>
  <wgt id="435">4.63799e-12</wgt>
  <wgt id="436">4.60185e-12</wgt>
  <wgt id="437">4.56642e-12</wgt>
  <wgt id="438">4.67791e-12</wgt>
  <wgt id="439">4.69206e-12</wgt>
  <wgt id="440">4.68312e-12</wgt>
  <wgt id="441">4.67434e-12</wgt>
  <wgt id="442">4.67159e-12</wgt>
  <wgt id="443">4.16504e-12</wgt>
  <wgt id="444">4.21241e-12</wgt>
  <wgt id="445">4.21513e-12</wgt>
  <wgt id="446">4.13421e-12</wgt>
  <wgt id="447">4.16588e-12</wgt>
  <wgt id="448">4.06341e-12</wgt>
  <wgt id="449">4.25859e-12</wgt>
  <wgt id="450">4.226e-12</wgt>
  <wgt id="451">4.15261e-12</wgt>
  <wgt id="452">4.25848e-12</wgt>
  <wgt id="453">4.22374e-12</wgt>
  <wgt id="454">3.93793e-12</wgt>
  <wgt id="455">4.20406e-12</wgt>
  <wgt id="456">4.25144e-12</wgt>
  <wgt id="457">4.17916e-12</wgt>
  <wgt id="458">4.24377e-12</wgt>
  <wgt id="459">4.20422e-12</wgt>
  <wgt id="460">4.25874e-12</wgt>
  <wgt id="461">4.05881e-12</wgt>
  <wgt id="462">4.13378e-12</wgt>
  <wgt id="463">4.09434e-12</wgt>
  <wgt id="464">4.14394e-12</wgt>
  <wgt id="465">4.21124e-12</wgt>
  <wgt id="466">4.05332e-12</wgt>
  <wgt id="467">4.13256e-12</wgt>
  <wgt id="468">4.16311e-12</wgt>
  <wgt id="469">4.15293e-12</wgt>
  <wgt id="470">4.0944e-12</wgt>
  <wgt id="471">4.1082e-12</wgt>
  <wgt id="472">4.19704e-12</wgt>
  <wgt id="473">4.02112e-12</wgt>
  <wgt id="474">3.0282e-12</wgt>
  <wgt id="475">3.02505e-12</wgt>
  <wgt id="476">3.0207e-12</wgt>
  <wgt id="477">3.10009e-12</wgt>
  <wgt id="478">3.08051e-12</wgt>
  <wgt id="479">2.85687e-12</wgt>
  <wgt id="480">3.20323e-12</wgt>
  <wgt id="481">3.05411e-12</wgt>
  <wgt id="482">3.04828e-12</wgt>
  <wgt id="483">3.07703e-12</wgt>
  <wgt id="484">3.16519e-12</wgt>
  <wgt id="485">2.74474e-12</wgt>
  <wgt id="486">3.1874e-12</wgt>
  <wgt id="487">2.92535e-12</wgt>
  <wgt id="488">3.04749e-12</wgt>
  <wgt id="489">2.68526e-12</wgt>
  <wgt id="490">2.99287e-12</wgt>
  <wgt id="491">2.98244e-12</wgt>
  <wgt id="492">2.9791e-12</wgt>
  <wgt id="493">2.76997e-12</wgt>
  <wgt id="494">2.7779e-12</wgt>
  <wgt id="495">3.04733e-12</wgt>
  <wgt id="496">2.8517e-12</wgt>
  <wgt id="497">2.81378e-12</wgt>
  <wgt id="498">3.11608e-12</wgt>
  <wgt id="499">3.06799e-12</wgt>
  <wgt id="500">3.01483e-12</wgt>
  <wgt id="501">3.15551e-12</wgt>
  <wgt id="502">3.18832e-12</wgt>
  <wgt id="503">2.96299e-12</wgt>
  <wgt id="504">3.13775e-12</wgt>
  <wgt id="505">3.17102e-12</wgt>
  <wgt id="506">2.77772e-12</wgt>
  <wgt id="507">2.94705e-12</wgt>
  <wgt id="508">3.20449e-12</wgt>
  <wgt id="509">2.92413e-12</wgt>
  <wgt id="510">3.04059e-12</wgt>
  <wgt id="511">2.85648e-12</wgt>
  <wgt id="512">3.26551e-12</wgt>
  <wgt id="513">3.17325e-12</wgt>
  <wgt id="514">3.23294e-12</wgt>
  <wgt id="515">3.1425e-12</wgt>
  <wgt id="516">3.38509e-12</wgt>
  <wgt id="517">3.10501e-12</wgt>
  <wgt id="518">3.1585e-12</wgt>
  <wgt id="519">2.90255e-12</wgt>
  <wgt id="520">3.06151e-12</wgt>
  <wgt id="521">2.93118e-12</wgt>
  <wgt id="522">3.14608e-12</wgt>
  <wgt id="523">2.8638e-12</wgt>
  <wgt id="524">3.11783e-12</wgt>
  <wgt id="525">2.93661e-12</wgt>
  <wgt id="526">3.21361e-12</wgt>
  <wgt id="527">2.98326e-12</wgt>
  <wgt id="528">3.00641e-12</wgt>
  <wgt id="529">2.85895e-12</wgt>
  <wgt id="530">3.20286e-12</wgt>
  <wgt id="531">2.88597e-12</wgt>
  <wgt id="532">3.29944e-12</wgt>
  <wgt id="533">3.04151e-12</wgt>
  <wgt id="534">2.88271e-12</wgt>
  <wgt id="535">3.09139e-12</wgt>
  <wgt id="536">3.15312e-12</wgt>
  <wgt id="537">2.84575e-12</wgt>
  <wgt id="538">2.9987e-12</wgt>
  <wgt id="539">2.95286e-12</wgt>
  <wgt id="540">3.20817e-12</wgt>
  <wgt id="541">3.01545e-12</wgt>
  <wgt id="542">2.94683e-12</wgt>
  <wgt id="543">2.90016e-12</wgt>
  <wgt id="544">3.04564e-12</wgt>
  <wgt id="545">2.84055e-12</wgt>
  <wgt id="546">2.76058e-12</wgt>
  <wgt id="547">2.90825e-12</wgt>
  <wgt id="548">2.93615e-12</wgt>
  <wgt id="549">2.96915e-12</wgt>
  <wgt id="550">2.91206e-12</wgt>
  <wgt id="551">3.02857e-12</wgt>
  <wgt id="552">2.7777e-12</wgt>
  <wgt id="553">2.80522e-12</wgt>
  <wgt id="554">3.17296e-12</wgt>
  <wgt id="555">3.09948e-12</wgt>
  <wgt id="556">2.99287e-12</wgt>
  <wgt id="557">3.08355e-12</wgt>
  <wgt id="558">3.00497e-12</wgt>
  <wgt id="559">3.06936e-12</wgt>
  <wgt id="560">3.35635e-12</wgt>
  <wgt id="561">3.13688e-12</wgt>
  <wgt id="562">3.15019e-12</wgt>
  <wgt id="563">3.36178e-12</wgt>
  <wgt id="564">3.23157e-12</wgt>
  <wgt id="565">3.18386e-12</wgt>
  <wgt id="566">2.89493e-12</wgt>
  <wgt id="567">3.03705e-12</wgt>
  <wgt id="568">2.89325e-12</wgt>
  <wgt id="569">3.06661e-12</wgt>
  <wgt id="570">3.0742e-12</wgt>
  <wgt id="571">3.36234e-12</wgt>
  <wgt id="572">2.90838e-12</wgt>
  <wgt id="573">2.94318e-12</wgt>
  <wgt id="574">2.96636e-12</wgt>
  <wgt id="575">3.34587e-12</wgt>
  <wgt id="576">3.69892e-12</wgt>
  <wgt id="577">3.4826e-12</wgt>
  <wgt id="578">3.36542e-12</wgt>
  <wgt id="579">3.48337e-12</wgt>
  <wgt id="580">3.57633e-12</wgt>
  <wgt id="581">3.7091e-12</wgt>
  <wgt id="582">3.61575e-12</wgt>
  <wgt id="583">3.43264e-12</wgt>
  <wgt id="584">3.30706e-12</wgt>
  <wgt id="585">3.06473e-12</wgt>
  <wgt id="586">3.12611e-12</wgt>
  <wgt id="587">3.41591e-12</wgt>
  <wgt id="588">3.74326e-12</wgt>
  <wgt id="589">3.71194e-12</wgt>
  <wgt id="590">3.32427e-12</wgt>
  <wgt id="591">3.44061e-12</wgt>
  <wgt id="592">3.13424e-12</wgt>
  <wgt id="593">3.22628e-12</wgt>
  <wgt id="594">3.23448e-12</wgt>
  <wgt id="595">3.56308e-12</wgt>
  <wgt id="596">3.99972e-12</wgt>
  <wgt id="597">3.41223e-12</wgt>
  <wgt id="598">3.43743e-12</wgt>
  <wgt id="599">3.59729e-12</wgt>
  <wgt id="600">3.65045e-12</wgt>
  <wgt id="601">3.19637e-12</wgt>
  <wgt id="602">3.21865e-12</wgt>
  <wgt id="603">3.09821e-12</wgt>
  <wgt id="604">3.45038e-12</wgt>
  <wgt id="605">3.35309e-12</wgt>
  <wgt id="606">3.40619e-12</wgt>
  <wgt id="607">3.5412e-12</wgt>
  <wgt id="608">3.48192e-12</wgt>
  <wgt id="609">3.31427e-12</wgt>
  <wgt id="610">3.17616e-12</wgt>
  <wgt id="611">3.15532e-12</wgt>
  <wgt id="612">3.42526e-12</wgt>
  <wgt id="613">3.16399e-12</wgt>
  <wgt id="614">3.31395e-12</wgt>
  <wgt id="615">3.43625e-12</wgt>
  <wgt id="616">3.14389e-12</wgt>
  <wgt id="617">3.48968e-12</wgt>
  <wgt id="618">3.69886e-12</wgt>
  <wgt id="619">3.27696e-12</wgt>
  <wgt id="620">3.44574e-12</wgt>
  <wgt id="621">3.29412e-12</wgt>
  <wgt id="622">3.41591e-12</wgt>
  <wgt id="623">3.33794e-12</wgt>
  <wgt id="624">3.35958e-12</wgt>
  <wgt id="625">3.16688e-12</wgt>
  <wgt id="626">2.89633e-12</wgt>
  <wgt id="627">2.98273e-12</wgt>
  <wgt id="628">3.31212e-12</wgt>
  <wgt id="629">3.49396e-12</wgt>
  <wgt id="630">3.24532e-12</wgt>
  <wgt id="631">3.45727e-12</wgt>
  <wgt id="632">3.03058e-12</wgt>
  <wgt id="633">3.32351e-12</wgt>
  <wgt id="634">3.17537e-12</wgt>
  <wgt id="635">3.07062e-12</wgt>
  <wgt id="636">3.37328e-12</wgt>
  <wgt id="637">3.32804e-12</wgt>
  <wgt id="638">3.17242e-12</wgt>
  <wgt id="639">3.17053e-12</wgt>
  <wgt id="640">3.2372e-12</wgt>
  <wgt id="641">3.53203e-12</wgt>
  <wgt id="642">2.96893e-12</wgt>
  <wgt id="643">3.23926e-12</wgt>
  <wgt id="644">2.99505e-12</wgt>
  <wgt id="645">3.33796e-12</wgt>
  <wgt id="646">3.00083e-12</wgt>
  <wgt id="647">3.41796e-12</wgt>
  <wgt id="648">3.53944e-12</wgt>
  <wgt id="649">3.36382e-12</wgt>
  <wgt id="650">3.19677e-12</wgt>
  <wgt id="651">3.59968e-12</wgt>
  <wgt id="652">3.1793e-12</wgt>
  <wgt id="653">3.19722e-12</wgt>
  <wgt id="654">3.41507e-12</wgt>
  <wgt id="655">3.17293e-12</wgt>
  <wgt id="656">3.364e-12</wgt>
  <wgt id="657">3.69755e-12</wgt>
  <wgt id="658">3.33392e-12</wgt>
  <wgt id="659">3.2007e-12</wgt>
  <wgt id="660">3.19377e-12</wgt>
  <wgt id="661">3.24337e-12</wgt>
  <wgt id="662">3.28887e-12</wgt>
  <wgt id="663">3.42252e-12</wgt>
  <wgt id="664">3.41696e-12</wgt>
  <wgt id="665">3.29041e-12</wgt>
  <wgt id="666">3.25416e-12</wgt>
  <wgt id="667">3.54565e-12</wgt>
  <wgt id="668">3.28396e-12</wgt>
  <wgt id="669">3.31367e-12</wgt>
  <wgt id="670">3.53138e-12</wgt>
  <wgt id="671">3.39981e-12</wgt>
  <wgt id="672">3.29327e-12</wgt>
  <wgt id="673">3.60648e-12</wgt>
  <wgt id="674">3.22856e-12</wgt>
  <wgt id="675">3.1928e-12</wgt>
  <wgt id="676">4.36399e-12</wgt>
  <wgt id="677">4.40441e-12</wgt>
  <wgt id="678">4.84413e-12</wgt>
  <wgt id="679">4.58461e-12</wgt>
  <wgt id="680">4.41383e-12</wgt>
  <wgt id="681">4.22752e-12</wgt>
  <wgt id="682">4.60655e-12</wgt>
  <wgt id="683">3.93599e-12</wgt>
  <wgt id="684">4.633e-12</wgt>
  <wgt id="685">4.384e-12</wgt>
  <wgt id="686">4.5215e-12</wgt>
  <wgt id="687">4.48524e-12</wgt>
  <wgt id="688">4.21973e-12</wgt>
  <wgt id="689">4.58337e-12</wgt>
  <wgt id="690">4.48287e-12</wgt>
  <wgt id="691">4.46323e-12</wgt>
  <wgt id="692">4.23653e-12</wgt>
  <wgt id="693">5.96818e-12</wgt>
  <wgt id="694">4.8587e-12</wgt>
  <wgt id="695">4.03282e-12</wgt>
  <wgt id="696">4.14605e-12</wgt>
  <wgt id="697">3.86247e-12</wgt>
  <wgt id="698">3.507e-12</wgt>
  <wgt id="699">3.64132e-12</wgt>
  <wgt id="700">3.84762e-12</wgt>
  <wgt id="701">4.35854e-12</wgt>
  <wgt id="702">4.14865e-12</wgt>
  <wgt id="703">5.55311e-12</wgt>
  <wgt id="704">4.9515e-12</wgt>
  <wgt id="705">4.94736e-12</wgt>
  <wgt id="706">4.02921e-12</wgt>
  <wgt id="707">4.05125e-12</wgt>
  <wgt id="708">4.11396e-12</wgt>
  <wgt id="709">4.19866e-12</wgt>
  <wgt id="710">3.52512e-12</wgt>
  <wgt id="711">4.74311e-12</wgt>
  <wgt id="712">4.05804e-12</wgt>
  <wgt id="713">4.71009e-12</wgt>
  <wgt id="714">3.84752e-12</wgt>
  <wgt id="715">4.12236e-12</wgt>
  <wgt id="716">4.17955e-12</wgt>
  <wgt id="717">3.70768e-12</wgt>
  <wgt id="718">4.47502e-12</wgt>
  <wgt id="719">3.98214e-12</wgt>
  <wgt id="720">4.53303e-12</wgt>
  <wgt id="721">3.68508e-12</wgt>
  <wgt id="722">3.31488e-12</wgt>
  <wgt id="723">4.99343e-12</wgt>
  <wgt id="724">4.78154e-12</wgt>
  <wgt id="725">4.57708e-12</wgt>
  <wgt id="726">4.33097e-12</wgt>
  <wgt id="727">4.4054e-12</wgt>
  <wgt id="728">4.3166e-12</wgt>
  <wgt id="729">3.89328e-12</wgt>
  <wgt id="730">4.89284e-12</wgt>
  <wgt id="731">4.30072e-12</wgt>
  <wgt id="732">5.15564e-12</wgt>
  <wgt id="733">4.00402e-12</wgt>
  <wgt id="734">4.53362e-12</wgt>
  <wgt id="735">4.33639e-12</wgt>
  <wgt id="736">3.99218e-12</wgt>
  <wgt id="737">3.92811e-12</wgt>
  <wgt id="738">4.13504e-12</wgt>
  <wgt id="739">4.6243e-12</wgt>
  <wgt id="740">5.27528e-12</wgt>
  <wgt id="741">4.68402e-12</wgt>
  <wgt id="742">4.10641e-12</wgt>
  <wgt id="743">3.94416e-12</wgt>
  <wgt id="744">4.26719e-12</wgt>
  <wgt id="745">4.84478e-12</wgt>
  <wgt id="746">4.98759e-12</wgt>
  <wgt id="747">3.55747e-12</wgt>
  <wgt id="748">4.17456e-12</wgt>
  <wgt id="749">4.55797e-12</wgt>
  <wgt id="750">4.74967e-12</wgt>
  <wgt id="751">4.40036e-12</wgt>
  <wgt id="752">3.89264e-12</wgt>
  <wgt id="753">3.85245e-12</wgt>
  <wgt id="754">4.57078e-12</wgt>
  <wgt id="755">4.23481e-12</wgt>
  <wgt id="756">4.20167e-12</wgt>
  <wgt id="757">3.69717e-12</wgt>
  <wgt id="758">4.22714e-12</wgt>
  <wgt id="759">4.80043e-12</wgt>
  <wgt id="760">4.13048e-12</wgt>
  <wgt id="761">4.91848e-12</wgt>
  <wgt id="762">4.94278e-12</wgt>
  <wgt id="763">4.53266e-12</wgt>
  <wgt id="764">4.71798e-12</wgt>
  <wgt id="765">4.43363e-12</wgt>
  <wgt id="766">4.44775e-12</wgt>
  <wgt id="767">4.46506e-12</wgt>
  <wgt id="768">3.92308e-12</wgt>
  <wgt id="769">4.58786e-12</wgt>
  <wgt id="770">4.01762e-12</wgt>
  <wgt id="771">5.45895e-12</wgt>
  <wgt id="772">4.24679e-12</wgt>
  <wgt id="773">4.40875e-12</wgt>
  <wgt id="774">3.38745e-12</wgt>
  <wgt id="775">4.58889e-12</wgt>
  <wgt id="776">5.1633e-12</wgt>
  <wgt id="777">3.76918e-12</wgt>
  <wgt id="778">2.74878e-12</wgt>
  <wgt id="779">1.53248e-12</wgt>
  <wgt id="780">7.67253e-13</wgt>
  <wgt id="781">3.10179e-12</wgt>
  <wgt id="782">3.42789e-12</wgt>
  <wgt id="783">1.26957e-12</wgt>
  <wgt id="784">1.76429e-12</wgt>
  <wgt id="785">4.27907e-12</wgt>
  <wgt id="786">1.24046e-12</wgt>
  <wgt id="787">3.73317e-12</wgt>
  <wgt id="788">1.13473e-13</wgt>
  <wgt id="789">1.73748e-12</wgt>
  <wgt id="790">1.31763e-12</wgt>
  <wgt id="791">3.30557e-12</wgt>
  <wgt id="792">3.79243e-12</wgt>
  <wgt id="793">2.4991e-12</wgt>
  <wgt id="794">1.14976e-12</wgt>
  <wgt id="795">4.02014e-12</wgt>
  <wgt id="796">4.07296e-12</wgt>
  <wgt id="797">3.65442e-12</wgt>
  <wgt id="798">1.96817e-12</wgt>
  <wgt id="799">3.67862e-12</wgt>
  <wgt id="800">2.0031e-12</wgt>
  <wgt id="801">2.79946e-12</wgt>
  <wgt id="802">1.10082e-12</wgt>
  <wgt id="803">4.58329e-12</wgt>
  <wgt id="804">4.04547e-12</wgt>
  <wgt id="805">3.90129e-12</wgt>
  <wgt id="806">3.10635e-12</wgt>
  <wgt id="807">2.74166e-12</wgt>
  <wgt id="808">2.67528e-12</wgt>
  <wgt id="809">2.4241e-12</wgt>
  <wgt id="810">3.63655e-12</wgt>
  <wgt id="811">2.90963e-12</wgt>
  <wgt id="812">1.35618e-12</wgt>
  <wgt id="813">1.48545e-12</wgt>
  <wgt id="814">1.76135e-12</wgt>
  <wgt id="815">1.33192e-12</wgt>
  <wgt id="816">1.61646e-12</wgt>
  <wgt id="817">2.82409e-12</wgt>
  <wgt id="818">3.9613e-12</wgt>
  <wgt id="819">1.49072e-12</wgt>
  <wgt id="820">2.53594e-12</wgt>
  <wgt id="821">3.46946e-12</wgt>
  <wgt id="822">2.1753e-12</wgt>
  <wgt id="823">3.71525e-12</wgt>
  <wgt id="824">4.28068e-12</wgt>
  <wgt id="825">9.65103e-13</wgt>
  <wgt id="826">3.71182e-12</wgt>
  <wgt id="827">9.38125e-13</wgt>
  <wgt id="828">3.64154e-12</wgt>
  <wgt id="829">2.86223e-12</wgt>
  <wgt id="830">9.32202e-13</wgt>
  <wgt id="831">3.41382e-12</wgt>
  <wgt id="832">5.25868e-12</wgt>
  <wgt id="833">2.08387e-12</wgt>
  <wgt id="834">5.18762e-12</wgt>
  <wgt id="835">1.73751e-12</wgt>
  <wgt id="836">2.09611e-12</wgt>
  <wgt id="837">3.37008e-12</wgt>
  <wgt id="838">2.04574e-12</wgt>
  <wgt id="839">3.4327e-12</wgt>
  <wgt id="840">2.28581e-12</wgt>
  <wgt id="841">4.10518e-12</wgt>
  <wgt id="842">2.85419e-12</wgt>
  <wgt id="843">3.01981e-12</wgt>
  <wgt id="844">3.19706e-12</wgt>
  <wgt id="845">5.33446e-12</wgt>
  <wgt id="846">2.63902e-12</wgt>
  <wgt id="847">3.04026e-12</wgt>
  <wgt id="848">1.38911e-12</wgt>
  <wgt id="849">3.14102e-12</wgt>
  <wgt id="850">4.60032e-12</wgt>
  <wgt id="851">3.41904e-12</wgt>
  <wgt id="852">1.04709e-12</wgt>
  <wgt id="853">3.60612e-12</wgt>
  <wgt id="854">4.15312e-12</wgt>
  <wgt id="855">3.55188e-12</wgt>
  <wgt id="856">9.10466e-13</wgt>
  <wgt id="857">2.26938e-12</wgt>
  <wgt id="858">2.65103e-12</wgt>
  <wgt id="859">2.66949e-12</wgt>
  <wgt id="860">3.73798e-12</wgt>
  <wgt id="861">2.16509e-12</wgt>
  <wgt id="862">2.88248e-12</wgt>
  <wgt id="863">3.33818e-12</wgt>
  <wgt id="864">2.83561e-12</wgt>
  <wgt id="865">4.80568e-12</wgt>
  <wgt id="866">5.29668e-12</wgt>
  <wgt id="867">2.80155e-12</wgt>
  <wgt id="868">2.98477e-12</wgt>
  <wgt id="869">1.29017e-12</wgt>
  <wgt id="870">1.7297e-12</wgt>
  <wgt id="871">1.83053e-12</wgt>
  <wgt id="872">4.33752e-12</wgt>
  <wgt id="873">2.08851e-12</wgt>
  <wgt id="874">3.17691e-12</wgt>
  <wgt id="875">1.97119e-12</wgt>
  <wgt id="876">4.09049e-12</wgt>
  <wgt id="877">3.24377e-12</wgt>
  <wgt id="878">2.1818e-12</wgt>
  <wgt id="879">4.36399e-12</wgt>
  <wgt id="880">4.40441e-12</wgt>
  <wgt id="881">4.84413e-12</wgt>
  <wgt id="882">4.58461e-12</wgt>
  <wgt id="883">4.41383e-12</wgt>
  <wgt id="884">4.22752e-12</wgt>
  <wgt id="885">4.60655e-12</wgt>
  <wgt id="886">3.93599e-12</wgt>
  <wgt id="887">4.633e-12</wgt>
  <wgt id="888">4.384e-12</wgt>
  <wgt id="889">4.5215e-12</wgt>
  <wgt id="890">4.48524e-12</wgt>
  <wgt id="891">4.21973e-12</wgt>
  <wgt id="892">4.58337e-12</wgt>
  <wgt id="893">4.48287e-12</wgt>
  <wgt id="894">4.46323e-12</wgt>
  <wgt id="895">4.23653e-12</wgt>
  <wgt id="896">5.96818e-12</wgt>
  <wgt id="897">4.8587e-12</wgt>
  <wgt id="898">4.03282e-12</wgt>
  <wgt id="899">4.14605e-12</wgt>
  <wgt id="900">3.86247e-12</wgt>
  <wgt id="901">3.507e-12</wgt>
  <wgt id="902">3.64132e-12</wgt>
  <wgt id="903">3.84762e-12</wgt>
  <wgt id="904">4.35854e-12</wgt>
  <wgt id="905">4.14865e-12</wgt>
  <wgt id="906">5.55311e-12</wgt>
  <wgt id="907">4.9515e-12</wgt>
  <wgt id="908">4.94736e-12</wgt>
  <wgt id="909">4.02921e-12</wgt>
  <wgt id="910">4.05125e-12</wgt>
  <wgt id="911">4.11396e-12</wgt>
  <wgt id="912">4.19866e-12</wgt>
  <wgt id="913">3.52512e-12</wgt>
  <wgt id="914">4.74311e-12</wgt>
  <wgt id="915">4.05804e-12</wgt>
  <wgt id="916">4.71009e-12</wgt>
  <wgt id="917">3.84752e-12</wgt>
  <wgt id="918">4.12236e-12</wgt>
  <wgt id="919">4.17955e-12</wgt>
  <wgt id="920">3.70768e-12</wgt>
  <wgt id="921">4.47502e-12</wgt>
  <wgt id="922">3.98214e-12</wgt>
  <wgt id="923">4.53303e-12</wgt>
  <wgt id="924">3.68508e-12</wgt>
  <wgt id="925">3.31488e-12</wgt>
  <wgt id="926">4.99343e-12</wgt>
  <wgt id="927">4.78154e-12</wgt>
  <wgt id="928">4.57708e-12</wgt>
  <wgt id="929">4.33097e-12</wgt>
  <wgt id="930">4.4054e-12</wgt>
  <wgt id="931">4.3166e-12</wgt>
  <wgt id="932">3.89328e-12</wgt>
  <wgt id="933">4.89284e-12</wgt>
  <wgt id="934">4.30072e-12</wgt>
  <wgt id="935">5.15564e-12</wgt>
  <wgt id="936">4.00402e-12</wgt>
  <wgt id="937">4.53362e-12</wgt>
  <wgt id="938">4.33639e-12</wgt>
  <wgt id="939">3.99218e-12</wgt>
  <wgt id="940">3.92811e-12</wgt>
  <wgt id="941">4.13504e-12</wgt>
  <wgt id="942">4.6243e-12</wgt>
  <wgt id="943">5.27528e-12</wgt>
  <wgt id="944">4.68402e-12</wgt>
  <wgt id="945">4.10641e-12</wgt>
  <wgt id="946">3.94416e-12</wgt>
  <wgt id="947">4.26719e-12</wgt>
  <wgt id="948">4.84478e-12</wgt>
  <wgt id="949">4.98759e-12</wgt>
  <wgt id="950">3.55747e-12</wgt>
  <wgt id="951">4.17456e-12</wgt>
  <wgt id="952">4.55797e-12</wgt>
  <wgt id="953">4.74967e-12</wgt>
  <wgt id="954">4.40036e-12</wgt>
  <wgt id="955">3.89264e-12</wgt>
  <wgt id="956">3.85245e-12</wgt>
  <wgt id="957">4.57078e-12</wgt>
  <wgt id="958">4.23481e-12</wgt>
  <wgt id="959">4.20167e-12</wgt>
  <wgt id="960">3.69717e-12</wgt>
  <wgt id="961">4.22714e-12</wgt>
  <wgt id="962">4.80043e-12</wgt>
  <wgt id="963">4.13048e-12</wgt>
  <wgt id="964">4.91848e-12</wgt>
  <wgt id="965">4.94278e-12</wgt>
  <wgt id="966">4.53266e-12</wgt>
  <wgt id="967">4.71798e-12</wgt>
  <wgt id="968">4.43363e-12</wgt>
  <wgt id="969">4.44775e-12</wgt>
  <wgt id="970">4.46506e-12</wgt>
  <wgt id="971">3.92308e-12</wgt>
  <wgt id="972">4.58786e-12</wgt>
  <wgt id="973">4.01762e-12</wgt>
  <wgt id="974">5.45895e-12</wgt>
  <wgt id="975">4.24679e-12</wgt>
  <wgt id="976">4.40875e-12</wgt>
  <wgt id="977">3.38745e-12</wgt>
  <wgt id="978">4.58889e-12</wgt>
  <wgt id="979">5.1633e-12</wgt>
  <wgt id="980">4.32971e-12</wgt>
  <wgt id="981">4.48501e-12</wgt>
  <wgt id="982">4.23478e-12</wgt>
</rwgt>
</event>
<event>
 5   1  0.3028200E-11  0.1533106E+04  0.7818608E-02  0.8060258E-01
       21   -1    0    0  502  501  0.00000000000E+00  0.00000000000E+00  0.56331755492E+03  0.56331755492E+03  0.00000000000E+00 0. -1.
       21   -1    0    0  501  502 -0.00000000000E+00 -0.00000000000E+00 -0.10431120436E+04  0.10431120436E+04  0.00000000000E+00 0.  1.
       39    2    1    2    0    0  0.00000000000E+00  0.00000000000E+00 -0.47979448866E+03  0.16064295985E+04  0.15331057705E+04 0.  0.
       25    1    3    3    0    0 -0.68794630781E+03  0.19109587382E+03 -0.50120472898E+03  0.88125985712E+03  0.12500000000E+03 0.  0.
       25    1    3    3    0    0  0.68794630781E+03 -0.19109587382E+03  0.21410240312E+02  0.72516974138E+03  0.12500000000E+03 0.  0.
<mgrwt>
<rscale>  0 0.15331058E+04</rscale>
<asrwt>0</asrwt>
<pdfrwt beam="1">  1       21 0.86664240E-01 0.15331058E+04</pdfrwt>
<pdfrwt beam="2">  1       21 0.16047877E+00 0.15331058E+04</pdfrwt>
<totfact> 0.16741667E+02</totfact>
</mgrwt>
<rwgt>
  <wgt id="1">3.0282e-12</wgt>
  <wgt id="2">2.68967e-12</wgt>
  <wgt id="3">3.43938e-12</wgt>
  <wgt id="4">3.0282e-12</wgt>
  <wgt id="5">2.68967e-12</wgt>
  <wgt id="6">3.43938e-12</wgt>
  <wgt id="7">3.0282e-12</wgt>
  <wgt id="8">2.68967e-12</wgt>
  <wgt id="9">3.43938e-12</wgt>
  <wgt id="10">3.03919e-12</wgt>
  <wgt id="11">3.0372e-12</wgt>
  <wgt id="12">3.03527e-12</wgt>
  <wgt id="13">3.03094e-12</wgt>
  <wgt id="14">3.04907e-12</wgt>
  <wgt id="15">3.04301e-12</wgt>
  <wgt id="16">3.03312e-12</wgt>
  <wgt id="17">3.04583e-12</wgt>
  <wgt id="18">3.03847e-12</wgt>
  <wgt id="19">3.04309e-12</wgt>
  <wgt id="20">3.03283e-12</wgt>
  <wgt id="21">3.02428e-12</wgt>
  <wgt id="22">3.02923e-12</wgt>
  <wgt id="23">3.01446e-12</wgt>
  <wgt id="24">3.02528e-12</wgt>
  <wgt id="25">3.03098e-12</wgt>
  <wgt id="26">3.04873e-12</wgt>
  <wgt id="27">3.0373e-12</wgt>
  <wgt id="28">3.02331e-12</wgt>
  <wgt id="29">3.04246e-12</wgt>
  <wgt id="30">3.02612e-12</wgt>
  <wgt id="31">3.04841e-12</wgt>
  <wgt id="32">3.02635e-12</wgt>
  <wgt id="33">3.04187e-12</wgt>
  <wgt id="34">3.02924e-12</wgt>
  <wgt id="35">3.02899e-12</wgt>
  <wgt id="36">3.04203e-12</wgt>
  <wgt id="37">3.0319e-12</wgt>
  <wgt id="38">3.03456e-12</wgt>
  <wgt id="39">3.07159e-12</wgt>
  <wgt id="40">3.04512e-12</wgt>
  <wgt id="41">3.03891e-12</wgt>
  <wgt id="42">3.04969e-12</wgt>
  <wgt id="43">3.04402e-12</wgt>
  <wgt id="44">3.03235e-12</wgt>
  <wgt id="45">3.03845e-12</wgt>
  <wgt id="46">3.03736e-12</wgt>
  <wgt id="47">3.03411e-12</wgt>
  <wgt id="48">3.0391e-12</wgt>
  <wgt id="49">3.04785e-12</wgt>
  <wgt id="50">3.0497e-12</wgt>
  <wgt id="51">3.04236e-12</wgt>
  <wgt id="52">3.02396e-12</wgt>
  <wgt id="53">3.03348e-12</wgt>
  <wgt id="54">3.03909e-12</wgt>
  <wgt id="55">3.03685e-12</wgt>
  <wgt id="56">3.04741e-12</wgt>
  <wgt id="57">3.04862e-12</wgt>
  <wgt id="58">3.0258e-12</wgt>
  <wgt id="59">3.03359e-12</wgt>
  <wgt id="60">3.04175e-12</wgt>
  <wgt id="61">3.04207e-12</wgt>
  <wgt id="62">3.03873e-12</wgt>
  <wgt id="63">3.04249e-12</wgt>
  <wgt id="64">3.04244e-12</wgt>
  <wgt id="65">3.0411e-12</wgt>
  <wgt id="66">3.03751e-12</wgt>
  <wgt id="67">3.03806e-12</wgt>
  <wgt id="68">3.03778e-12</wgt>
  <wgt id="69">3.03777e-12</wgt>
  <wgt id="70">3.03871e-12</wgt>
  <wgt id="71">3.0372e-12</wgt>
  <wgt id="72">3.03777e-12</wgt>
  <wgt id="73">3.04023e-12</wgt>
  <wgt id="74">3.039e-12</wgt>
  <wgt id="75">3.04069e-12</wgt>
  <wgt id="76">3.04241e-12</wgt>
  <wgt id="77">3.03925e-12</wgt>
  <wgt id="78">3.04048e-12</wgt>
  <wgt id="79">3.0418e-12</wgt>
  <wgt id="80">3.03265e-12</wgt>
  <wgt id="81">3.03601e-12</wgt>
  <wgt id="82">3.03933e-12</wgt>
  <wgt id="83">3.03428e-12</wgt>
  <wgt id="84">3.03537e-12</wgt>
  <wgt id="85">3.03738e-12</wgt>
  <wgt id="86">3.04149e-12</wgt>
  <wgt id="87">3.03265e-12</wgt>
  <wgt id="88">3.04076e-12</wgt>
  <wgt id="89">3.04095e-12</wgt>
  <wgt id="90">3.04045e-12</wgt>
  <wgt id="91">3.04059e-12</wgt>
  <wgt id="92">3.04209e-12</wgt>
  <wgt id="93">3.03891e-12</wgt>
  <wgt id="94">3.03816e-12</wgt>
  <wgt id="95">3.03953e-12</wgt>
  <wgt id="96">3.0402e-12</wgt>
  <wgt id="97">3.03748e-12</wgt>
  <wgt id="98">3.04031e-12</wgt>
  <wgt id="99">3.03875e-12</wgt>
  <wgt id="100">3.04096e-12</wgt>
  <wgt id="101">3.03888e-12</wgt>
  <wgt id="102">3.03809e-12</wgt>
  <wgt id="103">3.04081e-12</wgt>
  <wgt id="104">3.03795e-12</wgt>
  <wgt id="105">3.04034e-12</wgt>
  <wgt id="106">3.03742e-12</wgt>
  <wgt id="107">3.04342e-12</wgt>
  <wgt id="108">3.03739e-12</wgt>
  <wgt id="109">3.04053e-12</wgt>
  <wgt id="110">3.03856e-12</wgt>
  <wgt id="111">3.07745e-12</wgt>
  <wgt id="112">3.02663e-12</wgt>
  <wgt id="113">3.70798e-12</wgt>
  <wgt id="114">3.89612e-12</wgt>
  <wgt id="115">3.83715e-12</wgt>
  <wgt id="116">4.61611e-12</wgt>
  <wgt id="117">3.14951e-12</wgt>
  <wgt id="118">3.15567e-12</wgt>
  <wgt id="119">3.14601e-12</wgt>
  <wgt id="120">3.15014e-12</wgt>
  <wgt id="121">3.14914e-12</wgt>
  <wgt id="122">3.14337e-12</wgt>
  <wgt id="123">3.15786e-12</wgt>
  <wgt id="124">3.14451e-12</wgt>
  <wgt id="125">3.15269e-12</wgt>
  <wgt id="126">3.1522e-12</wgt>
  <wgt id="127">3.1477e-12</wgt>
  <wgt id="128">3.15924e-12</wgt>
  <wgt id="129">3.13986e-12</wgt>
  <wgt id="130">3.16506e-12</wgt>
  <wgt id="131">3.13339e-12</wgt>
  <wgt id="132">3.08212e-12</wgt>
  <wgt id="133">3.22706e-12</wgt>
  <wgt id="134">3.12393e-12</wgt>
  <wgt id="135">3.16917e-12</wgt>
  <wgt id="136">3.17792e-12</wgt>
  <wgt id="137">3.11492e-12</wgt>
  <wgt id="138">3.23697e-12</wgt>
  <wgt id="139">3.06287e-12</wgt>
  <wgt id="140">3.12675e-12</wgt>
  <wgt id="141">3.16724e-12</wgt>
  <wgt id="142">3.14985e-12</wgt>
  <wgt id="143">3.15184e-12</wgt>
  <wgt id="144">3.11527e-12</wgt>
  <wgt id="145">3.17747e-12</wgt>
  <wgt id="146">3.15903e-12</wgt>
  <wgt id="147">3.14288e-12</wgt>
  <wgt id="148">3.15587e-12</wgt>
  <wgt id="149">3.14905e-12</wgt>
  <wgt id="150">3.17205e-12</wgt>
  <wgt id="151">3.13893e-12</wgt>
  <wgt id="152">3.14987e-12</wgt>
  <wgt id="153">3.14937e-12</wgt>
  <wgt id="154">3.18326e-12</wgt>
  <wgt id="155">3.11068e-12</wgt>
  <wgt id="156">3.16377e-12</wgt>
  <wgt id="157">3.12003e-12</wgt>
  <wgt id="158">3.80117e-12</wgt>
  <wgt id="159">3.81681e-12</wgt>
  <wgt id="160">3.78866e-12</wgt>
  <wgt id="161">3.79538e-12</wgt>
  <wgt id="162">3.8076e-12</wgt>
  <wgt id="163">3.79876e-12</wgt>
  <wgt id="164">3.80485e-12</wgt>
  <wgt id="165">3.80294e-12</wgt>
  <wgt id="166">3.79996e-12</wgt>
  <wgt id="167">3.79833e-12</wgt>
  <wgt id="168">3.80519e-12</wgt>
  <wgt id="169">3.78415e-12</wgt>
  <wgt id="170">3.81174e-12</wgt>
  <wgt id="171">3.79894e-12</wgt>
  <wgt id="172">3.8043e-12</wgt>
  <wgt id="173">3.80319e-12</wgt>
  <wgt id="174">3.80045e-12</wgt>
  <wgt id="175">3.72063e-12</wgt>
  <wgt id="176">3.90439e-12</wgt>
  <wgt id="177">3.81394e-12</wgt>
  <wgt id="178">3.78902e-12</wgt>
  <wgt id="179">3.91005e-12</wgt>
  <wgt id="180">3.62499e-12</wgt>
  <wgt id="181">3.7229e-12</wgt>
  <wgt id="182">3.85232e-12</wgt>
  <wgt id="183">3.75287e-12</wgt>
  <wgt id="184">3.82505e-12</wgt>
  <wgt id="185">3.77736e-12</wgt>
  <wgt id="186">3.82603e-12</wgt>
  <wgt id="187">3.77254e-12</wgt>
  <wgt id="188">3.85201e-12</wgt>
  <wgt id="189">3.78491e-12</wgt>
  <wgt id="190">3.80771e-12</wgt>
  <wgt id="191">3.80862e-12</wgt>
  <wgt id="192">3.79671e-12</wgt>
  <wgt id="193">3.8361e-12</wgt>
  <wgt id="194">3.78365e-12</wgt>
  <wgt id="195">3.78474e-12</wgt>
  <wgt id="196">3.86704e-12</wgt>
  <wgt id="197">3.81463e-12</wgt>
  <wgt id="198">3.79788e-12</wgt>
  <wgt id="199">3.80117e-12</wgt>
  <wgt id="200">3.8265e-12</wgt>
  <wgt id="201">3.81673e-12</wgt>
  <wgt id="202">3.80767e-12</wgt>
  <wgt id="203">3.79315e-12</wgt>
  <wgt id="204">3.78677e-12</wgt>
  <wgt id="205">3.78114e-12</wgt>
  <wgt id="206">3.77156e-12</wgt>
  <wgt id="207">3.79217e-12</wgt>
  <wgt id="208">3.7512e-12</wgt>
  <wgt id="209">3.77584e-12</wgt>
  <wgt id="210">3.76867e-12</wgt>
  <wgt id="211">3.77147e-12</wgt>
  <wgt id="212">3.77153e-12</wgt>
  <wgt id="213">3.77138e-12</wgt>
  <wgt id="214">3.77219e-12</wgt>
  <wgt id="215">3.77248e-12</wgt>
  <wgt id="216">3.77083e-12</wgt>
  <wgt id="217">3.77915e-12</wgt>
  <wgt id="218">3.76577e-12</wgt>
  <wgt id="219">3.76221e-12</wgt>
  <wgt id="220">3.7771e-12</wgt>
  <wgt id="221">3.77016e-12</wgt>
  <wgt id="222">3.77472e-12</wgt>
  <wgt id="223">3.61973e-12</wgt>
  <wgt id="224">3.90806e-12</wgt>
  <wgt id="225">3.74041e-12</wgt>
  <wgt id="226">3.81025e-12</wgt>
  <wgt id="227">3.74463e-12</wgt>
  <wgt id="228">3.78327e-12</wgt>
  <wgt id="229">3.73089e-12</wgt>
  <wgt id="230">3.79153e-12</wgt>
  <wgt id="231">3.85293e-12</wgt>
  <wgt id="232">3.70351e-12</wgt>
  <wgt id="233">3.75733e-12</wgt>
  <wgt id="234">3.7909e-12</wgt>
  <wgt id="235">3.75668e-12</wgt>
  <wgt id="236">3.80094e-12</wgt>
  <wgt id="237">3.75177e-12</wgt>
  <wgt id="238">3.77886e-12</wgt>
  <wgt id="239">3.76101e-12</wgt>
  <wgt id="240">3.79168e-12</wgt>
  <wgt id="241">3.74541e-12</wgt>
  <wgt id="242">3.80231e-12</wgt>
  <wgt id="243">3.77093e-12</wgt>
  <wgt id="244">3.80823e-12</wgt>
  <wgt id="245">3.7671e-12</wgt>
  <wgt id="246">3.8026e-12</wgt>
  <wgt id="247">3.77156e-12</wgt>
  <wgt id="248">3.79783e-12</wgt>
  <wgt id="249">3.78756e-12</wgt>
  <wgt id="250">3.77816e-12</wgt>
  <wgt id="251">3.76369e-12</wgt>
  <wgt id="252">3.75707e-12</wgt>
  <wgt id="253">3.7519e-12</wgt>
  <wgt id="254">3.68212e-12</wgt>
  <wgt id="255">3.68548e-12</wgt>
  <wgt id="256">3.67866e-12</wgt>
  <wgt id="257">3.68558e-12</wgt>
  <wgt id="258">3.6796e-12</wgt>
  <wgt id="259">3.70566e-12</wgt>
  <wgt id="260">3.65916e-12</wgt>
  <wgt id="261">3.68114e-12</wgt>
  <wgt id="262">3.68358e-12</wgt>
  <wgt id="263">3.68185e-12</wgt>
  <wgt id="264">3.68229e-12</wgt>
  <wgt id="265">3.68022e-12</wgt>
  <wgt id="266">3.68598e-12</wgt>
  <wgt id="267">3.68277e-12</wgt>
  <wgt id="268">3.6811e-12</wgt>
  <wgt id="269">3.68856e-12</wgt>
  <wgt id="270">3.67793e-12</wgt>
  <wgt id="271">3.676e-12</wgt>
  <wgt id="272">3.68902e-12</wgt>
  <wgt id="273">3.67395e-12</wgt>
  <wgt id="274">3.68825e-12</wgt>
  <wgt id="275">3.67253e-12</wgt>
  <wgt id="276">3.69195e-12</wgt>
  <wgt id="277">3.66536e-12</wgt>
  <wgt id="278">3.69797e-12</wgt>
  <wgt id="279">3.63353e-12</wgt>
  <wgt id="280">3.74242e-12</wgt>
  <wgt id="281">3.67232e-12</wgt>
  <wgt id="282">3.68081e-12</wgt>
  <wgt id="283">3.60878e-12</wgt>
  <wgt id="284">3.7711e-12</wgt>
  <wgt id="285">3.55466e-12</wgt>
  <wgt id="286">3.78484e-12</wgt>
  <wgt id="287">3.69082e-12</wgt>
  <wgt id="288">3.67096e-12</wgt>
  <wgt id="289">3.70022e-12</wgt>
  <wgt id="290">3.63725e-12</wgt>
  <wgt id="291">3.67731e-12</wgt>
  <wgt id="292">3.68349e-12</wgt>
  <wgt id="293">3.66219e-12</wgt>
  <wgt id="294">3.70197e-12</wgt>
  <wgt id="295">3.62984e-12</wgt>
  <wgt id="296">3.74521e-12</wgt>
  <wgt id="297">3.69031e-12</wgt>
  <wgt id="298">3.68524e-12</wgt>
  <wgt id="299">3.67423e-12</wgt>
  <wgt id="300">3.70278e-12</wgt>
  <wgt id="301">3.68006e-12</wgt>
  <wgt id="302">3.72207e-12</wgt>
  <wgt id="303">3.67521e-12</wgt>
  <wgt id="304">3.68697e-12</wgt>
  <wgt id="305">3.71956e-12</wgt>
  <wgt id="306">3.72303e-12</wgt>
  <wgt id="307">3.71578e-12</wgt>
  <wgt id="308">3.72337e-12</wgt>
  <wgt id="309">3.71704e-12</wgt>
  <wgt id="310">3.74431e-12</wgt>
  <wgt id="311">3.69651e-12</wgt>
  <wgt id="312">3.71682e-12</wgt>
  <wgt id="313">3.72239e-12</wgt>
  <wgt id="314">3.71924e-12</wgt>
  <wgt id="315">3.7197e-12</wgt>
  <wgt id="316">3.71782e-12</wgt>
  <wgt id="317">3.72315e-12</wgt>
  <wgt id="318">3.72079e-12</wgt>
  <wgt id="319">3.71698e-12</wgt>
  <wgt id="320">3.72585e-12</wgt>
  <wgt id="321">3.71603e-12</wgt>
  <wgt id="322">3.71119e-12</wgt>
  <wgt id="323">3.72936e-12</wgt>
  <wgt id="324">3.71297e-12</wgt>
  <wgt id="325">3.72504e-12</wgt>
  <wgt id="326">3.71135e-12</wgt>
  <wgt id="327">3.7298e-12</wgt>
  <wgt id="328">3.70238e-12</wgt>
  <wgt id="329">3.72995e-12</wgt>
  <wgt id="330">3.80051e-12</wgt>
  <wgt id="331">3.64128e-12</wgt>
  <wgt id="332">3.71149e-12</wgt>
  <wgt id="333">3.71821e-12</wgt>
  <wgt id="334">3.661e-12</wgt>
  <wgt id="335">3.7913e-12</wgt>
  <wgt id="336">3.62575e-12</wgt>
  <wgt id="337">3.83076e-12</wgt>
  <wgt id="338">3.74999e-12</wgt>
  <wgt id="339">3.69087e-12</wgt>
  <wgt id="340">3.73726e-12</wgt>
  <wgt id="341">3.67178e-12</wgt>
  <wgt id="342">3.71706e-12</wgt>
  <wgt id="343">3.71714e-12</wgt>
  <wgt id="344">3.70073e-12</wgt>
  <wgt id="345">3.74122e-12</wgt>
  <wgt id="346">3.66505e-12</wgt>
  <wgt id="347">3.78172e-12</wgt>
  <wgt id="348">3.73102e-12</wgt>
  <wgt id="349">3.71952e-12</wgt>
  <wgt id="350">3.70905e-12</wgt>
  <wgt id="351">3.74562e-12</wgt>
  <wgt id="352">3.71702e-12</wgt>
  <wgt id="353">3.76512e-12</wgt>
  <wgt id="354">3.70893e-12</wgt>
  <wgt id="355">3.72805e-12</wgt>
  <wgt id="356">3.68212e-12</wgt>
  <wgt id="357">3.74209e-12</wgt>
  <wgt id="358">3.71956e-12</wgt>
  <wgt id="359">3.70231e-12</wgt>
  <wgt id="360">3.67901e-12</wgt>
  <wgt id="361">3.68699e-12</wgt>
  <wgt id="362">3.73014e-12</wgt>
  <wgt id="363">3.72421e-12</wgt>
  <wgt id="364">3.71737e-12</wgt>
  <wgt id="365">3.70891e-12</wgt>
  <wgt id="366">3.69855e-12</wgt>
  <wgt id="367">3.67602e-12</wgt>
  <wgt id="368">3.66393e-12</wgt>
  <wgt id="369">3.65083e-12</wgt>
  <wgt id="370">3.68699e-12</wgt>
  <wgt id="371">3.70185e-12</wgt>
  <wgt id="372">3.69374e-12</wgt>
  <wgt id="373">3.68122e-12</wgt>
  <wgt id="374">3.67773e-12</wgt>
  <wgt id="375">3.80365e-12</wgt>
  <wgt id="376">3.80361e-12</wgt>
  <wgt id="377">3.80357e-12</wgt>
  <wgt id="378">3.81664e-12</wgt>
  <wgt id="379">3.79077e-12</wgt>
  <wgt id="380">3.81469e-12</wgt>
  <wgt id="381">3.79905e-12</wgt>
  <wgt id="382">3.81607e-12</wgt>
  <wgt id="383">3.79129e-12</wgt>
  <wgt id="384">3.80573e-12</wgt>
  <wgt id="385">3.8016e-12</wgt>
  <wgt id="386">3.81249e-12</wgt>
  <wgt id="387">3.79984e-12</wgt>
  <wgt id="388">3.80127e-12</wgt>
  <wgt id="389">3.8065e-12</wgt>
  <wgt id="390">3.81063e-12</wgt>
  <wgt id="391">3.79598e-12</wgt>
  <wgt id="392">3.78945e-12</wgt>
  <wgt id="393">3.81161e-12</wgt>
  <wgt id="394">3.80839e-12</wgt>
  <wgt id="395">3.79711e-12</wgt>
  <wgt id="396">3.80072e-12</wgt>
  <wgt id="397">3.80552e-12</wgt>
  <wgt id="398">3.79813e-12</wgt>
  <wgt id="399">3.80883e-12</wgt>
  <wgt id="400">3.80115e-12</wgt>
  <wgt id="401">3.80861e-12</wgt>
  <wgt id="402">3.78443e-12</wgt>
  <wgt id="403">3.80858e-12</wgt>
  <wgt id="404">3.86071e-12</wgt>
  <wgt id="405">3.66393e-12</wgt>
  <wgt id="406">3.7608e-12</wgt>
  <wgt id="407">3.8942e-12</wgt>
  <wgt id="408">3.82498e-12</wgt>
  <wgt id="409">3.76118e-12</wgt>
  <wgt id="410">3.73216e-12</wgt>
  <wgt id="411">3.83486e-12</wgt>
  <wgt id="412">3.79901e-12</wgt>
  <wgt id="413">3.80784e-12</wgt>
  <wgt id="414">3.77478e-12</wgt>
  <wgt id="415">3.82577e-12</wgt>
  <wgt id="416">3.85926e-12</wgt>
  <wgt id="417">3.72586e-12</wgt>
  <wgt id="418">3.80733e-12</wgt>
  <wgt id="419">3.78335e-12</wgt>
  <wgt id="420">3.80501e-12</wgt>
  <wgt id="421">3.81122e-12</wgt>
  <wgt id="422">3.81625e-12</wgt>
  <wgt id="423">3.79897e-12</wgt>
  <wgt id="424">3.82735e-12</wgt>
  <wgt id="425">3.79269e-12</wgt>
  <wgt id="426">3.80365e-12</wgt>
  <wgt id="427">3.7974e-12</wgt>
  <wgt id="428">3.83569e-12</wgt>
  <wgt id="429">3.8168e-12</wgt>
  <wgt id="430">3.89097e-12</wgt>
  <wgt id="431">3.87682e-12</wgt>
  <wgt id="432">3.86246e-12</wgt>
  <wgt id="433">3.8486e-12</wgt>
  <wgt id="434">3.83267e-12</wgt>
  <wgt id="435">3.7965e-12</wgt>
  <wgt id="436">3.77697e-12</wgt>
  <wgt id="437">3.75914e-12</wgt>
  <wgt id="438">3.8168e-12</wgt>
  <wgt id="439">3.8287e-12</wgt>
  <wgt id="440">3.82198e-12</wgt>
  <wgt id="441">3.81239e-12</wgt>
  <wgt id="442">3.80878e-12</wgt>
  <wgt id="443">3.80707e-12</wgt>
  <wgt id="444">3.81688e-12</wgt>
  <wgt id="445">3.81388e-12</wgt>
  <wgt id="446">3.78549e-12</wgt>
  <wgt id="447">3.80482e-12</wgt>
  <wgt id="448">3.74128e-12</wgt>
  <wgt id="449">3.84587e-12</wgt>
  <wgt id="450">3.80583e-12</wgt>
  <wgt id="451">3.80371e-12</wgt>
  <wgt id="452">3.85472e-12</wgt>
  <wgt id="453">3.8175e-12</wgt>
  <wgt id="454">3.68949e-12</wgt>
  <wgt id="455">3.81622e-12</wgt>
  <wgt id="456">3.74297e-12</wgt>
  <wgt id="457">3.81054e-12</wgt>
  <wgt id="458">3.84542e-12</wgt>
  <wgt id="459">3.82726e-12</wgt>
  <wgt id="460">3.83659e-12</wgt>
  <wgt id="461">3.77294e-12</wgt>
  <wgt id="462">3.80132e-12</wgt>
  <wgt id="463">3.78058e-12</wgt>
  <wgt id="464">3.80216e-12</wgt>
  <wgt id="465">3.82303e-12</wgt>
  <wgt id="466">3.78359e-12</wgt>
  <wgt id="467">3.79205e-12</wgt>
  <wgt id="468">3.80327e-12</wgt>
  <wgt id="469">3.80906e-12</wgt>
  <wgt id="470">3.78213e-12</wgt>
  <wgt id="471">3.79306e-12</wgt>
  <wgt id="472">3.81336e-12</wgt>
  <wgt id="473">3.76652e-12</wgt>
  <wgt id="474">3.0282e-12</wgt>
  <wgt id="475">3.16135e-12</wgt>
  <wgt id="476">2.98324e-12</wgt>
  <wgt id="477">3.00027e-12</wgt>
  <wgt id="478">3.05679e-12</wgt>
  <wgt id="479">3.03338e-12</wgt>
  <wgt id="480">3.10088e-12</wgt>
  <wgt id="481">2.96007e-12</wgt>
  <wgt id="482">2.93808e-12</wgt>
  <wgt id="483">2.96239e-12</wgt>
  <wgt id="484">3.19707e-12</wgt>
  <wgt id="485">3.02442e-12</wgt>
  <wgt id="486">3.06139e-12</wgt>
  <wgt id="487">3.01562e-12</wgt>
  <wgt id="488">3.06252e-12</wgt>
  <wgt id="489">2.90501e-12</wgt>
  <wgt id="490">2.96574e-12</wgt>
  <wgt id="491">3.02442e-12</wgt>
  <wgt id="492">2.97099e-12</wgt>
  <wgt id="493">2.94457e-12</wgt>
  <wgt id="494">2.94663e-12</wgt>
  <wgt id="495">3.02216e-12</wgt>
  <wgt id="496">2.92549e-12</wgt>
  <wgt id="497">2.95033e-12</wgt>
  <wgt id="498">3.06294e-12</wgt>
  <wgt id="499">2.97334e-12</wgt>
  <wgt id="500">2.96309e-12</wgt>
  <wgt id="501">3.08334e-12</wgt>
  <wgt id="502">2.97124e-12</wgt>
  <wgt id="503">3.02261e-12</wgt>
  <wgt id="504">3.00901e-12</wgt>
  <wgt id="505">3.08103e-12</wgt>
  <wgt id="506">3.02193e-12</wgt>
  <wgt id="507">3.00179e-12</wgt>
  <wgt id="508">3.11302e-12</wgt>
  <wgt id="509">2.99728e-12</wgt>
  <wgt id="510">3.04652e-12</wgt>
  <wgt id="511">2.93862e-12</wgt>
  <wgt id="512">3.04862e-12</wgt>
  <wgt id="513">3.04707e-12</wgt>
  <wgt id="514">3.02526e-12</wgt>
  <wgt id="515">3.01364e-12</wgt>
  <wgt id="516">3.12147e-12</wgt>
  <wgt id="517">3.09849e-12</wgt>
  <wgt id="518">3.1233e-12</wgt>
  <wgt id="519">3.00495e-12</wgt>
  <wgt id="520">3.03297e-12</wgt>
  <wgt id="521">3.12252e-12</wgt>
  <wgt id="522">3.12775e-12</wgt>
  <wgt id="523">3.01098e-12</wgt>
  <wgt id="524">3.04928e-12</wgt>
  <wgt id="525">3.05379e-12</wgt>
  <wgt id="526">3.00055e-12</wgt>
  <wgt id="527">3.07514e-12</wgt>
  <wgt id="528">2.99454e-12</wgt>
  <wgt id="529">3.03857e-12</wgt>
  <wgt id="530">3.03968e-12</wgt>
  <wgt id="531">2.97656e-12</wgt>
  <wgt id="532">3.13912e-12</wgt>
  <wgt id="533">2.89304e-12</wgt>
  <wgt id="534">3.00823e-12</wgt>
  <wgt id="535">3.03791e-12</wgt>
  <wgt id="536">3.04554e-12</wgt>
  <wgt id="537">3.03202e-12</wgt>
  <wgt id="538">3.10309e-12</wgt>
  <wgt id="539">2.95905e-12</wgt>
  <wgt id="540">3.06143e-12</wgt>
  <wgt id="541">3.02658e-12</wgt>
  <wgt id="542">2.95542e-12</wgt>
  <wgt id="543">3.03776e-12</wgt>
  <wgt id="544">3.14616e-12</wgt>
  <wgt id="545">2.97552e-12</wgt>
  <wgt id="546">2.95955e-12</wgt>
  <wgt id="547">2.9737e-12</wgt>
  <wgt id="548">2.91441e-12</wgt>
  <wgt id="549">3.01196e-12</wgt>
  <wgt id="550">3.06784e-12</wgt>
  <wgt id="551">3.07815e-12</wgt>
  <wgt id="552">2.96344e-12</wgt>
  <wgt id="553">3.01445e-12</wgt>
  <wgt id="554">3.22778e-12</wgt>
  <wgt id="555">3.11857e-12</wgt>
  <wgt id="556">2.96574e-12</wgt>
  <wgt id="557">3.07493e-12</wgt>
  <wgt id="558">2.95648e-12</wgt>
  <wgt id="559">2.96628e-12</wgt>
  <wgt id="560">3.2253e-12</wgt>
  <wgt id="561">2.95848e-12</wgt>
  <wgt id="562">3.08044e-12</wgt>
  <wgt id="563">3.02712e-12</wgt>
  <wgt id="564">3.07374e-12</wgt>
  <wgt id="565">2.99919e-12</wgt>
  <wgt id="566">3.03165e-12</wgt>
  <wgt id="567">2.99057e-12</wgt>
  <wgt id="568">3.05894e-12</wgt>
  <wgt id="569">3.03581e-12</wgt>
  <wgt id="570">2.99188e-12</wgt>
  <wgt id="571">3.28305e-12</wgt>
  <wgt id="572">3.00336e-12</wgt>
  <wgt id="573">2.92492e-12</wgt>
  <wgt id="574">2.95068e-12</wgt>
  <wgt id="575">3.24425e-12</wgt>
  <wgt id="576">3.19593e-12</wgt>
  <wgt id="577">3.41594e-12</wgt>
  <wgt id="578">3.2836e-12</wgt>
  <wgt id="579">3.25797e-12</wgt>
  <wgt id="580">3.29731e-12</wgt>
  <wgt id="581">3.4166e-12</wgt>
  <wgt id="582">3.20267e-12</wgt>
  <wgt id="583">3.26453e-12</wgt>
  <wgt id="584">3.22931e-12</wgt>
  <wgt id="585">3.22753e-12</wgt>
  <wgt id="586">3.16245e-12</wgt>
  <wgt id="587">3.27368e-12</wgt>
  <wgt id="588">3.23133e-12</wgt>
  <wgt id="589">3.24861e-12</wgt>
  <wgt id="590">3.24945e-12</wgt>
  <wgt id="591">3.37887e-12</wgt>
  <wgt id="592">3.14025e-12</wgt>
  <wgt id="593">3.21403e-12</wgt>
  <wgt id="594">3.42999e-12</wgt>
  <wgt id="595">3.22531e-12</wgt>
  <wgt id="596">3.359e-12</wgt>
  <wgt id="597">3.12983e-12</wgt>
  <wgt id="598">3.2795e-12</wgt>
  <wgt id="599">3.37058e-12</wgt>
  <wgt id="600">3.24474e-12</wgt>
  <wgt id="601">3.15887e-12</wgt>
  <wgt id="602">3.1885e-12</wgt>
  <wgt id="603">3.21771e-12</wgt>
  <wgt id="604">3.27606e-12</wgt>
  <wgt id="605">3.36035e-12</wgt>
  <wgt id="606">3.20728e-12</wgt>
  <wgt id="607">3.21707e-12</wgt>
  <wgt id="608">3.19961e-12</wgt>
  <wgt id="609">3.0866e-12</wgt>
  <wgt id="610">3.11666e-12</wgt>
  <wgt id="611">3.27818e-12</wgt>
  <wgt id="612">3.45438e-12</wgt>
  <wgt id="613">3.27804e-12</wgt>
  <wgt id="614">3.25643e-12</wgt>
  <wgt id="615">3.21095e-12</wgt>
  <wgt id="616">3.46796e-12</wgt>
  <wgt id="617">3.30026e-12</wgt>
  <wgt id="618">3.24608e-12</wgt>
  <wgt id="619">3.26993e-12</wgt>
  <wgt id="620">3.28484e-12</wgt>
  <wgt id="621">3.26797e-12</wgt>
  <wgt id="622">3.27368e-12</wgt>
  <wgt id="623">3.30718e-12</wgt>
  <wgt id="624">3.21736e-12</wgt>
  <wgt id="625">3.20686e-12</wgt>
  <wgt id="626">3.16649e-12</wgt>
  <wgt id="627">3.16031e-12</wgt>
  <wgt id="628">3.28379e-12</wgt>
  <wgt id="629">3.22504e-12</wgt>
  <wgt id="630">3.15393e-12</wgt>
  <wgt id="631">3.22274e-12</wgt>
  <wgt id="632">3.18244e-12</wgt>
  <wgt id="633">3.21601e-12</wgt>
  <wgt id="634">3.26395e-12</wgt>
  <wgt id="635">3.24957e-12</wgt>
  <wgt id="636">3.28445e-12</wgt>
  <wgt id="637">3.25387e-12</wgt>
  <wgt id="638">3.18223e-12</wgt>
  <wgt id="639">3.23509e-12</wgt>
  <wgt id="640">3.26707e-12</wgt>
  <wgt id="641">3.25647e-12</wgt>
  <wgt id="642">3.17804e-12</wgt>
  <wgt id="643">3.24603e-12</wgt>
  <wgt id="644">3.12483e-12</wgt>
  <wgt id="645">3.23482e-12</wgt>
  <wgt id="646">3.26544e-12</wgt>
  <wgt id="647">3.18918e-12</wgt>
  <wgt id="648">3.27097e-12</wgt>
  <wgt id="649">3.26684e-12</wgt>
  <wgt id="650">3.18738e-12</wgt>
  <wgt id="651">3.35412e-12</wgt>
  <wgt id="652">3.24907e-12</wgt>
  <wgt id="653">3.15969e-12</wgt>
  <wgt id="654">3.1973e-12</wgt>
  <wgt id="655">3.18517e-12</wgt>
  <wgt id="656">3.20204e-12</wgt>
  <wgt id="657">3.31276e-12</wgt>
  <wgt id="658">3.28742e-12</wgt>
  <wgt id="659">3.15028e-12</wgt>
  <wgt id="660">3.2921e-12</wgt>
  <wgt id="661">3.22728e-12</wgt>
  <wgt id="662">3.22146e-12</wgt>
  <wgt id="663">3.2394e-12</wgt>
  <wgt id="664">3.21327e-12</wgt>
  <wgt id="665">3.24437e-12</wgt>
  <wgt id="666">3.26417e-12</wgt>
  <wgt id="667">3.34946e-12</wgt>
  <wgt id="668">3.20941e-12</wgt>
  <wgt id="669">3.31974e-12</wgt>
  <wgt id="670">3.25356e-12</wgt>
  <wgt id="671">3.18275e-12</wgt>
  <wgt id="672">3.13034e-12</wgt>
  <wgt id="673">3.22562e-12</wgt>
  <wgt id="674">3.16786e-12</wgt>
  <wgt id="675">3.17344e-12</wgt>
  <wgt id="676">3.86573e-12</wgt>
  <wgt id="677">3.95227e-12</wgt>
  <wgt id="678">4.00516e-12</wgt>
  <wgt id="679">3.84263e-12</wgt>
  <wgt id="680">3.70326e-12</wgt>
  <wgt id="681">4.00175e-12</wgt>
  <wgt id="682">3.86041e-12</wgt>
  <wgt id="683">3.85474e-12</wgt>
  <wgt id="684">3.97363e-12</wgt>
  <wgt id="685">3.75646e-12</wgt>
  <wgt id="686">3.96648e-12</wgt>
  <wgt id="687">3.89784e-12</wgt>
  <wgt id="688">3.84209e-12</wgt>
  <wgt id="689">3.9409e-12</wgt>
  <wgt id="690">4.03671e-12</wgt>
  <wgt id="691">4.00784e-12</wgt>
  <wgt id="692">3.90963e-12</wgt>
  <wgt id="693">4.22819e-12</wgt>
  <wgt id="694">4.04438e-12</wgt>
  <wgt id="695">3.76672e-12</wgt>
  <wgt id="696">3.84179e-12</wgt>
  <wgt id="697">3.75503e-12</wgt>
  <wgt id="698">3.75985e-12</wgt>
  <wgt id="699">3.71506e-12</wgt>
  <wgt id="700">3.64194e-12</wgt>
  <wgt id="701">3.84313e-12</wgt>
  <wgt id="702">3.7363e-12</wgt>
  <wgt id="703">4.17933e-12</wgt>
  <wgt id="704">4.01188e-12</wgt>
  <wgt id="705">4.0095e-12</wgt>
  <wgt id="706">3.74171e-12</wgt>
  <wgt id="707">3.75235e-12</wgt>
  <wgt id="708">3.80121e-12</wgt>
  <wgt id="709">3.7897e-12</wgt>
  <wgt id="710">3.59718e-12</wgt>
  <wgt id="711">3.87882e-12</wgt>
  <wgt id="712">3.81432e-12</wgt>
  <wgt id="713">4.01156e-12</wgt>
  <wgt id="714">3.87793e-12</wgt>
  <wgt id="715">3.84026e-12</wgt>
  <wgt id="716">3.74915e-12</wgt>
  <wgt id="717">3.77892e-12</wgt>
  <wgt id="718">3.77067e-12</wgt>
  <wgt id="719">3.64156e-12</wgt>
  <wgt id="720">3.78517e-12</wgt>
  <wgt id="721">3.82845e-12</wgt>
  <wgt id="722">3.68253e-12</wgt>
  <wgt id="723">3.9799e-12</wgt>
  <wgt id="724">3.95145e-12</wgt>
  <wgt id="725">4.02634e-12</wgt>
  <wgt id="726">3.88065e-12</wgt>
  <wgt id="727">3.79849e-12</wgt>
  <wgt id="728">3.8814e-12</wgt>
  <wgt id="729">3.67714e-12</wgt>
  <wgt id="730">3.91134e-12</wgt>
  <wgt id="731">3.81708e-12</wgt>
  <wgt id="732">4.10111e-12</wgt>
  <wgt id="733">3.82417e-12</wgt>
  <wgt id="734">3.90701e-12</wgt>
  <wgt id="735">3.91528e-12</wgt>
  <wgt id="736">3.84254e-12</wgt>
  <wgt id="737">3.89519e-12</wgt>
  <wgt id="738">3.85633e-12</wgt>
  <wgt id="739">3.75987e-12</wgt>
  <wgt id="740">4.14891e-12</wgt>
  <wgt id="741">3.52376e-12</wgt>
  <wgt id="742">3.82731e-12</wgt>
  <wgt id="743">3.8997e-12</wgt>
  <wgt id="744">3.78995e-12</wgt>
  <wgt id="745">3.88887e-12</wgt>
  <wgt id="746">3.90486e-12</wgt>
  <wgt id="747">3.68977e-12</wgt>
  <wgt id="748">3.81777e-12</wgt>
  <wgt id="749">4.02396e-12</wgt>
  <wgt id="750">3.8233e-12</wgt>
  <wgt id="751">3.96775e-12</wgt>
  <wgt id="752">3.67207e-12</wgt>
  <wgt id="753">3.71227e-12</wgt>
  <wgt id="754">3.8583e-12</wgt>
  <wgt id="755">3.88561e-12</wgt>
  <wgt id="756">3.84206e-12</wgt>
  <wgt id="757">3.69581e-12</wgt>
  <wgt id="758">3.88038e-12</wgt>
  <wgt id="759">3.86078e-12</wgt>
  <wgt id="760">3.928e-12</wgt>
  <wgt id="761">4.03094e-12</wgt>
  <wgt id="762">3.97862e-12</wgt>
  <wgt id="763">3.9069e-12</wgt>
  <wgt id="764">3.93367e-12</wgt>
  <wgt id="765">3.87781e-12</wgt>
  <wgt id="766">3.83345e-12</wgt>
  <wgt id="767">3.89545e-12</wgt>
  <wgt id="768">3.74108e-12</wgt>
  <wgt id="769">4.01646e-12</wgt>
  <wgt id="770">3.85291e-12</wgt>
  <wgt id="771">4.27373e-12</wgt>
  <wgt id="772">3.68094e-12</wgt>
  <wgt id="773">3.87524e-12</wgt>
  <wgt id="774">3.62413e-12</wgt>
  <wgt id="775">3.94134e-12</wgt>
  <wgt id="776">4.09907e-12</wgt>
  <wgt id="777">3.8817e-12</wgt>
  <wgt id="778">3.05814e-12</wgt>
  <wgt id="779">2.76212e-12</wgt>
  <wgt id="780">2.57945e-12</wgt>
  <wgt id="781">3.08815e-12</wgt>
  <wgt id="782">3.2028e-12</wgt>
  <wgt id="783">2.83377e-12</wgt>
  <wgt id="784">2.84855e-12</wgt>
  <wgt id="785">3.48046e-12</wgt>
  <wgt id="786">2.58259e-12</wgt>
  <wgt id="787">3.22718e-12</wgt>
  <wgt id="788">2.40538e-12</wgt>
  <wgt id="789">2.78324e-12</wgt>
  <wgt id="790">2.59505e-12</wgt>
  <wgt id="791">2.90649e-12</wgt>
  <wgt id="792">3.81908e-12</wgt>
  <wgt id="793">2.94849e-12</wgt>
  <wgt id="794">2.67386e-12</wgt>
  <wgt id="795">3.2035e-12</wgt>
  <wgt id="796">3.76952e-12</wgt>
  <wgt id="797">3.30666e-12</wgt>
  <wgt id="798">2.89249e-12</wgt>
  <wgt id="799">3.24263e-12</wgt>
  <wgt id="800">2.7225e-12</wgt>
  <wgt id="801">2.96154e-12</wgt>
  <wgt id="802">2.73478e-12</wgt>
  <wgt id="803">3.9089e-12</wgt>
  <wgt id="804">3.26752e-12</wgt>
  <wgt id="805">3.21619e-12</wgt>
  <wgt id="806">3.45598e-12</wgt>
  <wgt id="807">3.01637e-12</wgt>
  <wgt id="808">2.98073e-12</wgt>
  <wgt id="809">2.93589e-12</wgt>
  <wgt id="810">3.39343e-12</wgt>
  <wgt id="811">3.18252e-12</wgt>
  <wgt id="812">2.69805e-12</wgt>
  <wgt id="813">2.63771e-12</wgt>
  <wgt id="814">2.56017e-12</wgt>
  <wgt id="815">2.77337e-12</wgt>
  <wgt id="816">2.65527e-12</wgt>
  <wgt id="817">3.17259e-12</wgt>
  <wgt id="818">2.92761e-12</wgt>
  <wgt id="819">2.80946e-12</wgt>
  <wgt id="820">3.06063e-12</wgt>
  <wgt id="821">3.20233e-12</wgt>
  <wgt id="822">2.9031e-12</wgt>
  <wgt id="823">3.23059e-12</wgt>
  <wgt id="824">3.76124e-12</wgt>
  <wgt id="825">2.60071e-12</wgt>
  <wgt id="826">3.03544e-12</wgt>
  <wgt id="827">2.39622e-12</wgt>
  <wgt id="828">3.81718e-12</wgt>
  <wgt id="829">3.03574e-12</wgt>
  <wgt id="830">2.5297e-12</wgt>
  <wgt id="831">3.13956e-12</wgt>
  <wgt id="832">4.42174e-12</wgt>
  <wgt id="833">3.00801e-12</wgt>
  <wgt id="834">4.23534e-12</wgt>
  <wgt id="835">2.69915e-12</wgt>
  <wgt id="836">3.10594e-12</wgt>
  <wgt id="837">3.18879e-12</wgt>
  <wgt id="838">2.91678e-12</wgt>
  <wgt id="839">3.14478e-12</wgt>
  <wgt id="840">3.01851e-12</wgt>
  <wgt id="841">3.34174e-12</wgt>
  <wgt id="842">2.97851e-12</wgt>
  <wgt id="843">2.94464e-12</wgt>
  <wgt id="844">3.05279e-12</wgt>
  <wgt id="845">3.90521e-12</wgt>
  <wgt id="846">2.97246e-12</wgt>
  <wgt id="847">2.95427e-12</wgt>
  <wgt id="848">2.89927e-12</wgt>
  <wgt id="849">3.07821e-12</wgt>
  <wgt id="850">3.49223e-12</wgt>
  <wgt id="851">3.22268e-12</wgt>
  <wgt id="852">2.79304e-12</wgt>
  <wgt id="853">3.17623e-12</wgt>
  <wgt id="854">3.44412e-12</wgt>
  <wgt id="855">3.12422e-12</wgt>
  <wgt id="856">2.55911e-12</wgt>
  <wgt id="857">3.09654e-12</wgt>
  <wgt id="858">2.96868e-12</wgt>
  <wgt id="859">2.94237e-12</wgt>
  <wgt id="860">3.04947e-12</wgt>
  <wgt id="861">2.95993e-12</wgt>
  <wgt id="862">3.02406e-12</wgt>
  <wgt id="863">3.07309e-12</wgt>
  <wgt id="864">3.09743e-12</wgt>
  <wgt id="865">3.70539e-12</wgt>
  <wgt id="866">4.14524e-12</wgt>
  <wgt id="867">2.9506e-12</wgt>
  <wgt id="868">2.87303e-12</wgt>
  <wgt id="869">2.65838e-12</wgt>
  <wgt id="870">2.77698e-12</wgt>
  <wgt id="871">2.73808e-12</wgt>
  <wgt id="872">3.27016e-12</wgt>
  <wgt id="873">2.77323e-12</wgt>
  <wgt id="874">3.07219e-12</wgt>
  <wgt id="875">2.76524e-12</wgt>
  <wgt id="876">3.2363e-12</wgt>
  <wgt id="877">3.16425e-12</wgt>
  <wgt id="878">2.88262e-12</wgt>
  <wgt id="879">3.86573e-12</wgt>
  <wgt id="880">3.95227e-12</wgt>
  <wgt id="881">4.00516e-12</wgt>
  <wgt id="882">3.84263e-12</wgt>
  <wgt id="883">3.70326e-12</wgt>
  <wgt id="884">4.00175e-12</wgt>
  <wgt id="885">3.86041e-12</wgt>
  <wgt id="886">3.85474e-12</wgt>
  <wgt id="887">3.97363e-12</wgt>
  <wgt id="888">3.75646e-12</wgt>
  <wgt id="889">3.96648e-12</wgt>
  <wgt id="890">3.89784e-12</wgt>
  <wgt id="891">3.84209e-12</wgt>
  <wgt id="892">3.9409e-12</wgt>
  <wgt id="893">4.03671e-12</wgt>
  <wgt id="894">4.00784e-12</wgt>
  <wgt id="895">3.90963e-12</wgt>
  <wgt id="896">4.22819e-12</wgt>
  <wgt id="897">4.04438e-12</wgt>
  <wgt id="898">3.76672e-12</wgt>
  <wgt id="899">3.84179e-12</wgt>
  <wgt id="900">3.75503e-12</wgt>
  <wgt id="901">3.75985e-12</wgt>
  <wgt id="902">3.71506e-12</wgt>
  <wgt id="903">3.64194e-12</wgt>
  <wgt id="904">3.84313e-12</wgt>
  <wgt id="905">3.7363e-12</wgt>
  <wgt id="906">4.17933e-12</wgt>
  <wgt id="907">4.01188e-12</wgt>
  <wgt id="908">4.0095e-12</wgt>
  <wgt id="909">3.74171e-12</wgt>
  <wgt id="910">3.75235e-12</wgt>
  <wgt id="911">3.80121e-12</wgt>
  <wgt id="912">3.7897e-12</wgt>
  <wgt id="913">3.59718e-12</wgt>
  <wgt id="914">3.87882e-12</wgt>
  <wgt id="915">3.81432e-12</wgt>
  <wgt id="916">4.01156e-12</wgt>
  <wgt id="917">3.87793e-12</wgt>
  <wgt id="918">3.84026e-12</wgt>
  <wgt id="919">3.74915e-12</wgt>
  <wgt id="920">3.77892e-12</wgt>
  <wgt id="921">3.77067e-12</wgt>
  <wgt id="922">3.64156e-12</wgt>
  <wgt id="923">3.78517e-12</wgt>
  <wgt id="924">3.82845e-12</wgt>
  <wgt id="925">3.68253e-12</wgt>
  <wgt id="926">3.9799e-12</wgt>
  <wgt id="927">3.95145e-12</wgt>
  <wgt id="928">4.02634e-12</wgt>
  <wgt id="929">3.88065e-12</wgt>
  <wgt id="930">3.79849e-12</wgt>
  <wgt id="931">3.8814e-12</wgt>
  <wgt id="932">3.67714e-12</wgt>
  <wgt id="933">3.91134e-12</wgt>
  <wgt id="934">3.81708e-12</wgt>
  <wgt id="935">4.10111e-12</wgt>
  <wgt id="936">3.82417e-12</wgt>
  <wgt id="937">3.90701e-12</wgt>
  <wgt id="938">3.91528e-12</wgt>
  <wgt id="939">3.84254e-12</wgt>
  <wgt id="940">3.89519e-12</wgt>
  <wgt id="941">3.85633e-12</wgt>
  <wgt id="942">3.75987e-12</wgt>
  <wgt id="943">4.14891e-12</wgt>
  <wgt id="944">3.52376e-12</wgt>
  <wgt id="945">3.82731e-12</wgt>
  <wgt id="946">3.8997e-12</wgt>
  <wgt id="947">3.78995e-12</wgt>
  <wgt id="948">3.88887e-12</wgt>
  <wgt id="949">3.90486e-12</wgt>
  <wgt id="950">3.68977e-12</wgt>
  <wgt id="951">3.81777e-12</wgt>
  <wgt id="952">4.02396e-12</wgt>
  <wgt id="953">3.8233e-12</wgt>
  <wgt id="954">3.96775e-12</wgt>
  <wgt id="955">3.67207e-12</wgt>
  <wgt id="956">3.71227e-12</wgt>
  <wgt id="957">3.8583e-12</wgt>
  <wgt id="958">3.88561e-12</wgt>
  <wgt id="959">3.84206e-12</wgt>
  <wgt id="960">3.69581e-12</wgt>
  <wgt id="961">3.88038e-12</wgt>
  <wgt id="962">3.86078e-12</wgt>
  <wgt id="963">3.928e-12</wgt>
  <wgt id="964">4.03094e-12</wgt>
  <wgt id="965">3.97862e-12</wgt>
  <wgt id="966">3.9069e-12</wgt>
  <wgt id="967">3.93367e-12</wgt>
  <wgt id="968">3.87781e-12</wgt>
  <wgt id="969">3.83345e-12</wgt>
  <wgt id="970">3.89545e-12</wgt>
  <wgt id="971">3.74108e-12</wgt>
  <wgt id="972">4.01646e-12</wgt>
  <wgt id="973">3.85291e-12</wgt>
  <wgt id="974">4.27373e-12</wgt>
  <wgt id="975">3.68094e-12</wgt>
  <wgt id="976">3.87524e-12</wgt>
  <wgt id="977">3.62413e-12</wgt>
  <wgt id="978">3.94134e-12</wgt>
  <wgt id="979">4.09907e-12</wgt>
  <wgt id="980">3.88386e-12</wgt>
  <wgt id="981">3.85298e-12</wgt>
  <wgt id="982">3.76267e-12</wgt>
</rwgt>
</event>
<event>
 5   1  0.3028200E-11  0.2435101E+04  0.7818608E-02  0.7665693E-01
       21   -1    0    0  502  501  0.00000000000E+00  0.00000000000E+00  0.26019331435E+04  0.26019331435E+04  0.00000000000E+00 0. -1.
       21   -1    0    0  501  502 -0.00000000000E+00 -0.00000000000E+00 -0.56974125352E+03  0.56974125352E+03  0.00000000000E+00 0.  1.
       39    2    1    2    0    0  0.00000000000E+00  0.00000000000E+00  0.20321918900E+04  0.31716743970E+04  0.24351005324E+04 0.  0.
       25    1    3    3    0    0  0.78793992672E+03  0.83422294131E+03  0.51160246862E+03  0.12625923055E+04  0.12500000000E+03 0.  0.
       25    1    3    3    0    0 -0.78793992672E+03 -0.83422294131E+03  0.15205894214E+04  0.19090820916E+04  0.12500000000E+03 0.  0.
<mgrwt>
<rscale>  0 0.24351005E+04</rscale>
<asrwt>0</asrwt>
<pdfrwt beam="1">  1       21 0.40029740E+00 0.24351005E+04</pdfrwt>
<pdfrwt beam="2">  1       21 0.87652502E-01 0.24351005E+04</pdfrwt>
<totfact> 0.31282916E+00</totfact>
</mgrwt>
<rwgt>
  <wgt id="1">3.0282e-12</wgt>
  <wgt id="2">2.58189e-12</wgt>
  <wgt id="3">3.59722e-12</wgt>
  <wgt id="4">3.0282e-12</wgt>
  <wgt id="5">2.58189e-12</wgt>
  <wgt id="6">3.59722e-12</wgt>
  <wgt id="7">3.0282e-12</wgt>
  <wgt id="8">2.58189e-12</wgt>
  <wgt id="9">3.59722e-12</wgt>
  <wgt id="10">3.2497e-12</wgt>
  <wgt id="11">3.25266e-12</wgt>
  <wgt id="12">3.23817e-12</wgt>
  <wgt id="13">3.24745e-12</wgt>
  <wgt id="14">3.25091e-12</wgt>
  <wgt id="15">3.25254e-12</wgt>
  <wgt id="16">3.23148e-12</wgt>
  <wgt id="17">3.27882e-12</wgt>
  <wgt id="18">3.25043e-12</wgt>
  <wgt id="19">3.26865e-12</wgt>
  <wgt id="20">3.25548e-12</wgt>
  <wgt id="21">3.21434e-12</wgt>
  <wgt id="22">3.21908e-12</wgt>
  <wgt id="23">3.18884e-12</wgt>
  <wgt id="24">3.21981e-12</wgt>
  <wgt id="25">3.2411e-12</wgt>
  <wgt id="26">3.25675e-12</wgt>
  <wgt id="27">3.24187e-12</wgt>
  <wgt id="28">3.22725e-12</wgt>
  <wgt id="29">3.24947e-12</wgt>
  <wgt id="30">3.21365e-12</wgt>
  <wgt id="31">3.26369e-12</wgt>
  <wgt id="32">3.20794e-12</wgt>
  <wgt id="33">3.25135e-12</wgt>
  <wgt id="34">3.2187e-12</wgt>
  <wgt id="35">3.20837e-12</wgt>
  <wgt id="36">3.26697e-12</wgt>
  <wgt id="37">3.23941e-12</wgt>
  <wgt id="38">3.23153e-12</wgt>
  <wgt id="39">3.32742e-12</wgt>
  <wgt id="40">3.26122e-12</wgt>
  <wgt id="41">3.24523e-12</wgt>
  <wgt id="42">3.25719e-12</wgt>
  <wgt id="43">3.25718e-12</wgt>
  <wgt id="44">3.27649e-12</wgt>
  <wgt id="45">3.25604e-12</wgt>
  <wgt id="46">3.22082e-12</wgt>
  <wgt id="47">3.31411e-12</wgt>
  <wgt id="48">3.29273e-12</wgt>
  <wgt id="49">3.23635e-12</wgt>
  <wgt id="50">3.20232e-12</wgt>
  <wgt id="51">3.21516e-12</wgt>
  <wgt id="52">3.2528e-12</wgt>
  <wgt id="53">3.33867e-12</wgt>
  <wgt id="54">3.28105e-12</wgt>
  <wgt id="55">3.23647e-12</wgt>
  <wgt id="56">3.18256e-12</wgt>
  <wgt id="57">3.19421e-12</wgt>
  <wgt id="58">3.24955e-12</wgt>
  <wgt id="59">3.26854e-12</wgt>
  <wgt id="60">3.1882e-12</wgt>
  <wgt id="61">3.25484e-12</wgt>
  <wgt id="62">3.27309e-12</wgt>
  <wgt id="63">3.24191e-12</wgt>
  <wgt id="64">3.24346e-12</wgt>
  <wgt id="65">3.2196e-12</wgt>
  <wgt id="66">3.27927e-12</wgt>
  <wgt id="67">3.28942e-12</wgt>
  <wgt id="68">3.24824e-12</wgt>
  <wgt id="69">3.24348e-12</wgt>
  <wgt id="70">3.21324e-12</wgt>
  <wgt id="71">3.27588e-12</wgt>
  <wgt id="72">3.26734e-12</wgt>
  <wgt id="73">3.23277e-12</wgt>
  <wgt id="74">3.27788e-12</wgt>
  <wgt id="75">3.20384e-12</wgt>
  <wgt id="76">3.276e-12</wgt>
  <wgt id="77">3.23825e-12</wgt>
  <wgt id="78">3.24583e-12</wgt>
  <wgt id="79">3.25624e-12</wgt>
  <wgt id="80">3.22386e-12</wgt>
  <wgt id="81">3.24249e-12</wgt>
  <wgt id="82">3.25156e-12</wgt>
  <wgt id="83">3.21749e-12</wgt>
  <wgt id="84">3.2221e-12</wgt>
  <wgt id="85">3.21885e-12</wgt>
  <wgt id="86">3.28897e-12</wgt>
  <wgt id="87">3.19255e-12</wgt>
  <wgt id="88">3.26591e-12</wgt>
  <wgt id="89">3.2633e-12</wgt>
  <wgt id="90">3.27399e-12</wgt>
  <wgt id="91">3.25276e-12</wgt>
  <wgt id="92">3.26772e-12</wgt>
  <wgt id="93">3.25557e-12</wgt>
  <wgt id="94">3.22891e-12</wgt>
  <wgt id="95">3.27222e-12</wgt>
  <wgt id="96">3.27227e-12</wgt>
  <wgt id="97">3.21909e-12</wgt>
  <wgt id="98">3.25118e-12</wgt>
  <wgt id="99">3.24358e-12</wgt>
  <wgt id="100">3.25831e-12</wgt>
  <wgt id="101">3.2355e-12</wgt>
  <wgt id="102">3.23978e-12</wgt>
  <wgt id="103">3.27076e-12</wgt>
  <wgt id="104">3.24562e-12</wgt>
  <wgt id="105">3.27422e-12</wgt>
  <wgt id="106">3.22916e-12</wgt>
  <wgt id="107">3.28763e-12</wgt>
  <wgt id="108">3.23842e-12</wgt>
  <wgt id="109">3.24578e-12</wgt>
  <wgt id="110">3.25162e-12</wgt>
  <wgt id="111">3.20971e-12</wgt>
  <wgt id="112">3.31656e-12</wgt>
  <wgt id="113">5.06191e-12</wgt>
  <wgt id="114">4.16961e-12</wgt>
  <wgt id="115">4.08812e-12</wgt>
  <wgt id="116">5.69137e-12</wgt>
  <wgt id="117">3.57967e-12</wgt>
  <wgt id="118">3.59447e-12</wgt>
  <wgt id="119">3.57125e-12</wgt>
  <wgt id="120">3.57959e-12</wgt>
  <wgt id="121">3.57972e-12</wgt>
  <wgt id="122">3.57477e-12</wgt>
  <wgt id="123">3.5866e-12</wgt>
  <wgt id="124">3.57536e-12</wgt>
  <wgt id="125">3.58245e-12</wgt>
  <wgt id="126">3.58415e-12</wgt>
  <wgt id="127">3.57671e-12</wgt>
  <wgt id="128">3.59026e-12</wgt>
  <wgt id="129">3.56916e-12</wgt>
  <wgt id="130">3.5947e-12</wgt>
  <wgt id="131">3.56392e-12</wgt>
  <wgt id="132">3.47225e-12</wgt>
  <wgt id="133">3.70872e-12</wgt>
  <wgt id="134">3.54091e-12</wgt>
  <wgt id="135">3.61023e-12</wgt>
  <wgt id="136">3.64553e-12</wgt>
  <wgt id="137">3.50115e-12</wgt>
  <wgt id="138">3.77214e-12</wgt>
  <wgt id="139">3.40069e-12</wgt>
  <wgt id="140">3.56956e-12</wgt>
  <wgt id="141">3.58659e-12</wgt>
  <wgt id="142">3.57768e-12</wgt>
  <wgt id="143">3.59581e-12</wgt>
  <wgt id="144">3.37979e-12</wgt>
  <wgt id="145">3.7826e-12</wgt>
  <wgt id="146">3.64732e-12</wgt>
  <wgt id="147">3.52338e-12</wgt>
  <wgt id="148">3.59413e-12</wgt>
  <wgt id="149">3.57863e-12</wgt>
  <wgt id="150">3.60939e-12</wgt>
  <wgt id="151">3.56581e-12</wgt>
  <wgt id="152">3.57998e-12</wgt>
  <wgt id="153">3.57951e-12</wgt>
  <wgt id="154">3.56664e-12</wgt>
  <wgt id="155">3.58221e-12</wgt>
  <wgt id="156">3.75931e-12</wgt>
  <wgt id="157">3.4294e-12</wgt>
  <wgt id="158">4.25782e-12</wgt>
  <wgt id="159">4.27659e-12</wgt>
  <wgt id="160">4.2429e-12</wgt>
  <wgt id="161">4.24632e-12</wgt>
  <wgt id="162">4.27096e-12</wgt>
  <wgt id="163">4.25268e-12</wgt>
  <wgt id="164">4.2656e-12</wgt>
  <wgt id="165">4.25934e-12</wgt>
  <wgt id="166">4.25686e-12</wgt>
  <wgt id="167">4.25534e-12</wgt>
  <wgt id="168">4.26179e-12</wgt>
  <wgt id="169">4.24179e-12</wgt>
  <wgt id="170">4.26807e-12</wgt>
  <wgt id="171">4.25582e-12</wgt>
  <wgt id="172">4.26079e-12</wgt>
  <wgt id="173">4.24337e-12</wgt>
  <wgt id="174">4.26329e-12</wgt>
  <wgt id="175">4.1249e-12</wgt>
  <wgt id="176">4.43327e-12</wgt>
  <wgt id="177">4.27436e-12</wgt>
  <wgt id="178">4.24326e-12</wgt>
  <wgt id="179">4.52125e-12</wgt>
  <wgt id="180">3.86255e-12</wgt>
  <wgt id="181">4.09324e-12</wgt>
  <wgt id="182">4.3689e-12</wgt>
  <wgt id="183">4.15817e-12</wgt>
  <wgt id="184">4.30764e-12</wgt>
  <wgt id="185">4.19885e-12</wgt>
  <wgt id="186">4.32959e-12</wgt>
  <wgt id="187">4.19911e-12</wgt>
  <wgt id="188">4.36079e-12</wgt>
  <wgt id="189">4.21808e-12</wgt>
  <wgt id="190">4.27423e-12</wgt>
  <wgt id="191">4.27696e-12</wgt>
  <wgt id="192">4.24646e-12</wgt>
  <wgt id="193">4.34253e-12</wgt>
  <wgt id="194">4.2149e-12</wgt>
  <wgt id="195">4.047e-12</wgt>
  <wgt id="196">4.59239e-12</wgt>
  <wgt id="197">4.28244e-12</wgt>
  <wgt id="198">4.25209e-12</wgt>
  <wgt id="199">4.25782e-12</wgt>
  <wgt id="200">4.30486e-12</wgt>
  <wgt id="201">4.28986e-12</wgt>
  <wgt id="202">4.27509e-12</wgt>
  <wgt id="203">4.25515e-12</wgt>
  <wgt id="204">4.24415e-12</wgt>
  <wgt id="205">4.23536e-12</wgt>
  <wgt id="206">4.195e-12</wgt>
  <wgt id="207">4.22082e-12</wgt>
  <wgt id="208">4.16919e-12</wgt>
  <wgt id="209">4.20824e-12</wgt>
  <wgt id="210">4.18524e-12</wgt>
  <wgt id="211">4.19332e-12</wgt>
  <wgt id="212">4.19615e-12</wgt>
  <wgt id="213">4.19439e-12</wgt>
  <wgt id="214">4.1953e-12</wgt>
  <wgt id="215">4.19836e-12</wgt>
  <wgt id="216">4.19267e-12</wgt>
  <wgt id="217">4.20255e-12</wgt>
  <wgt id="218">4.18864e-12</wgt>
  <wgt id="219">4.18999e-12</wgt>
  <wgt id="220">4.19805e-12</wgt>
  <wgt id="221">4.19909e-12</wgt>
  <wgt id="222">4.18296e-12</wgt>
  <wgt id="223">3.92694e-12</wgt>
  <wgt id="224">4.44227e-12</wgt>
  <wgt id="225">4.13979e-12</wgt>
  <wgt id="226">4.26553e-12</wgt>
  <wgt id="227">4.15245e-12</wgt>
  <wgt id="228">4.21371e-12</wgt>
  <wgt id="229">4.12942e-12</wgt>
  <wgt id="230">4.22727e-12</wgt>
  <wgt id="231">4.36603e-12</wgt>
  <wgt id="232">4.05603e-12</wgt>
  <wgt id="233">4.16097e-12</wgt>
  <wgt id="234">4.25296e-12</wgt>
  <wgt id="235">3.92767e-12</wgt>
  <wgt id="236">4.40887e-12</wgt>
  <wgt id="237">4.04671e-12</wgt>
  <wgt id="238">4.24423e-12</wgt>
  <wgt id="239">4.13683e-12</wgt>
  <wgt id="240">4.29929e-12</wgt>
  <wgt id="241">4.13257e-12</wgt>
  <wgt id="242">4.26741e-12</wgt>
  <wgt id="243">4.29678e-12</wgt>
  <wgt id="244">4.17658e-12</wgt>
  <wgt id="245">4.19469e-12</wgt>
  <wgt id="246">4.21218e-12</wgt>
  <wgt id="247">4.195e-12</wgt>
  <wgt id="248">4.24893e-12</wgt>
  <wgt id="249">4.23158e-12</wgt>
  <wgt id="250">4.21098e-12</wgt>
  <wgt id="251">4.18633e-12</wgt>
  <wgt id="252">4.17215e-12</wgt>
  <wgt id="253">4.16327e-12</wgt>
  <wgt id="254">3.98858e-12</wgt>
  <wgt id="255">3.99181e-12</wgt>
  <wgt id="256">3.98478e-12</wgt>
  <wgt id="257">3.99151e-12</wgt>
  <wgt id="258">3.98609e-12</wgt>
  <wgt id="259">4.01549e-12</wgt>
  <wgt id="260">3.96242e-12</wgt>
  <wgt id="261">3.9963e-12</wgt>
  <wgt id="262">3.97937e-12</wgt>
  <wgt id="263">3.98431e-12</wgt>
  <wgt id="264">3.99305e-12</wgt>
  <wgt id="265">3.98322e-12</wgt>
  <wgt id="266">3.99912e-12</wgt>
  <wgt id="267">3.98995e-12</wgt>
  <wgt id="268">3.98668e-12</wgt>
  <wgt id="269">4.00094e-12</wgt>
  <wgt id="270">3.97992e-12</wgt>
  <wgt id="271">3.97378e-12</wgt>
  <wgt id="272">4.00523e-12</wgt>
  <wgt id="273">3.97871e-12</wgt>
  <wgt id="274">3.99595e-12</wgt>
  <wgt id="275">3.95604e-12</wgt>
  <wgt id="276">4.02226e-12</wgt>
  <wgt id="277">3.96641e-12</wgt>
  <wgt id="278">4.00871e-12</wgt>
  <wgt id="279">3.91054e-12</wgt>
  <wgt id="280">4.08704e-12</wgt>
  <wgt id="281">3.96405e-12</wgt>
  <wgt id="282">4.00341e-12</wgt>
  <wgt id="283">3.83454e-12</wgt>
  <wgt id="284">4.18378e-12</wgt>
  <wgt id="285">3.73697e-12</wgt>
  <wgt id="286">4.20638e-12</wgt>
  <wgt id="287">4.00432e-12</wgt>
  <wgt id="288">3.96816e-12</wgt>
  <wgt id="289">4.02642e-12</wgt>
  <wgt id="290">3.90802e-12</wgt>
  <wgt id="291">3.96989e-12</wgt>
  <wgt id="292">3.98375e-12</wgt>
  <wgt id="293">3.94755e-12</wgt>
  <wgt id="294">4.02949e-12</wgt>
  <wgt id="295">3.8892e-12</wgt>
  <wgt id="296">4.11027e-12</wgt>
  <wgt id="297">3.96621e-12</wgt>
  <wgt id="298">4.01583e-12</wgt>
  <wgt id="299">3.97341e-12</wgt>
  <wgt id="300">4.02862e-12</wgt>
  <wgt id="301">3.87236e-12</wgt>
  <wgt id="302">4.24519e-12</wgt>
  <wgt id="303">3.92579e-12</wgt>
  <wgt id="304">4.02306e-12</wgt>
  <wgt id="305">3.9001e-12</wgt>
  <wgt id="306">3.90363e-12</wgt>
  <wgt id="307">3.89625e-12</wgt>
  <wgt id="308">3.90356e-12</wgt>
  <wgt id="309">3.89814e-12</wgt>
  <wgt id="310">3.92724e-12</wgt>
  <wgt id="311">3.87539e-12</wgt>
  <wgt id="312">3.90783e-12</wgt>
  <wgt id="313">3.89199e-12</wgt>
  <wgt id="314">3.89585e-12</wgt>
  <wgt id="315">3.90434e-12</wgt>
  <wgt id="316">3.89478e-12</wgt>
  <wgt id="317">3.91234e-12</wgt>
  <wgt id="318">3.90328e-12</wgt>
  <wgt id="319">3.89458e-12</wgt>
  <wgt id="320">3.9139e-12</wgt>
  <wgt id="321">3.89281e-12</wgt>
  <wgt id="322">3.88534e-12</wgt>
  <wgt id="323">3.91753e-12</wgt>
  <wgt id="324">3.89418e-12</wgt>
  <wgt id="325">3.90538e-12</wgt>
  <wgt id="326">3.87319e-12</wgt>
  <wgt id="327">3.93486e-12</wgt>
  <wgt id="328">3.88252e-12</wgt>
  <wgt id="329">3.90941e-12</wgt>
  <wgt id="330">4.01512e-12</wgt>
  <wgt id="331">3.79155e-12</wgt>
  <wgt id="332">3.87979e-12</wgt>
  <wgt id="333">3.91085e-12</wgt>
  <wgt id="334">3.78696e-12</wgt>
  <wgt id="335">4.04406e-12</wgt>
  <wgt id="336">3.72688e-12</wgt>
  <wgt id="337">4.11941e-12</wgt>
  <wgt id="338">3.95505e-12</wgt>
  <wgt id="339">3.85053e-12</wgt>
  <wgt id="340">3.93257e-12</wgt>
  <wgt id="341">3.82307e-12</wgt>
  <wgt id="342">3.8883e-12</wgt>
  <wgt id="343">3.88501e-12</wgt>
  <wgt id="344">3.86571e-12</wgt>
  <wgt id="345">3.94042e-12</wgt>
  <wgt id="346">3.80137e-12</wgt>
  <wgt id="347">4.01305e-12</wgt>
  <wgt id="348">3.87789e-12</wgt>
  <wgt id="349">3.92597e-12</wgt>
  <wgt id="350">3.8821e-12</wgt>
  <wgt id="351">3.9467e-12</wgt>
  <wgt id="352">3.788e-12</wgt>
  <wgt id="353">4.13707e-12</wgt>
  <wgt id="354">3.81574e-12</wgt>
  <wgt id="355">3.94929e-12</wgt>
  <wgt id="356">3.98858e-12</wgt>
  <wgt id="357">3.88919e-12</wgt>
  <wgt id="358">3.9001e-12</wgt>
  <wgt id="359">3.97083e-12</wgt>
  <wgt id="360">4.10787e-12</wgt>
  <wgt id="361">4.01875e-12</wgt>
  <wgt id="362">4.11646e-12</wgt>
  <wgt id="363">4.10408e-12</wgt>
  <wgt id="364">4.07592e-12</wgt>
  <wgt id="365">4.05746e-12</wgt>
  <wgt id="366">4.03988e-12</wgt>
  <wgt id="367">4.00881e-12</wgt>
  <wgt id="368">3.98663e-12</wgt>
  <wgt id="369">3.96246e-12</wgt>
  <wgt id="370">4.01875e-12</wgt>
  <wgt id="371">4.03415e-12</wgt>
  <wgt id="372">4.02524e-12</wgt>
  <wgt id="373">4.01334e-12</wgt>
  <wgt id="374">4.0252e-12</wgt>
  <wgt id="375">5.01256e-12</wgt>
  <wgt id="376">5.01271e-12</wgt>
  <wgt id="377">5.01239e-12</wgt>
  <wgt id="378">5.03312e-12</wgt>
  <wgt id="379">4.9923e-12</wgt>
  <wgt id="380">5.0277e-12</wgt>
  <wgt id="381">5.0065e-12</wgt>
  <wgt id="382">5.03387e-12</wgt>
  <wgt id="383">4.99155e-12</wgt>
  <wgt id="384">5.01601e-12</wgt>
  <wgt id="385">5.00937e-12</wgt>
  <wgt id="386">5.02493e-12</wgt>
  <wgt id="387">5.0073e-12</wgt>
  <wgt id="388">5.00854e-12</wgt>
  <wgt id="389">5.01743e-12</wgt>
  <wgt id="390">5.02197e-12</wgt>
  <wgt id="391">5.00285e-12</wgt>
  <wgt id="392">4.95955e-12</wgt>
  <wgt id="393">5.04259e-12</wgt>
  <wgt id="394">5.01312e-12</wgt>
  <wgt id="395">5.01188e-12</wgt>
  <wgt id="396">5.02617e-12</wgt>
  <wgt id="397">5.00306e-12</wgt>
  <wgt id="398">5.01122e-12</wgt>
  <wgt id="399">5.01387e-12</wgt>
  <wgt id="400">5.00327e-12</wgt>
  <wgt id="401">5.03354e-12</wgt>
  <wgt id="402">4.95278e-12</wgt>
  <wgt id="403">5.06134e-12</wgt>
  <wgt id="404">5.20227e-12</wgt>
  <wgt id="405">4.56888e-12</wgt>
  <wgt id="406">4.87594e-12</wgt>
  <wgt id="407">5.32171e-12</wgt>
  <wgt id="408">5.08439e-12</wgt>
  <wgt id="409">4.88267e-12</wgt>
  <wgt id="410">4.79392e-12</wgt>
  <wgt id="411">5.12065e-12</wgt>
  <wgt id="412">4.99768e-12</wgt>
  <wgt id="413">5.03327e-12</wgt>
  <wgt id="414">4.92656e-12</wgt>
  <wgt id="415">5.0796e-12</wgt>
  <wgt id="416">5.24367e-12</wgt>
  <wgt id="417">4.70031e-12</wgt>
  <wgt id="418">5.02683e-12</wgt>
  <wgt id="419">4.93555e-12</wgt>
  <wgt id="420">5.20584e-12</wgt>
  <wgt id="421">4.87801e-12</wgt>
  <wgt id="422">4.9499e-12</wgt>
  <wgt id="423">5.04059e-12</wgt>
  <wgt id="424">5.23595e-12</wgt>
  <wgt id="425">4.85697e-12</wgt>
  <wgt id="426">5.01256e-12</wgt>
  <wgt id="427">4.83807e-12</wgt>
  <wgt id="428">5.37994e-12</wgt>
  <wgt id="429">5.1141e-12</wgt>
  <wgt id="430">5.33147e-12</wgt>
  <wgt id="431">5.28528e-12</wgt>
  <wgt id="432">5.24613e-12</wgt>
  <wgt id="433">5.20713e-12</wgt>
  <wgt id="434">5.15564e-12</wgt>
  <wgt id="435">5.06253e-12</wgt>
  <wgt id="436">5.01701e-12</wgt>
  <wgt id="437">4.97099e-12</wgt>
  <wgt id="438">5.1141e-12</wgt>
  <wgt id="439">5.12883e-12</wgt>
  <wgt id="440">5.11871e-12</wgt>
  <wgt id="441">5.11148e-12</wgt>
  <wgt id="442">5.10964e-12</wgt>
  <wgt id="443">4.15124e-12</wgt>
  <wgt id="444">4.21616e-12</wgt>
  <wgt id="445">4.24591e-12</wgt>
  <wgt id="446">4.12437e-12</wgt>
  <wgt id="447">4.14808e-12</wgt>
  <wgt id="448">4.05933e-12</wgt>
  <wgt id="449">4.27925e-12</wgt>
  <wgt id="450">4.25007e-12</wgt>
  <wgt id="451">4.13785e-12</wgt>
  <wgt id="452">4.2411e-12</wgt>
  <wgt id="453">4.24422e-12</wgt>
  <wgt id="454">3.8768e-12</wgt>
  <wgt id="455">4.21514e-12</wgt>
  <wgt id="456">4.28609e-12</wgt>
  <wgt id="457">4.16441e-12</wgt>
  <wgt id="458">4.24453e-12</wgt>
  <wgt id="459">4.19052e-12</wgt>
  <wgt id="460">4.29613e-12</wgt>
  <wgt id="461">4.02462e-12</wgt>
  <wgt id="462">4.11627e-12</wgt>
  <wgt id="463">4.06694e-12</wgt>
  <wgt id="464">4.13311e-12</wgt>
  <wgt id="465">4.19518e-12</wgt>
  <wgt id="466">3.97874e-12</wgt>
  <wgt id="467">4.12725e-12</wgt>
  <wgt id="468">4.16149e-12</wgt>
  <wgt id="469">4.13297e-12</wgt>
  <wgt id="470">4.05715e-12</wgt>
  <wgt id="471">4.07556e-12</wgt>
  <wgt id="472">4.19291e-12</wgt>
  <wgt id="473">3.99098e-12</wgt>
  <wgt id="474">3.0282e-12</wgt>
  <wgt id="475">3.06486e-12</wgt>
  <wgt id="476">3.10095e-12</wgt>
  <wgt id="477">3.24365e-12</wgt>
  <wgt id="478">3.18845e-12</wgt>
  <wgt id="479">2.69376e-12</wgt>
  <wgt id="480">3.2875e-12</wgt>
  <wgt id="481">3.0833e-12</wgt>
  <wgt id="482">3.19337e-12</wgt>
  <wgt id="483">3.34653e-12</wgt>
  <wgt id="484">3.24719e-12</wgt>
  <wgt id="485">2.65996e-12</wgt>
  <wgt id="486">3.19166e-12</wgt>
  <wgt id="487">2.83191e-12</wgt>
  <wgt id="488">2.93623e-12</wgt>
  <wgt id="489">2.44786e-12</wgt>
  <wgt id="490">3.08207e-12</wgt>
  <wgt id="491">2.95757e-12</wgt>
  <wgt id="492">2.9788e-12</wgt>
  <wgt id="493">2.5835e-12</wgt>
  <wgt id="494">2.5607e-12</wgt>
  <wgt id="495">3.16062e-12</wgt>
  <wgt id="496">2.68924e-12</wgt>
  <wgt id="497">2.76057e-12</wgt>
  <wgt id="498">3.09493e-12</wgt>
  <wgt id="499">3.13325e-12</wgt>
  <wgt id="500">3.18729e-12</wgt>
  <wgt id="501">3.24949e-12</wgt>
  <wgt id="502">3.43072e-12</wgt>
  <wgt id="503">2.9116e-12</wgt>
  <wgt id="504">3.15728e-12</wgt>
  <wgt id="505">3.30543e-12</wgt>
  <wgt id="506">2.52076e-12</wgt>
  <wgt id="507">2.78376e-12</wgt>
  <wgt id="508">3.23816e-12</wgt>
  <wgt id="509">3.04522e-12</wgt>
  <wgt id="510">2.93927e-12</wgt>
  <wgt id="511">2.81961e-12</wgt>
  <wgt id="512">3.38219e-12</wgt>
  <wgt id="513">3.3169e-12</wgt>
  <wgt id="514">3.43682e-12</wgt>
  <wgt id="515">3.3755e-12</wgt>
  <wgt id="516">3.54336e-12</wgt>
  <wgt id="517">3.11045e-12</wgt>
  <wgt id="518">3.29595e-12</wgt>
  <wgt id="519">2.93578e-12</wgt>
  <wgt id="520">2.90554e-12</wgt>
  <wgt id="521">2.78781e-12</wgt>
  <wgt id="522">3.06388e-12</wgt>
  <wgt id="523">2.88015e-12</wgt>
  <wgt id="524">3.20866e-12</wgt>
  <wgt id="525">2.87174e-12</wgt>
  <wgt id="526">3.36662e-12</wgt>
  <wgt id="527">2.99077e-12</wgt>
  <wgt id="528">2.87631e-12</wgt>
  <wgt id="529">2.59893e-12</wgt>
  <wgt id="530">3.31194e-12</wgt>
  <wgt id="531">2.82382e-12</wgt>
  <wgt id="532">3.31921e-12</wgt>
  <wgt id="533">3.18469e-12</wgt>
  <wgt id="534">2.71523e-12</wgt>
  <wgt id="535">3.21828e-12</wgt>
  <wgt id="536">3.27945e-12</wgt>
  <wgt id="537">2.68571e-12</wgt>
  <wgt id="538">2.97466e-12</wgt>
  <wgt id="539">2.95025e-12</wgt>
  <wgt id="540">3.01757e-12</wgt>
  <wgt id="541">3.01104e-12</wgt>
  <wgt id="542">2.79221e-12</wgt>
  <wgt id="543">2.75434e-12</wgt>
  <wgt id="544">2.98524e-12</wgt>
  <wgt id="545">2.72045e-12</wgt>
  <wgt id="546">2.66354e-12</wgt>
  <wgt id="547">2.80881e-12</wgt>
  <wgt id="548">3.07603e-12</wgt>
  <wgt id="549">2.96507e-12</wgt>
  <wgt id="550">2.64636e-12</wgt>
  <wgt id="551">2.91144e-12</wgt>
  <wgt id="552">2.95909e-12</wgt>
  <wgt id="553">2.6182e-12</wgt>
  <wgt id="554">3.09837e-12</wgt>
  <wgt id="555">3.05505e-12</wgt>
  <wgt id="556">3.08207e-12</wgt>
  <wgt id="557">2.9642e-12</wgt>
  <wgt id="558">3.02544e-12</wgt>
  <wgt id="559">3.19449e-12</wgt>
  <wgt id="560">3.33985e-12</wgt>
  <wgt id="561">3.34638e-12</wgt>
  <wgt id="562">3.17755e-12</wgt>
  <wgt id="563">3.27907e-12</wgt>
  <wgt id="564">3.35129e-12</wgt>
  <wgt id="565">3.45981e-12</wgt>
  <wgt id="566">2.63996e-12</wgt>
  <wgt id="567">3.13256e-12</wgt>
  <wgt id="568">2.71765e-12</wgt>
  <wgt id="569">3.09609e-12</wgt>
  <wgt id="570">3.28246e-12</wgt>
  <wgt id="571">3.44688e-12</wgt>
  <wgt id="572">2.77071e-12</wgt>
  <wgt id="573">2.94839e-12</wgt>
  <wgt id="574">3.02509e-12</wgt>
  <wgt id="575">3.30806e-12</wgt>
  <wgt id="576">3.81139e-12</wgt>
  <wgt id="577">3.30407e-12</wgt>
  <wgt id="578">3.08619e-12</wgt>
  <wgt id="579">3.44524e-12</wgt>
  <wgt id="580">3.41839e-12</wgt>
  <wgt id="581">3.67436e-12</wgt>
  <wgt id="582">3.65619e-12</wgt>
  <wgt id="583">3.53513e-12</wgt>
  <wgt id="584">3.30991e-12</wgt>
  <wgt id="585">2.91993e-12</wgt>
  <wgt id="586">3.03535e-12</wgt>
  <wgt id="587">3.3927e-12</wgt>
  <wgt id="588">4.08123e-12</wgt>
  <wgt id="589">3.91375e-12</wgt>
  <wgt id="590">3.39348e-12</wgt>
  <wgt id="591">3.43818e-12</wgt>
  <wgt id="592">3.23163e-12</wgt>
  <wgt id="593">3.15469e-12</wgt>
  <wgt id="594">3.04514e-12</wgt>
  <wgt id="595">3.77728e-12</wgt>
  <wgt id="596">3.8187e-12</wgt>
  <wgt id="597">3.38867e-12</wgt>
  <wgt id="598">3.61367e-12</wgt>
  <wgt id="599">3.69753e-12</wgt>
  <wgt id="600">3.98582e-12</wgt>
  <wgt id="601">3.12531e-12</wgt>
  <wgt id="602">3.02396e-12</wgt>
  <wgt id="603">2.8898e-12</wgt>
  <wgt id="604">3.56302e-12</wgt>
  <wgt id="605">3.19807e-12</wgt>
  <wgt id="606">3.17029e-12</wgt>
  <wgt id="607">3.66318e-12</wgt>
  <wgt id="608">3.41476e-12</wgt>
  <wgt id="609">3.17322e-12</wgt>
  <wgt id="610">3.02969e-12</wgt>
  <wgt id="611">2.99808e-12</wgt>
  <wgt id="612">3.27318e-12</wgt>
  <wgt id="613">3.02066e-12</wgt>
  <wgt id="614">3.34168e-12</wgt>
  <wgt id="615">3.58466e-12</wgt>
  <wgt id="616">2.80656e-12</wgt>
  <wgt id="617">3.48745e-12</wgt>
  <wgt id="618">3.70281e-12</wgt>
  <wgt id="619">3.24762e-12</wgt>
  <wgt id="620">3.34983e-12</wgt>
  <wgt id="621">3.26128e-12</wgt>
  <wgt id="622">3.3927e-12</wgt>
  <wgt id="623">3.22436e-12</wgt>
  <wgt id="624">3.23383e-12</wgt>
  <wgt id="625">3.07225e-12</wgt>
  <wgt id="626">2.39379e-12</wgt>
  <wgt id="627">2.80051e-12</wgt>
  <wgt id="628">3.27651e-12</wgt>
  <wgt id="629">3.99922e-12</wgt>
  <wgt id="630">3.31377e-12</wgt>
  <wgt id="631">3.59655e-12</wgt>
  <wgt id="632">2.95135e-12</wgt>
  <wgt id="633">3.27653e-12</wgt>
  <wgt id="634">3.03653e-12</wgt>
  <wgt id="635">3.0684e-12</wgt>
  <wgt id="636">3.1984e-12</wgt>
  <wgt id="637">3.43382e-12</wgt>
  <wgt id="638">3.06681e-12</wgt>
  <wgt id="639">2.99066e-12</wgt>
  <wgt id="640">3.04987e-12</wgt>
  <wgt id="641">3.59886e-12</wgt>
  <wgt id="642">2.69662e-12</wgt>
  <wgt id="643">3.14792e-12</wgt>
  <wgt id="644">3.03236e-12</wgt>
  <wgt id="645">3.36037e-12</wgt>
  <wgt id="646">2.68619e-12</wgt>
  <wgt id="647">3.58167e-12</wgt>
  <wgt id="648">3.67746e-12</wgt>
  <wgt id="649">3.40719e-12</wgt>
  <wgt id="650">3.30917e-12</wgt>
  <wgt id="651">3.50574e-12</wgt>
  <wgt id="652">3.07031e-12</wgt>
  <wgt id="653">3.1327e-12</wgt>
  <wgt id="654">3.29182e-12</wgt>
  <wgt id="655">2.92292e-12</wgt>
  <wgt id="656">3.40909e-12</wgt>
  <wgt id="657">3.74749e-12</wgt>
  <wgt id="658">3.19318e-12</wgt>
  <wgt id="659">3.20954e-12</wgt>
  <wgt id="660">2.95069e-12</wgt>
  <wgt id="661">3.13649e-12</wgt>
  <wgt id="662">3.28933e-12</wgt>
  <wgt id="663">3.4758e-12</wgt>
  <wgt id="664">3.55677e-12</wgt>
  <wgt id="665">3.15791e-12</wgt>
  <wgt id="666">3.17544e-12</wgt>
  <wgt id="667">3.51884e-12</wgt>
  <wgt id="668">3.19684e-12</wgt>
  <wgt id="669">3.15751e-12</wgt>
  <wgt id="670">3.58368e-12</wgt>
  <wgt id="671">3.42024e-12</wgt>
  <wgt id="672">3.52144e-12</wgt>
  <wgt id="673">3.76157e-12</wgt>
  <wgt id="674">3.12781e-12</wgt>
  <wgt id="675">3.02155e-12</wgt>
  <wgt id="676">4.40597e-12</wgt>
  <wgt id="677">4.38084e-12</wgt>
  <wgt id="678">5.13901e-12</wgt>
  <wgt id="679">5.08625e-12</wgt>
  <wgt id="680">4.51031e-12</wgt>
  <wgt id="681">4.16195e-12</wgt>
  <wgt id="682">4.75926e-12</wgt>
  <wgt id="683">3.74089e-12</wgt>
  <wgt id="684">4.90523e-12</wgt>
  <wgt id="685">4.56735e-12</wgt>
  <wgt id="686">4.80287e-12</wgt>
  <wgt id="687">4.39342e-12</wgt>
  <wgt id="688">4.29546e-12</wgt>
  <wgt id="689">4.87545e-12</wgt>
  <wgt id="690">4.66291e-12</wgt>
  <wgt id="691">4.55825e-12</wgt>
  <wgt id="692">4.16289e-12</wgt>
  <wgt id="693">6.91125e-12</wgt>
  <wgt id="694">5.16817e-12</wgt>
  <wgt id="695">3.77003e-12</wgt>
  <wgt id="696">3.90521e-12</wgt>
  <wgt id="697">3.50289e-12</wgt>
  <wgt id="698">3.13751e-12</wgt>
  <wgt id="699">3.54923e-12</wgt>
  <wgt id="700">3.7522e-12</wgt>
  <wgt id="701">4.43416e-12</wgt>
  <wgt id="702">3.96327e-12</wgt>
  <wgt id="703">6.30364e-12</wgt>
  <wgt id="704">5.16438e-12</wgt>
  <wgt id="705">4.99143e-12</wgt>
  <wgt id="706">3.74454e-12</wgt>
  <wgt id="707">3.93677e-12</wgt>
  <wgt id="708">3.90036e-12</wgt>
  <wgt id="709">4.07633e-12</wgt>
  <wgt id="710">2.76442e-12</wgt>
  <wgt id="711">5.10782e-12</wgt>
  <wgt id="712">4.01571e-12</wgt>
  <wgt id="713">4.77875e-12</wgt>
  <wgt id="714">3.54501e-12</wgt>
  <wgt id="715">3.92243e-12</wgt>
  <wgt id="716">4.11858e-12</wgt>
  <wgt id="717">3.30838e-12</wgt>
  <wgt id="718">4.50037e-12</wgt>
  <wgt id="719">4.06877e-12</wgt>
  <wgt id="720">4.77078e-12</wgt>
  <wgt id="721">3.60173e-12</wgt>
  <wgt id="722">2.67166e-12</wgt>
  <wgt id="723">5.47537e-12</wgt>
  <wgt id="724">5.0104e-12</wgt>
  <wgt id="725">4.74101e-12</wgt>
  <wgt id="726">4.34536e-12</wgt>
  <wgt id="727">4.55988e-12</wgt>
  <wgt id="728">4.77012e-12</wgt>
  <wgt id="729">3.35208e-12</wgt>
  <wgt id="730">5.19362e-12</wgt>
  <wgt id="731">4.39829e-12</wgt>
  <wgt id="732">5.43622e-12</wgt>
  <wgt id="733">3.85464e-12</wgt>
  <wgt id="734">4.66291e-12</wgt>
  <wgt id="735">4.11062e-12</wgt>
  <wgt id="736">3.82185e-12</wgt>
  <wgt id="737">3.14976e-12</wgt>
  <wgt id="738">4.07105e-12</wgt>
  <wgt id="739">4.44477e-12</wgt>
  <wgt id="740">5.85016e-12</wgt>
  <wgt id="741">5.15555e-12</wgt>
  <wgt id="742">3.67366e-12</wgt>
  <wgt id="743">3.87486e-12</wgt>
  <wgt id="744">4.15535e-12</wgt>
  <wgt id="745">5.25647e-12</wgt>
  <wgt id="746">5.44382e-12</wgt>
  <wgt id="747">3.37582e-12</wgt>
  <wgt id="748">4.08065e-12</wgt>
  <wgt id="749">4.82649e-12</wgt>
  <wgt id="750">4.94863e-12</wgt>
  <wgt id="751">4.53789e-12</wgt>
  <wgt id="752">3.78406e-12</wgt>
  <wgt id="753">3.67459e-12</wgt>
  <wgt id="754">4.60185e-12</wgt>
  <wgt id="755">4.10761e-12</wgt>
  <wgt id="756">4.0918e-12</wgt>
  <wgt id="757">3.50752e-12</wgt>
  <wgt id="758">4.27079e-12</wgt>
  <wgt id="759">4.7557e-12</wgt>
  <wgt id="760">3.91332e-12</wgt>
  <wgt id="761">5.33138e-12</wgt>
  <wgt id="762">5.38764e-12</wgt>
  <wgt id="763">5.07881e-12</wgt>
  <wgt id="764">5.06567e-12</wgt>
  <wgt id="765">4.56388e-12</wgt>
  <wgt id="766">4.69639e-12</wgt>
  <wgt id="767">4.63171e-12</wgt>
  <wgt id="768">3.77626e-12</wgt>
  <wgt id="769">4.57307e-12</wgt>
  <wgt id="770">3.51764e-12</wgt>
  <wgt id="771">6.04601e-12</wgt>
  <wgt id="772">4.14428e-12</wgt>
  <wgt id="773">4.64868e-12</wgt>
  <wgt id="774">3.22539e-12</wgt>
  <wgt id="775">4.7401e-12</wgt>
  <wgt id="776">5.95235e-12</wgt>
  <wgt id="777">3.23309e-12</wgt>
  <wgt id="778">2.24285e-12</wgt>
  <wgt id="779">4.76227e-13</wgt>
  <wgt id="780">2.13107e-20</wgt>
  <wgt id="781">2.26144e-12</wgt>
  <wgt id="782">2.82256e-12</wgt>
  <wgt id="783">2.17388e-20</wgt>
  <wgt id="784">4.60223e-13</wgt>
  <wgt id="785">4.26103e-12</wgt>
  <wgt id="786">2.10638e-20</wgt>
  <wgt id="787">3.71887e-12</wgt>
  <wgt id="788">2.05999e-20</wgt>
  <wgt id="789">3.1945e-13</wgt>
  <wgt id="790">2.10814e-20</wgt>
  <wgt id="791">2.71105e-12</wgt>
  <wgt id="792">3.27762e-12</wgt>
  <wgt id="793">1.34245e-12</wgt>
  <wgt id="794">2.1351e-20</wgt>
  <wgt id="795">4.0911e-12</wgt>
  <wgt id="796">4.11335e-12</wgt>
  <wgt id="797">3.40713e-12</wgt>
  <wgt id="798">9.65837e-13</wgt>
  <wgt id="799">3.92001e-12</wgt>
  <wgt id="800">9.84521e-13</wgt>
  <wgt id="801">3.12608e-12</wgt>
  <wgt id="802">2.16725e-20</wgt>
  <wgt id="803">4.21568e-12</wgt>
  <wgt id="804">4.16863e-12</wgt>
  <wgt id="805">4.01215e-12</wgt>
  <wgt id="806">2.97091e-12</wgt>
  <wgt id="807">2.29863e-12</wgt>
  <wgt id="808">2.52117e-12</wgt>
  <wgt id="809">1.6197e-12</wgt>
  <wgt id="810">4.80929e-12</wgt>
  <wgt id="811">2.62056e-12</wgt>
  <wgt id="812">2.16015e-20</wgt>
  <wgt id="813">2.11028e-20</wgt>
  <wgt id="814">8.55237e-13</wgt>
  <wgt id="815">2.15045e-20</wgt>
  <wgt id="816">2.10452e-13</wgt>
  <wgt id="817">2.61696e-12</wgt>
  <wgt id="818">3.84866e-12</wgt>
  <wgt id="819">3.90842e-13</wgt>
  <wgt id="820">1.74341e-12</wgt>
  <wgt id="821">3.3193e-12</wgt>
  <wgt id="822">1.21029e-12</wgt>
  <wgt id="823">3.81896e-12</wgt>
  <wgt id="824">3.8303e-12</wgt>
  <wgt id="825">2.11964e-20</wgt>
  <wgt id="826">4.03293e-12</wgt>
  <wgt id="827">2.09685e-20</wgt>
  <wgt id="828">3.29205e-12</wgt>
  <wgt id="829">2.47598e-12</wgt>
  <wgt id="830">2.10793e-20</wgt>
  <wgt id="831">3.4041e-12</wgt>
  <wgt id="832">5.4805e-12</wgt>
  <wgt id="833">1.2626e-12</wgt>
  <wgt id="834">5.54883e-12</wgt>
  <wgt id="835">5.12964e-13</wgt>
  <wgt id="836">9.75858e-13</wgt>
  <wgt id="837">3.24042e-12</wgt>
  <wgt id="838">9.05221e-13</wgt>
  <wgt id="839">3.64543e-12</wgt>
  <wgt id="840">1.70518e-12</wgt>
  <wgt id="841">3.93022e-12</wgt>
  <wgt id="842">2.48009e-12</wgt>
  <wgt id="843">2.28243e-12</wgt>
  <wgt id="844">3.15196e-12</wgt>
  <wgt id="845">5.67073e-12</wgt>
  <wgt id="846">1.30638e-12</wgt>
  <wgt id="847">2.83491e-12</wgt>
  <wgt id="848">2.20213e-20</wgt>
  <wgt id="849">3.14862e-12</wgt>
  <wgt id="850">5.04391e-12</wgt>
  <wgt id="851">3.35247e-12</wgt>
  <wgt id="852">2.13807e-20</wgt>
  <wgt id="853">3.52767e-12</wgt>
  <wgt id="854">4.46977e-12</wgt>
  <wgt id="855">3.27231e-12</wgt>
  <wgt id="856">2.10747e-20</wgt>
  <wgt id="857">1.19586e-12</wgt>
  <wgt id="858">2.59088e-12</wgt>
  <wgt id="859">2.14088e-12</wgt>
  <wgt id="860">3.0671e-12</wgt>
  <wgt id="861">1.14647e-12</wgt>
  <wgt id="862">2.66464e-12</wgt>
  <wgt id="863">3.30042e-12</wgt>
  <wgt id="864">2.28797e-12</wgt>
  <wgt id="865">5.09622e-12</wgt>
  <wgt id="866">5.36955e-12</wgt>
  <wgt id="867">2.30863e-12</wgt>
  <wgt id="868">2.99576e-12</wgt>
  <wgt id="869">2.13126e-20</wgt>
  <wgt id="870">7.91287e-13</wgt>
  <wgt id="871">1.37979e-12</wgt>
  <wgt id="872">4.92221e-12</wgt>
  <wgt id="873">1.27613e-12</wgt>
  <wgt id="874">3.07369e-12</wgt>
  <wgt id="875">7.94104e-13</wgt>
  <wgt id="876">4.45607e-12</wgt>
  <wgt id="877">3.09539e-12</wgt>
  <wgt id="878">1.20533e-12</wgt>
  <wgt id="879">4.40597e-12</wgt>
  <wgt id="880">4.38084e-12</wgt>
  <wgt id="881">5.13901e-12</wgt>
  <wgt id="882">5.08625e-12</wgt>
  <wgt id="883">4.51031e-12</wgt>
  <wgt id="884">4.16195e-12</wgt>
  <wgt id="885">4.75926e-12</wgt>
  <wgt id="886">3.74089e-12</wgt>
  <wgt id="887">4.90523e-12</wgt>
  <wgt id="888">4.56735e-12</wgt>
  <wgt id="889">4.80287e-12</wgt>
  <wgt id="890">4.39342e-12</wgt>
  <wgt id="891">4.29546e-12</wgt>
  <wgt id="892">4.87545e-12</wgt>
  <wgt id="893">4.66291e-12</wgt>
  <wgt id="894">4.55825e-12</wgt>
  <wgt id="895">4.16289e-12</wgt>
  <wgt id="896">6.91125e-12</wgt>
  <wgt id="897">5.16817e-12</wgt>
  <wgt id="898">3.77003e-12</wgt>
  <wgt id="899">3.90521e-12</wgt>
  <wgt id="900">3.50289e-12</wgt>
  <wgt id="901">3.13751e-12</wgt>
  <wgt id="902">3.54923e-12</wgt>
  <wgt id="903">3.7522e-12</wgt>
  <wgt id="904">4.43416e-12</wgt>
  <wgt id="905">3.96327e-12</wgt>
  <wgt id="906">6.30364e-12</wgt>
  <wgt id="907">5.16438e-12</wgt>
  <wgt id="908">4.99143e-12</wgt>
  <wgt id="909">3.74454e-12</wgt>
  <wgt id="910">3.93677e-12</wgt>
  <wgt id="911">3.90036e-12</wgt>
  <wgt id="912">4.07633e-12</wgt>
  <wgt id="913">2.76442e-12</wgt>
  <wgt id="914">5.10782e-12</wgt>
  <wgt id="915">4.01571e-12</wgt>
  <wgt id="916">4.77875e-12</wgt>
  <wgt id="917">3.54501e-12</wgt>
  <wgt id="918">3.92243e-12</wgt>
  <wgt id="919">4.11858e-12</wgt>
  <wgt id="920">3.30838e-12</wgt>
  <wgt id="921">4.50037e-12</wgt>
  <wgt id="922">4.06877e-12</wgt>
  <wgt id="923">4.77078e-12</wgt>
  <wgt id="924">3.60173e-12</wgt>
  <wgt id="925">2.67166e-12</wgt>
  <wgt id="926">5.47537e-12</wgt>
  <wgt id="927">5.0104e-12</wgt>
  <wgt id="928">4.74101e-12</wgt>
  <wgt id="929">4.34536e-12</wgt>
  <wgt id="930">4.55988e-12</wgt>
  <wgt id="931">4.77012e-12</wgt>
  <wgt id="932">3.35208e-12</wgt>
  <wgt id="933">5.19362e-12</wgt>
  <wgt id="934">4.39829e-12</wgt>
  <wgt id="935">5.43622e-12</wgt>
  <wgt id="936">3.85464e-12</wgt>
  <wgt id="937">4.66291e-12</wgt>
  <wgt id="938">4.11062e-12</wgt>
  <wgt id="939">3.82185e-12</wgt>
  <wgt id="940">3.14976e-12</wgt>
  <wgt id="941">4.07105e-12</wgt>
  <wgt id="942">4.44477e-12</wgt>
  <wgt id="943">5.85016e-12</wgt>
  <wgt id="944">5.15555e-12</wgt>
  <wgt id="945">3.67366e-12</wgt>
  <wgt id="946">3.87486e-12</wgt>
  <wgt id="947">4.15535e-12</wgt>
  <wgt id="948">5.25647e-12</wgt>
  <wgt id="949">5.44382e-12</wgt>
  <wgt id="950">3.37582e-12</wgt>
  <wgt id="951">4.08065e-12</wgt>
  <wgt id="952">4.82649e-12</wgt>
  <wgt id="953">4.94863e-12</wgt>
  <wgt id="954">4.53789e-12</wgt>
  <wgt id="955">3.78406e-12</wgt>
  <wgt id="956">3.67459e-12</wgt>
  <wgt id="957">4.60185e-12</wgt>
  <wgt id="958">4.10761e-12</wgt>
  <wgt id="959">4.0918e-12</wgt>
  <wgt id="960">3.50752e-12</wgt>
  <wgt id="961">4.27079e-12</wgt>
  <wgt id="962">4.7557e-12</wgt>
  <wgt id="963">3.91332e-12</wgt>
  <wgt id="964">5.33138e-12</wgt>
  <wgt id="965">5.38764e-12</wgt>
  <wgt id="966">5.07881e-12</wgt>
  <wgt id="967">5.06567e-12</wgt>
  <wgt id="968">4.56388e-12</wgt>
  <wgt id="969">4.69639e-12</wgt>
  <wgt id="970">4.63171e-12</wgt>
  <wgt id="971">3.77626e-12</wgt>
  <wgt id="972">4.57307e-12</wgt>
  <wgt id="973">3.51764e-12</wgt>
  <wgt id="974">6.04601e-12</wgt>
  <wgt id="975">4.14428e-12</wgt>
  <wgt id="976">4.64868e-12</wgt>
  <wgt id="977">3.22539e-12</wgt>
  <wgt id="978">4.7401e-12</wgt>
  <wgt id="979">5.95235e-12</wgt>
  <wgt id="980">4.35977e-12</wgt>
  <wgt id="981">4.65791e-12</wgt>
  <wgt id="982">4.34667e-12</wgt>
</rwgt>
</event>
<event>
 5   1  0.3028200E-11  0.2420511E+04  0.7818608E-02  0.7670564E-01
       21   -1    0    0  502  501  0.00000000000E+00  0.00000000000E+00  0.10345023997E+04  0.10345023997E+04  0.00000000000E+00 0. -1.
       21   -1    0    0  501  502 -0.00000000000E+00 -0.00000000000E+00 -0.14158670156E+04  0.14158670156E+04  0.00000000000E+00 0.  1.
       39    2    1    2    0    0  0.00000000000E+00  0.00000000000E+00 -0.38136461591E+03  0.24503694154E+04  0.24205105456E+04 0.  0.
       25    1    3    3    0    0 -0.58369664229E+03 -0.78099491130E+03  0.52402818465E+03  0.11139503400E+04  0.12500000000E+03 0.  0.
       25    1    3    3    0    0  0.58369664229E+03  0.78099491130E+03 -0.90539280057E+03  0.13364190754E+04  0.12500000000E+03 0.  0.
<mgrwt>
<rscale>  0 0.24205105E+04</rscale>
<asrwt>0</asrwt>
<pdfrwt beam="1">  1       21 0.15915422E+00 0.24205105E+04</pdfrwt>
<pdfrwt beam="2">  1       21 0.21782569E+00 0.24205105E+04</pdfrwt>
<totfact> 0.94351915E+00</totfact>
</mgrwt>
<rwgt>
  <wgt id="1">3.0282e-12</wgt>
  <wgt id="2">2.63003e-12</wgt>
  <wgt id="3">3.52385e-12</wgt>
  <wgt id="4">3.0282e-12</wgt>
  <wgt id="5">2.63003e-12</wgt>
  <wgt id="6">3.52385e-12</wgt>
  <wgt id="7">3.0282e-12</wgt>
  <wgt id="8">2.63003e-12</wgt>
  <wgt id="9">3.52385e-12</wgt>
  <wgt id="10">3.14593e-12</wgt>
  <wgt id="11">3.14285e-12</wgt>
  <wgt id="12">3.13973e-12</wgt>
  <wgt id="13">3.13507e-12</wgt>
  <wgt id="14">3.15764e-12</wgt>
  <wgt id="15">3.15083e-12</wgt>
  <wgt id="16">3.13996e-12</wgt>
  <wgt id="17">3.15162e-12</wgt>
  <wgt id="18">3.13955e-12</wgt>
  <wgt id="19">3.15343e-12</wgt>
  <wgt id="20">3.13649e-12</wgt>
  <wgt id="21">3.12674e-12</wgt>
  <wgt id="22">3.13423e-12</wgt>
  <wgt id="23">3.11691e-12</wgt>
  <wgt id="24">3.13156e-12</wgt>
  <wgt id="25">3.13854e-12</wgt>
  <wgt id="26">3.1591e-12</wgt>
  <wgt id="27">3.14586e-12</wgt>
  <wgt id="28">3.13159e-12</wgt>
  <wgt id="29">3.14865e-12</wgt>
  <wgt id="30">3.13831e-12</wgt>
  <wgt id="31">3.15462e-12</wgt>
  <wgt id="32">3.14172e-12</wgt>
  <wgt id="33">3.15423e-12</wgt>
  <wgt id="34">3.13565e-12</wgt>
  <wgt id="35">3.1447e-12</wgt>
  <wgt id="36">3.15711e-12</wgt>
  <wgt id="37">3.13776e-12</wgt>
  <wgt id="38">3.13602e-12</wgt>
  <wgt id="39">3.17847e-12</wgt>
  <wgt id="40">3.15201e-12</wgt>
  <wgt id="41">3.14523e-12</wgt>
  <wgt id="42">3.15165e-12</wgt>
  <wgt id="43">3.14577e-12</wgt>
  <wgt id="44">3.13748e-12</wgt>
  <wgt id="45">3.15386e-12</wgt>
  <wgt id="46">3.15139e-12</wgt>
  <wgt id="47">3.13511e-12</wgt>
  <wgt id="48">3.14574e-12</wgt>
  <wgt id="49">3.14927e-12</wgt>
  <wgt id="50">3.16198e-12</wgt>
  <wgt id="51">3.15941e-12</wgt>
  <wgt id="52">3.14528e-12</wgt>
  <wgt id="53">3.12196e-12</wgt>
  <wgt id="54">3.13897e-12</wgt>
  <wgt id="55">3.14583e-12</wgt>
  <wgt id="56">3.15765e-12</wgt>
  <wgt id="57">3.15584e-12</wgt>
  <wgt id="58">3.12455e-12</wgt>
  <wgt id="59">3.13458e-12</wgt>
  <wgt id="60">3.14703e-12</wgt>
  <wgt id="61">3.13532e-12</wgt>
  <wgt id="62">3.14278e-12</wgt>
  <wgt id="63">3.14748e-12</wgt>
  <wgt id="64">3.14905e-12</wgt>
  <wgt id="65">3.14979e-12</wgt>
  <wgt id="66">3.14137e-12</wgt>
  <wgt id="67">3.13753e-12</wgt>
  <wgt id="68">3.14274e-12</wgt>
  <wgt id="69">3.14595e-12</wgt>
  <wgt id="70">3.14406e-12</wgt>
  <wgt id="71">3.14552e-12</wgt>
  <wgt id="72">3.14124e-12</wgt>
  <wgt id="73">3.14833e-12</wgt>
  <wgt id="74">3.1482e-12</wgt>
  <wgt id="75">3.14281e-12</wgt>
  <wgt id="76">3.15488e-12</wgt>
  <wgt id="77">3.1452e-12</wgt>
  <wgt id="78">3.14626e-12</wgt>
  <wgt id="79">3.15267e-12</wgt>
  <wgt id="80">3.13226e-12</wgt>
  <wgt id="81">3.14246e-12</wgt>
  <wgt id="82">3.14601e-12</wgt>
  <wgt id="83">3.13303e-12</wgt>
  <wgt id="84">3.13965e-12</wgt>
  <wgt id="85">3.13919e-12</wgt>
  <wgt id="86">3.1547e-12</wgt>
  <wgt id="87">3.12862e-12</wgt>
  <wgt id="88">3.14986e-12</wgt>
  <wgt id="89">3.14899e-12</wgt>
  <wgt id="90">3.1515e-12</wgt>
  <wgt id="91">3.14864e-12</wgt>
  <wgt id="92">3.15227e-12</wgt>
  <wgt id="93">3.14623e-12</wgt>
  <wgt id="94">3.14273e-12</wgt>
  <wgt id="95">3.1492e-12</wgt>
  <wgt id="96">3.14844e-12</wgt>
  <wgt id="97">3.14082e-12</wgt>
  <wgt id="98">3.14742e-12</wgt>
  <wgt id="99">3.14313e-12</wgt>
  <wgt id="100">3.14932e-12</wgt>
  <wgt id="101">3.1453e-12</wgt>
  <wgt id="102">3.14269e-12</wgt>
  <wgt id="103">3.15061e-12</wgt>
  <wgt id="104">3.14384e-12</wgt>
  <wgt id="105">3.14965e-12</wgt>
  <wgt id="106">3.14133e-12</wgt>
  <wgt id="107">3.15502e-12</wgt>
  <wgt id="108">3.14251e-12</wgt>
  <wgt id="109">3.14671e-12</wgt>
  <wgt id="110">3.14583e-12</wgt>
  <wgt id="111">3.17423e-12</wgt>
  <wgt id="112">3.14786e-12</wgt>
  <wgt id="113">4.28661e-12</wgt>
  <wgt id="114">4.39536e-12</wgt>
  <wgt id="115">4.3336e-12</wgt>
  <wgt id="116">6.15184e-12</wgt>
  <wgt id="117">3.5245e-12</wgt>
  <wgt id="118">3.53744e-12</wgt>
  <wgt id="119">3.5171e-12</wgt>
  <wgt id="120">3.52475e-12</wgt>
  <wgt id="121">3.52439e-12</wgt>
  <wgt id="122">3.5183e-12</wgt>
  <wgt id="123">3.53279e-12</wgt>
  <wgt id="124">3.51947e-12</wgt>
  <wgt id="125">3.52764e-12</wgt>
  <wgt id="126">3.53116e-12</wgt>
  <wgt id="127">3.52008e-12</wgt>
  <wgt id="128">3.53552e-12</wgt>
  <wgt id="129">3.51356e-12</wgt>
  <wgt id="130">3.54514e-12</wgt>
  <wgt id="131">3.50343e-12</wgt>
  <wgt id="132">3.43109e-12</wgt>
  <wgt id="133">3.63526e-12</wgt>
  <wgt id="134">3.48572e-12</wgt>
  <wgt id="135">3.55487e-12</wgt>
  <wgt id="136">3.5712e-12</wgt>
  <wgt id="137">3.46792e-12</wgt>
  <wgt id="138">3.6655e-12</wgt>
  <wgt id="139">3.38854e-12</wgt>
  <wgt id="140">3.50169e-12</wgt>
  <wgt id="141">3.54222e-12</wgt>
  <wgt id="142">3.52489e-12</wgt>
  <wgt id="143">3.52996e-12</wgt>
  <wgt id="144">3.41788e-12</wgt>
  <wgt id="145">3.62417e-12</wgt>
  <wgt id="146">3.5586e-12</wgt>
  <wgt id="147">3.49729e-12</wgt>
  <wgt id="148">3.5357e-12</wgt>
  <wgt id="149">3.52366e-12</wgt>
  <wgt id="150">3.55546e-12</wgt>
  <wgt id="151">3.51009e-12</wgt>
  <wgt id="152">3.52626e-12</wgt>
  <wgt id="153">3.52377e-12</wgt>
  <wgt id="154">3.55079e-12</wgt>
  <wgt id="155">3.49246e-12</wgt>
  <wgt id="156">3.60152e-12</wgt>
  <wgt id="157">3.44569e-12</wgt>
  <wgt id="158">4.23852e-12</wgt>
  <wgt id="159">4.25641e-12</wgt>
  <wgt id="160">4.22442e-12</wgt>
  <wgt id="161">4.22762e-12</wgt>
  <wgt id="162">4.25108e-12</wgt>
  <wgt id="163">4.23376e-12</wgt>
  <wgt id="164">4.24583e-12</wgt>
  <wgt id="165">4.24025e-12</wgt>
  <wgt id="166">4.23733e-12</wgt>
  <wgt id="167">4.23551e-12</wgt>
  <wgt id="168">4.24309e-12</wgt>
  <wgt id="169">4.22059e-12</wgt>
  <wgt id="170">4.24988e-12</wgt>
  <wgt id="171">4.23384e-12</wgt>
  <wgt id="172">4.24544e-12</wgt>
  <wgt id="173">4.2377e-12</wgt>
  <wgt id="174">4.23888e-12</wgt>
  <wgt id="175">4.117e-12</wgt>
  <wgt id="176">4.39759e-12</wgt>
  <wgt id="177">4.262e-12</wgt>
  <wgt id="178">4.21721e-12</wgt>
  <wgt id="179">4.42294e-12</wgt>
  <wgt id="180">3.94873e-12</wgt>
  <wgt id="181">4.11129e-12</wgt>
  <wgt id="182">4.32272e-12</wgt>
  <wgt id="183">4.16099e-12</wgt>
  <wgt id="184">4.2772e-12</wgt>
  <wgt id="185">4.20315e-12</wgt>
  <wgt id="186">4.2821e-12</wgt>
  <wgt id="187">4.19949e-12</wgt>
  <wgt id="188">4.3091e-12</wgt>
  <wgt id="189">4.21024e-12</wgt>
  <wgt id="190">4.2502e-12</wgt>
  <wgt id="191">4.25061e-12</wgt>
  <wgt id="192">4.23151e-12</wgt>
  <wgt id="193">4.30133e-12</wgt>
  <wgt id="194">4.20768e-12</wgt>
  <wgt id="195">4.12394e-12</wgt>
  <wgt id="196">4.43815e-12</wgt>
  <wgt id="197">4.26037e-12</wgt>
  <wgt id="198">4.23351e-12</wgt>
  <wgt id="199">4.23852e-12</wgt>
  <wgt id="200">4.27572e-12</wgt>
  <wgt id="201">4.26238e-12</wgt>
  <wgt id="202">4.24915e-12</wgt>
  <wgt id="203">4.2295e-12</wgt>
  <wgt id="204">4.22009e-12</wgt>
  <wgt id="205">4.21255e-12</wgt>
  <wgt id="206">4.1042e-12</wgt>
  <wgt id="207">4.12836e-12</wgt>
  <wgt id="208">4.08047e-12</wgt>
  <wgt id="209">4.11779e-12</wgt>
  <wgt id="210">4.09461e-12</wgt>
  <wgt id="211">4.10271e-12</wgt>
  <wgt id="212">4.10554e-12</wgt>
  <wgt id="213">4.10402e-12</wgt>
  <wgt id="214">4.10484e-12</wgt>
  <wgt id="215">4.10753e-12</wgt>
  <wgt id="216">4.10202e-12</wgt>
  <wgt id="217">4.11619e-12</wgt>
  <wgt id="218">4.09504e-12</wgt>
  <wgt id="219">4.10066e-12</wgt>
  <wgt id="220">4.10667e-12</wgt>
  <wgt id="221">4.1028e-12</wgt>
  <wgt id="222">4.10813e-12</wgt>
  <wgt id="223">3.88307e-12</wgt>
  <wgt id="224">4.30602e-12</wgt>
  <wgt id="225">4.05379e-12</wgt>
  <wgt id="226">4.16792e-12</wgt>
  <wgt id="227">4.06494e-12</wgt>
  <wgt id="228">4.12158e-12</wgt>
  <wgt id="229">4.04641e-12</wgt>
  <wgt id="230">4.13321e-12</wgt>
  <wgt id="231">4.2245e-12</wgt>
  <wgt id="232">4.00572e-12</wgt>
  <wgt id="233">4.0824e-12</wgt>
  <wgt id="234">4.13936e-12</wgt>
  <wgt id="235">4.01114e-12</wgt>
  <wgt id="236">4.1887e-12</wgt>
  <wgt id="237">4.04285e-12</wgt>
  <wgt id="238">4.12524e-12</wgt>
  <wgt id="239">4.07803e-12</wgt>
  <wgt id="240">4.15193e-12</wgt>
  <wgt id="241">4.06135e-12</wgt>
  <wgt id="242">4.15622e-12</wgt>
  <wgt id="243">4.16031e-12</wgt>
  <wgt id="244">4.12276e-12</wgt>
  <wgt id="245">4.10177e-12</wgt>
  <wgt id="246">4.13359e-12</wgt>
  <wgt id="247">4.1042e-12</wgt>
  <wgt id="248">4.14064e-12</wgt>
  <wgt id="249">4.12675e-12</wgt>
  <wgt id="250">4.11389e-12</wgt>
  <wgt id="251">4.09471e-12</wgt>
  <wgt id="252">4.08557e-12</wgt>
  <wgt id="253">4.07921e-12</wgt>
  <wgt id="254">4.01901e-12</wgt>
  <wgt id="255">4.02282e-12</wgt>
  <wgt id="256">4.01481e-12</wgt>
  <wgt id="257">4.02193e-12</wgt>
  <wgt id="258">4.0169e-12</wgt>
  <wgt id="259">4.0459e-12</wgt>
  <wgt id="260">3.99307e-12</wgt>
  <wgt id="261">4.0253e-12</wgt>
  <wgt id="262">4.01133e-12</wgt>
  <wgt id="263">4.0169e-12</wgt>
  <wgt id="264">4.02125e-12</wgt>
  <wgt id="265">4.0141e-12</wgt>
  <wgt id="266">4.02883e-12</wgt>
  <wgt id="267">4.02024e-12</wgt>
  <wgt id="268">4.01706e-12</wgt>
  <wgt id="269">4.03243e-12</wgt>
  <wgt id="270">4.00986e-12</wgt>
  <wgt id="271">4.01205e-12</wgt>
  <wgt id="272">4.02687e-12</wgt>
  <wgt id="273">4.0063e-12</wgt>
  <wgt id="274">4.02863e-12</wgt>
  <wgt id="275">4.0017e-12</wgt>
  <wgt id="276">4.03685e-12</wgt>
  <wgt id="277">3.9957e-12</wgt>
  <wgt id="278">4.0404e-12</wgt>
  <wgt id="279">3.9403e-12</wgt>
  <wgt id="280">4.1177e-12</wgt>
  <wgt id="281">4.00084e-12</wgt>
  <wgt id="282">4.02019e-12</wgt>
  <wgt id="283">3.90151e-12</wgt>
  <wgt id="284">4.1637e-12</wgt>
  <wgt id="285">3.82466e-12</wgt>
  <wgt id="286">4.17992e-12</wgt>
  <wgt id="287">4.03185e-12</wgt>
  <wgt id="288">4.00268e-12</wgt>
  <wgt id="289">4.04769e-12</wgt>
  <wgt id="290">3.9526e-12</wgt>
  <wgt id="291">4.00749e-12</wgt>
  <wgt id="292">4.0216e-12</wgt>
  <wgt id="293">3.98752e-12</wgt>
  <wgt id="294">4.05022e-12</wgt>
  <wgt id="295">3.94197e-12</wgt>
  <wgt id="296">4.11294e-12</wgt>
  <wgt id="297">4.01772e-12</wgt>
  <wgt id="298">4.03493e-12</wgt>
  <wgt id="299">4.00578e-12</wgt>
  <wgt id="300">4.05391e-12</wgt>
  <wgt id="301">3.9588e-12</wgt>
  <wgt id="302">4.16735e-12</wgt>
  <wgt id="303">3.98652e-12</wgt>
  <wgt id="304">4.03752e-12</wgt>
  <wgt id="305">4.02825e-12</wgt>
  <wgt id="306">4.03247e-12</wgt>
  <wgt id="307">4.02374e-12</wgt>
  <wgt id="308">4.03163e-12</wgt>
  <wgt id="309">4.02611e-12</wgt>
  <wgt id="310">4.05629e-12</wgt>
  <wgt id="311">4.00228e-12</wgt>
  <wgt id="312">4.03356e-12</wgt>
  <wgt id="313">4.02284e-12</wgt>
  <wgt id="314">4.02625e-12</wgt>
  <wgt id="315">4.03014e-12</wgt>
  <wgt id="316">4.02352e-12</wgt>
  <wgt id="317">4.03853e-12</wgt>
  <wgt id="318">4.03137e-12</wgt>
  <wgt id="319">4.02294e-12</wgt>
  <wgt id="320">4.04246e-12</wgt>
  <wgt id="321">4.02041e-12</wgt>
  <wgt id="322">4.01927e-12</wgt>
  <wgt id="323">4.03873e-12</wgt>
  <wgt id="324">4.01768e-12</wgt>
  <wgt id="325">4.03748e-12</wgt>
  <wgt id="326">4.01433e-12</wgt>
  <wgt id="327">4.04612e-12</wgt>
  <wgt id="328">4.00733e-12</wgt>
  <wgt id="329">4.04002e-12</wgt>
  <wgt id="330">4.14887e-12</wgt>
  <wgt id="331">3.91341e-12</wgt>
  <wgt id="332">4.013e-12</wgt>
  <wgt id="333">4.02871e-12</wgt>
  <wgt id="334">3.93614e-12</wgt>
  <wgt id="335">4.14273e-12</wgt>
  <wgt id="336">3.88719e-12</wgt>
  <wgt id="337">4.20015e-12</wgt>
  <wgt id="338">4.07356e-12</wgt>
  <wgt id="339">3.98633e-12</wgt>
  <wgt id="340">4.05519e-12</wgt>
  <wgt id="341">3.95891e-12</wgt>
  <wgt id="342">4.02014e-12</wgt>
  <wgt id="343">4.02415e-12</wgt>
  <wgt id="344">3.99977e-12</wgt>
  <wgt id="345">4.06122e-12</wgt>
  <wgt id="346">3.94825e-12</wgt>
  <wgt id="347">4.12035e-12</wgt>
  <wgt id="348">4.02854e-12</wgt>
  <wgt id="349">4.04178e-12</wgt>
  <wgt id="350">4.01165e-12</wgt>
  <wgt id="351">4.07025e-12</wgt>
  <wgt id="352">3.96193e-12</wgt>
  <wgt id="353">4.18276e-12</wgt>
  <wgt id="354">3.97889e-12</wgt>
  <wgt id="355">4.05829e-12</wgt>
  <wgt id="356">4.01901e-12</wgt>
  <wgt id="357">4.04394e-12</wgt>
  <wgt id="358">4.02825e-12</wgt>
  <wgt id="359">4.03223e-12</wgt>
  <wgt id="360">4.04907e-12</wgt>
  <wgt id="361">4.03237e-12</wgt>
  <wgt id="362">4.10395e-12</wgt>
  <wgt id="363">4.09392e-12</wgt>
  <wgt id="364">4.0793e-12</wgt>
  <wgt id="365">4.06524e-12</wgt>
  <wgt id="366">4.04962e-12</wgt>
  <wgt id="367">4.01787e-12</wgt>
  <wgt id="368">4.00021e-12</wgt>
  <wgt id="369">3.98109e-12</wgt>
  <wgt id="370">4.03237e-12</wgt>
  <wgt id="371">4.05061e-12</wgt>
  <wgt id="372">4.04065e-12</wgt>
  <wgt id="373">4.02571e-12</wgt>
  <wgt id="374">4.02485e-12</wgt>
  <wgt id="375">4.32165e-12</wgt>
  <wgt id="376">4.32222e-12</wgt>
  <wgt id="377">4.32077e-12</wgt>
  <wgt id="378">4.33748e-12</wgt>
  <wgt id="379">4.30584e-12</wgt>
  <wgt id="380">4.33308e-12</wgt>
  <wgt id="381">4.31708e-12</wgt>
  <wgt id="382">4.34464e-12</wgt>
  <wgt id="383">4.29878e-12</wgt>
  <wgt id="384">4.32451e-12</wgt>
  <wgt id="385">4.31887e-12</wgt>
  <wgt id="386">4.33946e-12</wgt>
  <wgt id="387">4.31388e-12</wgt>
  <wgt id="388">4.31735e-12</wgt>
  <wgt id="389">4.32667e-12</wgt>
  <wgt id="390">4.33355e-12</wgt>
  <wgt id="391">4.30911e-12</wgt>
  <wgt id="392">4.28713e-12</wgt>
  <wgt id="393">4.34129e-12</wgt>
  <wgt id="394">4.32771e-12</wgt>
  <wgt id="395">4.31337e-12</wgt>
  <wgt id="396">4.32516e-12</wgt>
  <wgt id="397">4.31919e-12</wgt>
  <wgt id="398">4.3024e-12</wgt>
  <wgt id="399">4.34028e-12</wgt>
  <wgt id="400">4.3141e-12</wgt>
  <wgt id="401">4.33864e-12</wgt>
  <wgt id="402">4.28539e-12</wgt>
  <wgt id="403">4.33804e-12</wgt>
  <wgt id="404">4.424e-12</wgt>
  <wgt id="405">4.07503e-12</wgt>
  <wgt id="406">4.24814e-12</wgt>
  <wgt id="407">4.48119e-12</wgt>
  <wgt id="408">4.35939e-12</wgt>
  <wgt id="409">4.24961e-12</wgt>
  <wgt id="410">4.20147e-12</wgt>
  <wgt id="411">4.37747e-12</wgt>
  <wgt id="412">4.31373e-12</wgt>
  <wgt id="413">4.33341e-12</wgt>
  <wgt id="414">4.27362e-12</wgt>
  <wgt id="415">4.35903e-12</wgt>
  <wgt id="416">4.43976e-12</wgt>
  <wgt id="417">4.15861e-12</wgt>
  <wgt id="418">4.32756e-12</wgt>
  <wgt id="419">4.28968e-12</wgt>
  <wgt id="420">4.39151e-12</wgt>
  <wgt id="421">4.28084e-12</wgt>
  <wgt id="422">4.31283e-12</wgt>
  <wgt id="423">4.32659e-12</wgt>
  <wgt id="424">4.41412e-12</wgt>
  <wgt id="425">4.26302e-12</wgt>
  <wgt id="426">4.32165e-12</wgt>
  <wgt id="427">4.28021e-12</wgt>
  <wgt id="428">4.44126e-12</wgt>
  <wgt id="429">4.36259e-12</wgt>
  <wgt id="430">4.48694e-12</wgt>
  <wgt id="431">4.46198e-12</wgt>
  <wgt id="432">4.43858e-12</wgt>
  <wgt id="433">4.41589e-12</wgt>
  <wgt id="434">4.38823e-12</wgt>
  <wgt id="435">4.33073e-12</wgt>
  <wgt id="436">4.30131e-12</wgt>
  <wgt id="437">4.2731e-12</wgt>
  <wgt id="438">4.36259e-12</wgt>
  <wgt id="439">4.37701e-12</wgt>
  <wgt id="440">4.36851e-12</wgt>
  <wgt id="441">4.35822e-12</wgt>
  <wgt id="442">4.35458e-12</wgt>
  <wgt id="443">4.20743e-12</wgt>
  <wgt id="444">4.23238e-12</wgt>
  <wgt id="445">4.19127e-12</wgt>
  <wgt id="446">4.18006e-12</wgt>
  <wgt id="447">4.19265e-12</wgt>
  <wgt id="448">4.09455e-12</wgt>
  <wgt id="449">4.27406e-12</wgt>
  <wgt id="450">4.19447e-12</wgt>
  <wgt id="451">4.20015e-12</wgt>
  <wgt id="452">4.30436e-12</wgt>
  <wgt id="453">4.24932e-12</wgt>
  <wgt id="454">4.03707e-12</wgt>
  <wgt id="455">4.21344e-12</wgt>
  <wgt id="456">4.1743e-12</wgt>
  <wgt id="457">4.22538e-12</wgt>
  <wgt id="458">4.25691e-12</wgt>
  <wgt id="459">4.23632e-12</wgt>
  <wgt id="460">4.23266e-12</wgt>
  <wgt id="461">4.12689e-12</wgt>
  <wgt id="462">4.17167e-12</wgt>
  <wgt id="463">4.16004e-12</wgt>
  <wgt id="464">4.18259e-12</wgt>
  <wgt id="465">4.25328e-12</wgt>
  <wgt id="466">4.15653e-12</wgt>
  <wgt id="467">4.16543e-12</wgt>
  <wgt id="468">4.1957e-12</wgt>
  <wgt id="469">4.19496e-12</wgt>
  <wgt id="470">4.16872e-12</wgt>
  <wgt id="471">4.16869e-12</wgt>
  <wgt id="472">4.22781e-12</wgt>
  <wgt id="473">4.06657e-12</wgt>
  <wgt id="474">3.0282e-12</wgt>
  <wgt id="475">3.2042e-12</wgt>
  <wgt id="476">2.96084e-12</wgt>
  <wgt id="477">2.9197e-12</wgt>
  <wgt id="478">3.0439e-12</wgt>
  <wgt id="479">2.96407e-12</wgt>
  <wgt id="480">3.14425e-12</wgt>
  <wgt id="481">2.97481e-12</wgt>
  <wgt id="482">2.9253e-12</wgt>
  <wgt id="483">2.94877e-12</wgt>
  <wgt id="484">3.21534e-12</wgt>
  <wgt id="485">3.01594e-12</wgt>
  <wgt id="486">3.12073e-12</wgt>
  <wgt id="487">3.08676e-12</wgt>
  <wgt id="488">3.07535e-12</wgt>
  <wgt id="489">2.92227e-12</wgt>
  <wgt id="490">2.92385e-12</wgt>
  <wgt id="491">2.99592e-12</wgt>
  <wgt id="492">2.93949e-12</wgt>
  <wgt id="493">2.91093e-12</wgt>
  <wgt id="494">2.93496e-12</wgt>
  <wgt id="495">3.0937e-12</wgt>
  <wgt id="496">2.92898e-12</wgt>
  <wgt id="497">2.90519e-12</wgt>
  <wgt id="498">3.07878e-12</wgt>
  <wgt id="499">2.95883e-12</wgt>
  <wgt id="500">2.97979e-12</wgt>
  <wgt id="501">3.16986e-12</wgt>
  <wgt id="502">2.96133e-12</wgt>
  <wgt id="503">3.02704e-12</wgt>
  <wgt id="504">3.06272e-12</wgt>
  <wgt id="505">3.01011e-12</wgt>
  <wgt id="506">3.08428e-12</wgt>
  <wgt id="507">3.00553e-12</wgt>
  <wgt id="508">3.07859e-12</wgt>
  <wgt id="509">2.93301e-12</wgt>
  <wgt id="510">3.11349e-12</wgt>
  <wgt id="511">2.96529e-12</wgt>
  <wgt id="512">3.08389e-12</wgt>
  <wgt id="513">3.16962e-12</wgt>
  <wgt id="514">3.0154e-12</wgt>
  <wgt id="515">2.9914e-12</wgt>
  <wgt id="516">3.12658e-12</wgt>
  <wgt id="517">3.09172e-12</wgt>
  <wgt id="518">3.09849e-12</wgt>
  <wgt id="519">2.93705e-12</wgt>
  <wgt id="520">3.06553e-12</wgt>
  <wgt id="521">3.12657e-12</wgt>
  <wgt id="522">3.14863e-12</wgt>
  <wgt id="523">3.08918e-12</wgt>
  <wgt id="524">3.06548e-12</wgt>
  <wgt id="525">3.1268e-12</wgt>
  <wgt id="526">3.04866e-12</wgt>
  <wgt id="527">3.06906e-12</wgt>
  <wgt id="528">3.04854e-12</wgt>
  <wgt id="529">2.97227e-12</wgt>
  <wgt id="530">3.06802e-12</wgt>
  <wgt id="531">2.9948e-12</wgt>
  <wgt id="532">3.20644e-12</wgt>
  <wgt id="533">2.85539e-12</wgt>
  <wgt id="534">3.0401e-12</wgt>
  <wgt id="535">3.08522e-12</wgt>
  <wgt id="536">3.00914e-12</wgt>
  <wgt id="537">3.03465e-12</wgt>
  <wgt id="538">3.05928e-12</wgt>
  <wgt id="539">2.97384e-12</wgt>
  <wgt id="540">2.97097e-12</wgt>
  <wgt id="541">2.93653e-12</wgt>
  <wgt id="542">2.98201e-12</wgt>
  <wgt id="543">3.0213e-12</wgt>
  <wgt id="544">3.17461e-12</wgt>
  <wgt id="545">2.98607e-12</wgt>
  <wgt id="546">2.98106e-12</wgt>
  <wgt id="547">2.93746e-12</wgt>
  <wgt id="548">2.90472e-12</wgt>
  <wgt id="549">2.97385e-12</wgt>
  <wgt id="550">2.99279e-12</wgt>
  <wgt id="551">3.05819e-12</wgt>
  <wgt id="552">2.99025e-12</wgt>
  <wgt id="553">3.01477e-12</wgt>
  <wgt id="554">3.24973e-12</wgt>
  <wgt id="555">3.10447e-12</wgt>
  <wgt id="556">2.92385e-12</wgt>
  <wgt id="557">3.08369e-12</wgt>
  <wgt id="558">2.93412e-12</wgt>
  <wgt id="559">2.98384e-12</wgt>
  <wgt id="560">3.29228e-12</wgt>
  <wgt id="561">2.97568e-12</wgt>
  <wgt id="562">3.08426e-12</wgt>
  <wgt id="563">2.95171e-12</wgt>
  <wgt id="564">3.041e-12</wgt>
  <wgt id="565">2.91706e-12</wgt>
  <wgt id="566">3.07852e-12</wgt>
  <wgt id="567">2.98906e-12</wgt>
  <wgt id="568">3.01261e-12</wgt>
  <wgt id="569">3.08847e-12</wgt>
  <wgt id="570">2.92336e-12</wgt>
  <wgt id="571">3.35875e-12</wgt>
  <wgt id="572">2.95831e-12</wgt>
  <wgt id="573">2.89781e-12</wgt>
  <wgt id="574">2.92204e-12</wgt>
  <wgt id="575">3.34081e-12</wgt>
  <wgt id="576">3.3292e-12</wgt>
  <wgt id="577">3.42645e-12</wgt>
  <wgt id="578">3.43503e-12</wgt>
  <wgt id="579">3.40669e-12</wgt>
  <wgt id="580">3.41578e-12</wgt>
  <wgt id="581">3.56667e-12</wgt>
  <wgt id="582">3.32098e-12</wgt>
  <wgt id="583">3.378e-12</wgt>
  <wgt id="584">3.34381e-12</wgt>
  <wgt id="585">3.35043e-12</wgt>
  <wgt id="586">3.26086e-12</wgt>
  <wgt id="587">3.39083e-12</wgt>
  <wgt id="588">3.33117e-12</wgt>
  <wgt id="589">3.41939e-12</wgt>
  <wgt id="590">3.39337e-12</wgt>
  <wgt id="591">3.46444e-12</wgt>
  <wgt id="592">3.25196e-12</wgt>
  <wgt id="593">3.3238e-12</wgt>
  <wgt id="594">3.42942e-12</wgt>
  <wgt id="595">3.33514e-12</wgt>
  <wgt id="596">3.37998e-12</wgt>
  <wgt id="597">3.24968e-12</wgt>
  <wgt id="598">3.23296e-12</wgt>
  <wgt id="599">3.51156e-12</wgt>
  <wgt id="600">3.31398e-12</wgt>
  <wgt id="601">3.24599e-12</wgt>
  <wgt id="602">3.2628e-12</wgt>
  <wgt id="603">3.26932e-12</wgt>
  <wgt id="604">3.39183e-12</wgt>
  <wgt id="605">3.47295e-12</wgt>
  <wgt id="606">3.27604e-12</wgt>
  <wgt id="607">3.30641e-12</wgt>
  <wgt id="608">3.37686e-12</wgt>
  <wgt id="609">3.16773e-12</wgt>
  <wgt id="610">3.21728e-12</wgt>
  <wgt id="611">3.36327e-12</wgt>
  <wgt id="612">3.57322e-12</wgt>
  <wgt id="613">3.32511e-12</wgt>
  <wgt id="614">3.38268e-12</wgt>
  <wgt id="615">3.2766e-12</wgt>
  <wgt id="616">3.51293e-12</wgt>
  <wgt id="617">3.46876e-12</wgt>
  <wgt id="618">3.43483e-12</wgt>
  <wgt id="619">3.29688e-12</wgt>
  <wgt id="620">3.48948e-12</wgt>
  <wgt id="621">3.38118e-12</wgt>
  <wgt id="622">3.39083e-12</wgt>
  <wgt id="623">3.43606e-12</wgt>
  <wgt id="624">3.3347e-12</wgt>
  <wgt id="625">3.29672e-12</wgt>
  <wgt id="626">3.24811e-12</wgt>
  <wgt id="627">3.20035e-12</wgt>
  <wgt id="628">3.53014e-12</wgt>
  <wgt id="629">3.26696e-12</wgt>
  <wgt id="630">3.21749e-12</wgt>
  <wgt id="631">3.36184e-12</wgt>
  <wgt id="632">3.21136e-12</wgt>
  <wgt id="633">3.30648e-12</wgt>
  <wgt id="634">3.32317e-12</wgt>
  <wgt id="635">3.25254e-12</wgt>
  <wgt id="636">3.3625e-12</wgt>
  <wgt id="637">3.32787e-12</wgt>
  <wgt id="638">3.21066e-12</wgt>
  <wgt id="639">3.29127e-12</wgt>
  <wgt id="640">3.33928e-12</wgt>
  <wgt id="641">3.37057e-12</wgt>
  <wgt id="642">3.2092e-12</wgt>
  <wgt id="643">3.31779e-12</wgt>
  <wgt id="644">3.19086e-12</wgt>
  <wgt id="645">3.37215e-12</wgt>
  <wgt id="646">3.37316e-12</wgt>
  <wgt id="647">3.30175e-12</wgt>
  <wgt id="648">3.36583e-12</wgt>
  <wgt id="649">3.38979e-12</wgt>
  <wgt id="650">3.27238e-12</wgt>
  <wgt id="651">3.36301e-12</wgt>
  <wgt id="652">3.31033e-12</wgt>
  <wgt id="653">3.24461e-12</wgt>
  <wgt id="654">3.3175e-12</wgt>
  <wgt id="655">3.28881e-12</wgt>
  <wgt id="656">3.36447e-12</wgt>
  <wgt id="657">3.4794e-12</wgt>
  <wgt id="658">3.34693e-12</wgt>
  <wgt id="659">3.20817e-12</wgt>
  <wgt id="660">3.40053e-12</wgt>
  <wgt id="661">3.28394e-12</wgt>
  <wgt id="662">3.33884e-12</wgt>
  <wgt id="663">3.3446e-12</wgt>
  <wgt id="664">3.2956e-12</wgt>
  <wgt id="665">3.33086e-12</wgt>
  <wgt id="666">3.3088e-12</wgt>
  <wgt id="667">3.44815e-12</wgt>
  <wgt id="668">3.33794e-12</wgt>
  <wgt id="669">3.41872e-12</wgt>
  <wgt id="670">3.41556e-12</wgt>
  <wgt id="671">3.31599e-12</wgt>
  <wgt id="672">3.20092e-12</wgt>
  <wgt id="673">3.35896e-12</wgt>
  <wgt id="674">3.27611e-12</wgt>
  <wgt id="675">3.29646e-12</wgt>
  <wgt id="676">4.22978e-12</wgt>
  <wgt id="677">4.27526e-12</wgt>
  <wgt id="678">4.44038e-12</wgt>
  <wgt id="679">3.95872e-12</wgt>
  <wgt id="680">4.13998e-12</wgt>
  <wgt id="681">4.31295e-12</wgt>
  <wgt id="682">4.36449e-12</wgt>
  <wgt id="683">4.163e-12</wgt>
  <wgt id="684">4.42374e-12</wgt>
  <wgt id="685">4.0149e-12</wgt>
  <wgt id="686">4.13556e-12</wgt>
  <wgt id="687">4.44274e-12</wgt>
  <wgt id="688">4.20809e-12</wgt>
  <wgt id="689">4.57814e-12</wgt>
  <wgt id="690">4.43942e-12</wgt>
  <wgt id="691">4.48563e-12</wgt>
  <wgt id="692">4.17783e-12</wgt>
  <wgt id="693">4.99805e-12</wgt>
  <wgt id="694">4.48982e-12</wgt>
  <wgt id="695">4.09625e-12</wgt>
  <wgt id="696">4.00392e-12</wgt>
  <wgt id="697">4.10568e-12</wgt>
  <wgt id="698">3.85934e-12</wgt>
  <wgt id="699">3.83441e-12</wgt>
  <wgt id="700">3.68297e-12</wgt>
  <wgt id="701">4.2454e-12</wgt>
  <wgt id="702">4.09912e-12</wgt>
  <wgt id="703">4.87539e-12</wgt>
  <wgt id="704">4.63718e-12</wgt>
  <wgt id="705">4.43622e-12</wgt>
  <wgt id="706">3.94256e-12</wgt>
  <wgt id="707">4.05616e-12</wgt>
  <wgt id="708">4.17115e-12</wgt>
  <wgt id="709">4.15334e-12</wgt>
  <wgt id="710">3.80172e-12</wgt>
  <wgt id="711">4.20547e-12</wgt>
  <wgt id="712">4.14751e-12</wgt>
  <wgt id="713">4.58389e-12</wgt>
  <wgt id="714">4.14535e-12</wgt>
  <wgt id="715">4.18189e-12</wgt>
  <wgt id="716">4.06736e-12</wgt>
  <wgt id="717">4.01565e-12</wgt>
  <wgt id="718">4.22911e-12</wgt>
  <wgt id="719">3.83382e-12</wgt>
  <wgt id="720">3.98642e-12</wgt>
  <wgt id="721">3.86827e-12</wgt>
  <wgt id="722">3.72873e-12</wgt>
  <wgt id="723">4.52443e-12</wgt>
  <wgt id="724">4.43974e-12</wgt>
  <wgt id="725">4.46249e-12</wgt>
  <wgt id="726">4.26808e-12</wgt>
  <wgt id="727">4.13412e-12</wgt>
  <wgt id="728">4.12942e-12</wgt>
  <wgt id="729">3.87805e-12</wgt>
  <wgt id="730">4.58404e-12</wgt>
  <wgt id="731">4.17464e-12</wgt>
  <wgt id="732">4.66315e-12</wgt>
  <wgt id="733">4.21383e-12</wgt>
  <wgt id="734">4.33515e-12</wgt>
  <wgt id="735">4.21518e-12</wgt>
  <wgt id="736">4.13752e-12</wgt>
  <wgt id="737">4.29536e-12</wgt>
  <wgt id="738">4.00903e-12</wgt>
  <wgt id="739">4.31469e-12</wgt>
  <wgt id="740">4.71389e-12</wgt>
  <wgt id="741">3.7821e-12</wgt>
  <wgt id="742">4.1645e-12</wgt>
  <wgt id="743">4.02133e-12</wgt>
  <wgt id="744">4.14322e-12</wgt>
  <wgt id="745">4.43602e-12</wgt>
  <wgt id="746">4.51482e-12</wgt>
  <wgt id="747">3.80894e-12</wgt>
  <wgt id="748">4.17639e-12</wgt>
  <wgt id="749">4.44952e-12</wgt>
  <wgt id="750">4.32494e-12</wgt>
  <wgt id="751">4.3587e-12</wgt>
  <wgt id="752">3.86783e-12</wgt>
  <wgt id="753">4.01235e-12</wgt>
  <wgt id="754">4.43541e-12</wgt>
  <wgt id="755">4.24029e-12</wgt>
  <wgt id="756">4.2532e-12</wgt>
  <wgt id="757">3.87728e-12</wgt>
  <wgt id="758">4.25937e-12</wgt>
  <wgt id="759">4.34524e-12</wgt>
  <wgt id="760">4.27026e-12</wgt>
  <wgt id="761">4.46319e-12</wgt>
  <wgt id="762">4.49498e-12</wgt>
  <wgt id="763">4.21044e-12</wgt>
  <wgt id="764">4.40619e-12</wgt>
  <wgt id="765">4.31038e-12</wgt>
  <wgt id="766">4.22633e-12</wgt>
  <wgt id="767">4.34122e-12</wgt>
  <wgt id="768">3.97955e-12</wgt>
  <wgt id="769">4.49207e-12</wgt>
  <wgt id="770">4.10428e-12</wgt>
  <wgt id="771">5.02306e-12</wgt>
  <wgt id="772">3.99768e-12</wgt>
  <wgt id="773">4.195e-12</wgt>
  <wgt id="774">3.72931e-12</wgt>
  <wgt id="775">4.46702e-12</wgt>
  <wgt id="776">4.62874e-12</wgt>
  <wgt id="777">3.99711e-12</wgt>
  <wgt id="778">3.08974e-12</wgt>
  <wgt id="779">2.52324e-12</wgt>
  <wgt id="780">2.00994e-12</wgt>
  <wgt id="781">3.21703e-12</wgt>
  <wgt id="782">3.29078e-12</wgt>
  <wgt id="783">2.54381e-12</wgt>
  <wgt id="784">2.66543e-12</wgt>
  <wgt id="785">3.81274e-12</wgt>
  <wgt id="786">2.34831e-12</wgt>
  <wgt id="787">3.55885e-12</wgt>
  <wgt id="788">1.85713e-12</wgt>
  <wgt id="789">2.45604e-12</wgt>
  <wgt id="790">2.31151e-12</wgt>
  <wgt id="791">2.92411e-12</wgt>
  <wgt id="792">4.05023e-12</wgt>
  <wgt id="793">3.02548e-12</wgt>
  <wgt id="794">2.30095e-12</wgt>
  <wgt id="795">3.68293e-12</wgt>
  <wgt id="796">4.10003e-12</wgt>
  <wgt id="797">3.63437e-12</wgt>
  <wgt id="798">2.81281e-12</wgt>
  <wgt id="799">3.55047e-12</wgt>
  <wgt id="800">2.48879e-12</wgt>
  <wgt id="801">2.86559e-12</wgt>
  <wgt id="802">2.30907e-12</wgt>
  <wgt id="803">4.09428e-12</wgt>
  <wgt id="804">3.65309e-12</wgt>
  <wgt id="805">3.71424e-12</wgt>
  <wgt id="806">3.44224e-12</wgt>
  <wgt id="807">2.93178e-12</wgt>
  <wgt id="808">2.99707e-12</wgt>
  <wgt id="809">2.83928e-12</wgt>
  <wgt id="810">3.50679e-12</wgt>
  <wgt id="811">3.38129e-12</wgt>
  <wgt id="812">2.28996e-12</wgt>
  <wgt id="813">2.36237e-12</wgt>
  <wgt id="814">2.62446e-12</wgt>
  <wgt id="815">2.52555e-12</wgt>
  <wgt id="816">2.22009e-12</wgt>
  <wgt id="817">3.23468e-12</wgt>
  <wgt id="818">3.11594e-12</wgt>
  <wgt id="819">2.51828e-12</wgt>
  <wgt id="820">3.0853e-12</wgt>
  <wgt id="821">3.5933e-12</wgt>
  <wgt id="822">2.51559e-12</wgt>
  <wgt id="823">3.6259e-12</wgt>
  <wgt id="824">4.20202e-12</wgt>
  <wgt id="825">2.22241e-12</wgt>
  <wgt id="826">3.31159e-12</wgt>
  <wgt id="827">1.81688e-12</wgt>
  <wgt id="828">3.96697e-12</wgt>
  <wgt id="829">3.22751e-12</wgt>
  <wgt id="830">2.1028e-12</wgt>
  <wgt id="831">3.35686e-12</wgt>
  <wgt id="832">5.15158e-12</wgt>
  <wgt id="833">2.84066e-12</wgt>
  <wgt id="834">4.81945e-12</wgt>
  <wgt id="835">2.48081e-12</wgt>
  <wgt id="836">3.04058e-12</wgt>
  <wgt id="837">3.54424e-12</wgt>
  <wgt id="838">2.92454e-12</wgt>
  <wgt id="839">3.33111e-12</wgt>
  <wgt id="840">2.85713e-12</wgt>
  <wgt id="841">3.88007e-12</wgt>
  <wgt id="842">2.7857e-12</wgt>
  <wgt id="843">3.06532e-12</wgt>
  <wgt id="844">3.24964e-12</wgt>
  <wgt id="845">4.444e-12</wgt>
  <wgt id="846">2.92661e-12</wgt>
  <wgt id="847">3.15178e-12</wgt>
  <wgt id="848">2.609e-12</wgt>
  <wgt id="849">3.18191e-12</wgt>
  <wgt id="850">4.1128e-12</wgt>
  <wgt id="851">3.41304e-12</wgt>
  <wgt id="852">2.5816e-12</wgt>
  <wgt id="853">3.42865e-12</wgt>
  <wgt id="854">3.81626e-12</wgt>
  <wgt id="855">3.63814e-12</wgt>
  <wgt id="856">2.15647e-12</wgt>
  <wgt id="857">3.07075e-12</wgt>
  <wgt id="858">3.04477e-12</wgt>
  <wgt id="859">2.8691e-12</wgt>
  <wgt id="860">3.38559e-12</wgt>
  <wgt id="861">2.67939e-12</wgt>
  <wgt id="862">3.1562e-12</wgt>
  <wgt id="863">3.30421e-12</wgt>
  <wgt id="864">3.30298e-12</wgt>
  <wgt id="865">4.52888e-12</wgt>
  <wgt id="866">4.95798e-12</wgt>
  <wgt id="867">3.17412e-12</wgt>
  <wgt id="868">3.08122e-12</wgt>
  <wgt id="869">2.34592e-12</wgt>
  <wgt id="870">2.47374e-12</wgt>
  <wgt id="871">2.39669e-12</wgt>
  <wgt id="872">3.76452e-12</wgt>
  <wgt id="873">2.52107e-12</wgt>
  <wgt id="874">3.27922e-12</wgt>
  <wgt id="875">2.66442e-12</wgt>
  <wgt id="876">3.76765e-12</wgt>
  <wgt id="877">3.58401e-12</wgt>
  <wgt id="878">2.6055e-12</wgt>
  <wgt id="879">4.22978e-12</wgt>
  <wgt id="880">4.27526e-12</wgt>
  <wgt id="881">4.44038e-12</wgt>
  <wgt id="882">3.95872e-12</wgt>
  <wgt id="883">4.13998e-12</wgt>
  <wgt id="884">4.31295e-12</wgt>
  <wgt id="885">4.36449e-12</wgt>
  <wgt id="886">4.163e-12</wgt>
  <wgt id="887">4.42374e-12</wgt>
  <wgt id="888">4.0149e-12</wgt>
  <wgt id="889">4.13556e-12</wgt>
  <wgt id="890">4.44274e-12</wgt>
  <wgt id="891">4.20809e-12</wgt>
  <wgt id="892">4.57814e-12</wgt>
  <wgt id="893">4.43942e-12</wgt>
  <wgt id="894">4.48563e-12</wgt>
  <wgt id="895">4.17783e-12</wgt>
  <wgt id="896">4.99805e-12</wgt>
  <wgt id="897">4.48982e-12</wgt>
  <wgt id="898">4.09625e-12</wgt>
  <wgt id="899">4.00392e-12</wgt>
  <wgt id="900">4.10568e-12</wgt>
  <wgt id="901">3.85934e-12</wgt>
  <wgt id="902">3.83441e-12</wgt>
  <wgt id="903">3.68297e-12</wgt>
  <wgt id="904">4.2454e-12</wgt>
  <wgt id="905">4.09912e-12</wgt>
  <wgt id="906">4.87539e-12</wgt>
  <wgt id="907">4.63718e-12</wgt>
  <wgt id="908">4.43622e-12</wgt>
  <wgt id="909">3.94256e-12</wgt>
  <wgt id="910">4.05616e-12</wgt>
  <wgt id="911">4.17115e-12</wgt>
  <wgt id="912">4.15334e-12</wgt>
  <wgt id="913">3.80172e-12</wgt>
  <wgt id="914">4.20547e-12</wgt>
  <wgt id="915">4.14751e-12</wgt>
  <wgt id="916">4.58389e-12</wgt>
  <wgt id="917">4.14535e-12</wgt>
  <wgt id="918">4.18189e-12</wgt>
  <wgt id="919">4.06736e-12</wgt>
  <wgt id="920">4.01565e-12</wgt>
  <wgt id="921">4.22911e-12</wgt>
  <wgt id="922">3.83382e-12</wgt>
  <wgt id="923">3.98642e-12</wgt>
  <wgt id="924">3.86827e-12</wgt>
  <wgt id="925">3.72873e-12</wgt>
  <wgt id="926">4.52443e-12</wgt>
  <wgt id="927">4.43974e-12</wgt>
  <wgt id="928">4.46249e-12</wgt>
  <wgt id="929">4.26808e-12</wgt>
  <wgt id="930">4.13412e-12</wgt>
  <wgt id="931">4.12942e-12</wgt>
  <wgt id="932">3.87805e-12</wgt>
  <wgt id="933">4.58404e-12</wgt>
  <wgt id="934">4.17464e-12</wgt>
  <wgt id="935">4.66315e-12</wgt>
  <wgt id="936">4.21383e-12</wgt>
  <wgt id="937">4.33515e-12</wgt>
  <wgt id="938">4.21518e-12</wgt>
  <wgt id="939">4.13752e-12</wgt>
  <wgt id="940">4.29536e-12</wgt>
  <wgt id="941">4.00903e-12</wgt>
  <wgt id="942">4.31469e-12</wgt>
  <wgt id="943">4.71389e-12</wgt>
  <wgt id="944">3.7821e-12</wgt>
  <wgt id="945">4.1645e-12</wgt>
  <wgt id="946">4.02133e-12</wgt>
  <wgt id="947">4.14322e-12</wgt>
  <wgt id="948">4.43602e-12</wgt>
  <wgt id="949">4.51482e-12</wgt>
  <wgt id="950">3.80894e-12</wgt>
  <wgt id="951">4.17639e-12</wgt>
  <wgt id="952">4.44952e-12</wgt>
  <wgt id="953">4.32494e-12</wgt>
  <wgt id="954">4.3587e-12</wgt>
  <wgt id="955">3.86783e-12</wgt>
  <wgt id="956">4.01235e-12</wgt>
  <wgt id="957">4.43541e-12</wgt>
  <wgt id="958">4.24029e-12</wgt>
  <wgt id="959">4.2532e-12</wgt>
  <wgt id="960">3.87728e-12</wgt>
  <wgt id="961">4.25937e-12</wgt>
  <wgt id="962">4.34524e-12</wgt>
  <wgt id="963">4.27026e-12</wgt>
  <wgt id="964">4.46319e-12</wgt>
  <wgt id="965">4.49498e-12</wgt>
  <wgt id="966">4.21044e-12</wgt>
  <wgt id="967">4.40619e-12</wgt>
  <wgt id="968">4.31038e-12</wgt>
  <wgt id="969">4.22633e-12</wgt>
  <wgt id="970">4.34122e-12</wgt>
  <wgt id="971">3.97955e-12</wgt>
  <wgt id="972">4.49207e-12</wgt>
  <wgt id="973">4.10428e-12</wgt>
  <wgt id="974">5.02306e-12</wgt>
  <wgt id="975">3.99768e-12</wgt>
  <wgt id="976">4.195e-12</wgt>
  <wgt id="977">3.72931e-12</wgt>
  <wgt id="978">4.46702e-12</wgt>
  <wgt id="979">4.62874e-12</wgt>
  <wgt id="980">4.22568e-12</wgt>
  <wgt id="981">4.25802e-12</wgt>
  <wgt id="982">4.10618e-12</wgt>
</rwgt>
</event>
<event>
 5   1  0.3028200E-11  0.2393664E+04  0.7818608E-02  0.7679621E-01
       21   -1    0    0  502  501  0.00000000000E+00  0.00000000000E+00  0.67137304748E+03  0.67137304748E+03  0.00000000000E+00 0. -1.
       21   -1    0    0  501  502 -0.00000000000E+00 -0.00000000000E+00 -0.21335486335E+04  0.21335486335E+04  0.00000000000E+00 0.  1.
       39    2    1    2    0    0  0.00000000000E+00  0.00000000000E+00 -0.14621755861E+04  0.28049216810E+04  0.23936641770E+04 0.  0.
       25    1    3    3    0    0 -0.10198179633E+04 -0.15458944138E+03 -0.14271626535E+04  0.17653171990E+04  0.12500000000E+03 0.  0.
       25    1    3    3    0    0  0.10198179633E+04  0.15458944138E+03 -0.35012932571E+02  0.10396044820E+04  0.12500000000E+03 0.  0.
<mgrwt>
<rscale>  0 0.23936642E+04</rscale>
<asrwt>0</asrwt>
<pdfrwt beam="1">  1       21 0.10328816E+00 0.23936642E+04</pdfrwt>
<pdfrwt beam="2">  1       21 0.32823825E+00 0.23936642E+04</pdfrwt>
<totfact> 0.59253923E+00</totfact>
</mgrwt>
<rwgt>
  <wgt id="1">3.0282e-12</wgt>
  <wgt id="2">2.6097e-12</wgt>
  <wgt id="3">3.55369e-12</wgt>
  <wgt id="4">3.0282e-12</wgt>
  <wgt id="5">2.6097e-12</wgt>
  <wgt id="6">3.55369e-12</wgt>
  <wgt id="7">3.0282e-12</wgt>
  <wgt id="8">2.6097e-12</wgt>
  <wgt id="9">3.55369e-12</wgt>
  <wgt id="10">3.19689e-12</wgt>
  <wgt id="11">3.19605e-12</wgt>
  <wgt id="12">3.18884e-12</wgt>
  <wgt id="13">3.19046e-12</wgt>
  <wgt id="14">3.20701e-12</wgt>
  <wgt id="15">3.20211e-12</wgt>
  <wgt id="16">3.18857e-12</wgt>
  <wgt id="17">3.2151e-12</wgt>
  <wgt id="18">3.19433e-12</wgt>
  <wgt id="19">3.21044e-12</wgt>
  <wgt id="20">3.19609e-12</wgt>
  <wgt id="21">3.17057e-12</wgt>
  <wgt id="22">3.17292e-12</wgt>
  <wgt id="23">3.14563e-12</wgt>
  <wgt id="24">3.17101e-12</wgt>
  <wgt id="25">3.18422e-12</wgt>
  <wgt id="26">3.20553e-12</wgt>
  <wgt id="27">3.19013e-12</wgt>
  <wgt id="28">3.17537e-12</wgt>
  <wgt id="29">3.1978e-12</wgt>
  <wgt id="30">3.16883e-12</wgt>
  <wgt id="31">3.21156e-12</wgt>
  <wgt id="32">3.17026e-12</wgt>
  <wgt id="33">3.20085e-12</wgt>
  <wgt id="34">3.17481e-12</wgt>
  <wgt id="35">3.17237e-12</wgt>
  <wgt id="36">3.21247e-12</wgt>
  <wgt id="37">3.18554e-12</wgt>
  <wgt id="38">3.18276e-12</wgt>
  <wgt id="39">3.25719e-12</wgt>
  <wgt id="40">3.20134e-12</wgt>
  <wgt id="41">3.19449e-12</wgt>
  <wgt id="42">3.20511e-12</wgt>
  <wgt id="43">3.20039e-12</wgt>
  <wgt id="44">3.21358e-12</wgt>
  <wgt id="45">3.20058e-12</wgt>
  <wgt id="46">3.18229e-12</wgt>
  <wgt id="47">3.22992e-12</wgt>
  <wgt id="48">3.21768e-12</wgt>
  <wgt id="49">3.18012e-12</wgt>
  <wgt id="50">3.16785e-12</wgt>
  <wgt id="51">3.17478e-12</wgt>
  <wgt id="52">3.20336e-12</wgt>
  <wgt id="53">3.23169e-12</wgt>
  <wgt id="54">3.21451e-12</wgt>
  <wgt id="55">3.19456e-12</wgt>
  <wgt id="56">3.17837e-12</wgt>
  <wgt id="57">3.17528e-12</wgt>
  <wgt id="58">3.19501e-12</wgt>
  <wgt id="59">3.20355e-12</wgt>
  <wgt id="60">3.16835e-12</wgt>
  <wgt id="61">3.1799e-12</wgt>
  <wgt id="62">3.19142e-12</wgt>
  <wgt id="63">3.19411e-12</wgt>
  <wgt id="64">3.19379e-12</wgt>
  <wgt id="65">3.18221e-12</wgt>
  <wgt id="66">3.20128e-12</wgt>
  <wgt id="67">3.19482e-12</wgt>
  <wgt id="68">3.19575e-12</wgt>
  <wgt id="69">3.19039e-12</wgt>
  <wgt id="70">3.18582e-12</wgt>
  <wgt id="71">3.19634e-12</wgt>
  <wgt id="72">3.17962e-12</wgt>
  <wgt id="73">3.20901e-12</wgt>
  <wgt id="74">3.21025e-12</wgt>
  <wgt id="75">3.19426e-12</wgt>
  <wgt id="76">3.21918e-12</wgt>
  <wgt id="77">3.19049e-12</wgt>
  <wgt id="78">3.19399e-12</wgt>
  <wgt id="79">3.20525e-12</wgt>
  <wgt id="80">3.16899e-12</wgt>
  <wgt id="81">3.19562e-12</wgt>
  <wgt id="82">3.20013e-12</wgt>
  <wgt id="83">3.17539e-12</wgt>
  <wgt id="84">3.1852e-12</wgt>
  <wgt id="85">3.18297e-12</wgt>
  <wgt id="86">3.21119e-12</wgt>
  <wgt id="87">3.16495e-12</wgt>
  <wgt id="88">3.20685e-12</wgt>
  <wgt id="89">3.20337e-12</wgt>
  <wgt id="90">3.20901e-12</wgt>
  <wgt id="91">3.20113e-12</wgt>
  <wgt id="92">3.20672e-12</wgt>
  <wgt id="93">3.20071e-12</wgt>
  <wgt id="94">3.18736e-12</wgt>
  <wgt id="95">3.20803e-12</wgt>
  <wgt id="96">3.20578e-12</wgt>
  <wgt id="97">3.18317e-12</wgt>
  <wgt id="98">3.19675e-12</wgt>
  <wgt id="99">3.19258e-12</wgt>
  <wgt id="100">3.20423e-12</wgt>
  <wgt id="101">3.19205e-12</wgt>
  <wgt id="102">3.19041e-12</wgt>
  <wgt id="103">3.20919e-12</wgt>
  <wgt id="104">3.19065e-12</wgt>
  <wgt id="105">3.2049e-12</wgt>
  <wgt id="106">3.18788e-12</wgt>
  <wgt id="107">3.21702e-12</wgt>
  <wgt id="108">3.19046e-12</wgt>
  <wgt id="109">3.1991e-12</wgt>
  <wgt id="110">3.19585e-12</wgt>
  <wgt id="111">3.19864e-12</wgt>
  <wgt id="112">3.23929e-12</wgt>
  <wgt id="113">4.63083e-12</wgt>
  <wgt id="114">4.28395e-12</wgt>
  <wgt id="115">4.20463e-12</wgt>
  <wgt id="116">5.87357e-12</wgt>
  <wgt id="117">3.53601e-12</wgt>
  <wgt id="118">3.54962e-12</wgt>
  <wgt id="119">3.52821e-12</wgt>
  <wgt id="120">3.53604e-12</wgt>
  <wgt id="121">3.53594e-12</wgt>
  <wgt id="122">3.53052e-12</wgt>
  <wgt id="123">3.54362e-12</wgt>
  <wgt id="124">3.53138e-12</wgt>
  <wgt id="125">3.53901e-12</wgt>
  <wgt id="126">3.54141e-12</wgt>
  <wgt id="127">3.53239e-12</wgt>
  <wgt id="128">3.54675e-12</wgt>
  <wgt id="129">3.52528e-12</wgt>
  <wgt id="130">3.55366e-12</wgt>
  <wgt id="131">3.51766e-12</wgt>
  <wgt id="132">3.43664e-12</wgt>
  <wgt id="133">3.65459e-12</wgt>
  <wgt id="134">3.49732e-12</wgt>
  <wgt id="135">3.56637e-12</wgt>
  <wgt id="136">3.59142e-12</wgt>
  <wgt id="137">3.46947e-12</wgt>
  <wgt id="138">3.7003e-12</wgt>
  <wgt id="139">3.38038e-12</wgt>
  <wgt id="140">3.51937e-12</wgt>
  <wgt id="141">3.54857e-12</wgt>
  <wgt id="142">3.5351e-12</wgt>
  <wgt id="143">3.54724e-12</wgt>
  <wgt id="144">3.3845e-12</wgt>
  <wgt id="145">3.68378e-12</wgt>
  <wgt id="146">3.5849e-12</wgt>
  <wgt id="147">3.49596e-12</wgt>
  <wgt id="148">3.54924e-12</wgt>
  <wgt id="149">3.53506e-12</wgt>
  <wgt id="150">3.56612e-12</wgt>
  <wgt id="151">3.52187e-12</wgt>
  <wgt id="152">3.53701e-12</wgt>
  <wgt id="153">3.53564e-12</wgt>
  <wgt id="154">3.54335e-12</wgt>
  <wgt id="155">3.5204e-12</wgt>
  <wgt id="156">3.66054e-12</wgt>
  <wgt id="157">3.42341e-12</wgt>
  <wgt id="158">4.2348e-12</wgt>
  <wgt id="159">4.25287e-12</wgt>
  <wgt id="160">4.2202e-12</wgt>
  <wgt id="161">4.22364e-12</wgt>
  <wgt id="162">4.24721e-12</wgt>
  <wgt id="163">4.22982e-12</wgt>
  <wgt id="164">4.24213e-12</wgt>
  <wgt id="165">4.23636e-12</wgt>
  <wgt id="166">4.23355e-12</wgt>
  <wgt id="167">4.23181e-12</wgt>
  <wgt id="168">4.23884e-12</wgt>
  <wgt id="169">4.21759e-12</wgt>
  <wgt id="170">4.24546e-12</wgt>
  <wgt id="171">4.23139e-12</wgt>
  <wgt id="172">4.23953e-12</wgt>
  <wgt id="173">4.22684e-12</wgt>
  <wgt id="174">4.23746e-12</wgt>
  <wgt id="175">4.10867e-12</wgt>
  <wgt id="176">4.40027e-12</wgt>
  <wgt id="177">4.255e-12</wgt>
  <wgt id="178">4.21646e-12</wgt>
  <wgt id="179">4.45555e-12</wgt>
  <wgt id="180">3.89532e-12</wgt>
  <wgt id="181">4.0901e-12</wgt>
  <wgt id="182">4.33138e-12</wgt>
  <wgt id="183">4.14706e-12</wgt>
  <wgt id="184">4.27836e-12</wgt>
  <wgt id="185">4.18674e-12</wgt>
  <wgt id="186">4.29301e-12</wgt>
  <wgt id="187">4.18638e-12</wgt>
  <wgt id="188">4.32015e-12</wgt>
  <wgt id="189">4.20076e-12</wgt>
  <wgt id="190">4.24855e-12</wgt>
  <wgt id="191">4.2502e-12</wgt>
  <wgt id="192">4.22567e-12</wgt>
  <wgt id="193">4.30781e-12</wgt>
  <wgt id="194">4.19808e-12</wgt>
  <wgt id="195">4.07514e-12</wgt>
  <wgt id="196">4.49508e-12</wgt>
  <wgt id="197">4.25812e-12</wgt>
  <wgt id="198">4.22917e-12</wgt>
  <wgt id="199">4.2348e-12</wgt>
  <wgt id="200">4.2767e-12</wgt>
  <wgt id="201">4.26248e-12</wgt>
  <wgt id="202">4.24869e-12</wgt>
  <wgt id="203">4.22886e-12</wgt>
  <wgt id="204">4.21885e-12</wgt>
  <wgt id="205">4.21068e-12</wgt>
  <wgt id="206">4.13732e-12</wgt>
  <wgt id="207">4.16228e-12</wgt>
  <wgt id="208">4.11263e-12</wgt>
  <wgt id="209">4.15052e-12</wgt>
  <wgt id="210">4.12777e-12</wgt>
  <wgt id="211">4.13573e-12</wgt>
  <wgt id="212">4.13855e-12</wgt>
  <wgt id="213">4.13697e-12</wgt>
  <wgt id="214">4.13787e-12</wgt>
  <wgt id="215">4.14059e-12</wgt>
  <wgt id="216">4.13498e-12</wgt>
  <wgt id="217">4.14716e-12</wgt>
  <wgt id="218">4.12975e-12</wgt>
  <wgt id="219">4.1327e-12</wgt>
  <wgt id="220">4.14009e-12</wgt>
  <wgt id="221">4.13883e-12</wgt>
  <wgt id="222">4.13288e-12</wgt>
  <wgt id="223">3.89639e-12</wgt>
  <wgt id="224">4.35859e-12</wgt>
  <wgt id="225">4.08471e-12</wgt>
  <wgt id="226">4.20433e-12</wgt>
  <wgt id="227">4.09663e-12</wgt>
  <wgt id="228">4.15517e-12</wgt>
  <wgt id="229">4.07654e-12</wgt>
  <wgt id="230">4.16756e-12</wgt>
  <wgt id="231">4.28103e-12</wgt>
  <wgt id="232">4.02002e-12</wgt>
  <wgt id="233">4.11056e-12</wgt>
  <wgt id="234">4.18222e-12</wgt>
  <wgt id="235">3.96151e-12</wgt>
  <wgt id="236">4.28096e-12</wgt>
  <wgt id="237">4.03491e-12</wgt>
  <wgt id="238">4.17147e-12</wgt>
  <wgt id="239">4.09605e-12</wgt>
  <wgt id="240">4.2113e-12</wgt>
  <wgt id="241">4.08552e-12</wgt>
  <wgt id="242">4.19869e-12</wgt>
  <wgt id="243">4.21348e-12</wgt>
  <wgt id="244">4.13715e-12</wgt>
  <wgt id="245">4.13575e-12</wgt>
  <wgt id="246">4.16065e-12</wgt>
  <wgt id="247">4.13732e-12</wgt>
  <wgt id="248">4.18258e-12</wgt>
  <wgt id="249">4.16713e-12</wgt>
  <wgt id="250">4.15067e-12</wgt>
  <wgt id="251">4.12882e-12</wgt>
  <wgt id="252">4.11736e-12</wgt>
  <wgt id="253">4.10969e-12</wgt>
  <wgt id="254">3.989e-12</wgt>
  <wgt id="255">3.99257e-12</wgt>
  <wgt id="256">3.9851e-12</wgt>
  <wgt id="257">3.99211e-12</wgt>
  <wgt id="258">3.98679e-12</wgt>
  <wgt id="259">4.01584e-12</wgt>
  <wgt id="260">3.96313e-12</wgt>
  <wgt id="261">3.99591e-12</wgt>
  <wgt id="262">3.98084e-12</wgt>
  <wgt id="263">3.98596e-12</wgt>
  <wgt id="264">3.99261e-12</wgt>
  <wgt id="265">3.98395e-12</wgt>
  <wgt id="266">3.99914e-12</wgt>
  <wgt id="267">3.99043e-12</wgt>
  <wgt id="268">3.98705e-12</wgt>
  <wgt id="269">4.00189e-12</wgt>
  <wgt id="270">3.98027e-12</wgt>
  <wgt id="271">3.97811e-12</wgt>
  <wgt id="272">4.00118e-12</wgt>
  <wgt id="273">3.97803e-12</wgt>
  <wgt id="274">3.99736e-12</wgt>
  <wgt id="275">3.96414e-12</wgt>
  <wgt id="276">4.01479e-12</wgt>
  <wgt id="277">3.96557e-12</wgt>
  <wgt id="278">4.01039e-12</wgt>
  <wgt id="279">3.91229e-12</wgt>
  <wgt id="280">4.08568e-12</wgt>
  <wgt id="281">3.9693e-12</wgt>
  <wgt id="282">3.99503e-12</wgt>
  <wgt id="283">3.85509e-12</wgt>
  <wgt id="284">4.15651e-12</wgt>
  <wgt id="285">3.76877e-12</wgt>
  <wgt id="286">4.1757e-12</wgt>
  <wgt id="287">4.00347e-12</wgt>
  <wgt id="288">3.97059e-12</wgt>
  <wgt id="289">4.02217e-12</wgt>
  <wgt id="290">3.91603e-12</wgt>
  <wgt id="291">3.97328e-12</wgt>
  <wgt id="292">3.98909e-12</wgt>
  <wgt id="293">3.95302e-12</wgt>
  <wgt id="294">4.02483e-12</wgt>
  <wgt id="295">3.90216e-12</wgt>
  <wgt id="296">4.09556e-12</wgt>
  <wgt id="297">3.97824e-12</wgt>
  <wgt id="298">4.01033e-12</wgt>
  <wgt id="299">3.97506e-12</wgt>
  <wgt id="300">4.02628e-12</wgt>
  <wgt id="301">3.90319e-12</wgt>
  <wgt id="302">4.18553e-12</wgt>
  <wgt id="303">3.94262e-12</wgt>
  <wgt id="304">4.01493e-12</wgt>
  <wgt id="305">3.95072e-12</wgt>
  <wgt id="306">3.95445e-12</wgt>
  <wgt id="307">3.94675e-12</wgt>
  <wgt id="308">3.95412e-12</wgt>
  <wgt id="309">3.94843e-12</wgt>
  <wgt id="310">3.97807e-12</wgt>
  <wgt id="311">3.92546e-12</wgt>
  <wgt id="312">3.95703e-12</wgt>
  <wgt id="313">3.94402e-12</wgt>
  <wgt id="314">3.94754e-12</wgt>
  <wgt id="315">3.95375e-12</wgt>
  <wgt id="316">3.94564e-12</wgt>
  <wgt id="317">3.96178e-12</wgt>
  <wgt id="318">3.95381e-12</wgt>
  <wgt id="319">3.94534e-12</wgt>
  <wgt id="320">3.96451e-12</wgt>
  <wgt id="321">3.94302e-12</wgt>
  <wgt id="322">3.93875e-12</wgt>
  <wgt id="323">3.9646e-12</wgt>
  <wgt id="324">3.94255e-12</wgt>
  <wgt id="325">3.95783e-12</wgt>
  <wgt id="326">3.93032e-12</wgt>
  <wgt id="327">3.97693e-12</wgt>
  <wgt id="328">3.93022e-12</wgt>
  <wgt id="329">3.96204e-12</wgt>
  <wgt id="330">4.0667e-12</wgt>
  <wgt id="331">3.84065e-12</wgt>
  <wgt id="332">3.93436e-12</wgt>
  <wgt id="333">3.95447e-12</wgt>
  <wgt id="334">3.84902e-12</wgt>
  <wgt id="335">4.07858e-12</wgt>
  <wgt id="336">3.79487e-12</wgt>
  <wgt id="337">4.14446e-12</wgt>
  <wgt id="338">4.00077e-12</wgt>
  <wgt id="339">3.90469e-12</wgt>
  <wgt id="340">3.98055e-12</wgt>
  <wgt id="341">3.8775e-12</wgt>
  <wgt id="342">3.93947e-12</wgt>
  <wgt id="343">3.94259e-12</wgt>
  <wgt id="344">3.91932e-12</wgt>
  <wgt id="345">3.9872e-12</wgt>
  <wgt id="346">3.86215e-12</wgt>
  <wgt id="347">4.05236e-12</wgt>
  <wgt id="348">3.94046e-12</wgt>
  <wgt id="349">3.97003e-12</wgt>
  <wgt id="350">3.93346e-12</wgt>
  <wgt id="351">3.99458e-12</wgt>
  <wgt id="352">3.86348e-12</wgt>
  <wgt id="353">4.14221e-12</wgt>
  <wgt id="354">3.88495e-12</wgt>
  <wgt id="355">3.98968e-12</wgt>
  <wgt id="356">3.989e-12</wgt>
  <wgt id="357">3.95305e-12</wgt>
  <wgt id="358">3.95072e-12</wgt>
  <wgt id="359">3.9875e-12</wgt>
  <wgt id="360">4.06168e-12</wgt>
  <wgt id="361">4.01061e-12</wgt>
  <wgt id="362">4.09344e-12</wgt>
  <wgt id="363">4.08262e-12</wgt>
  <wgt id="364">4.06176e-12</wgt>
  <wgt id="365">4.04571e-12</wgt>
  <wgt id="366">4.02949e-12</wgt>
  <wgt id="367">3.99868e-12</wgt>
  <wgt id="368">3.97903e-12</wgt>
  <wgt id="369">3.95779e-12</wgt>
  <wgt id="370">4.01061e-12</wgt>
  <wgt id="371">4.02744e-12</wgt>
  <wgt id="372">4.01794e-12</wgt>
  <wgt id="373">4.00469e-12</wgt>
  <wgt id="374">4.01001e-12</wgt>
  <wgt id="375">4.60704e-12</wgt>
  <wgt id="376">4.60742e-12</wgt>
  <wgt id="377">4.60653e-12</wgt>
  <wgt id="378">4.62473e-12</wgt>
  <wgt id="379">4.58951e-12</wgt>
  <wgt id="380">4.62024e-12</wgt>
  <wgt id="381">4.60178e-12</wgt>
  <wgt id="382">4.62913e-12</wgt>
  <wgt id="383">4.58522e-12</wgt>
  <wgt id="384">4.61004e-12</wgt>
  <wgt id="385">4.60418e-12</wgt>
  <wgt id="386">4.62258e-12</wgt>
  <wgt id="387">4.60037e-12</wgt>
  <wgt id="388">4.60297e-12</wgt>
  <wgt id="389">4.61212e-12</wgt>
  <wgt id="390">4.61778e-12</wgt>
  <wgt id="391">4.59564e-12</wgt>
  <wgt id="392">4.56417e-12</wgt>
  <wgt id="393">4.63131e-12</wgt>
  <wgt id="394">4.61032e-12</wgt>
  <wgt id="395">4.60234e-12</wgt>
  <wgt id="396">4.61569e-12</wgt>
  <wgt id="397">4.60091e-12</wgt>
  <wgt id="398">4.59763e-12</wgt>
  <wgt id="399">4.61611e-12</wgt>
  <wgt id="400">4.59942e-12</wgt>
  <wgt id="401">4.62414e-12</wgt>
  <wgt id="402">4.56253e-12</wgt>
  <wgt id="403">4.63568e-12</wgt>
  <wgt id="404">4.74565e-12</wgt>
  <wgt id="405">4.27848e-12</wgt>
  <wgt id="406">4.5075e-12</wgt>
  <wgt id="407">4.8287e-12</wgt>
  <wgt id="408">4.65919e-12</wgt>
  <wgt id="409">4.51117e-12</wgt>
  <wgt id="410">4.44595e-12</wgt>
  <wgt id="411">4.68486e-12</wgt>
  <wgt id="412">4.5959e-12</wgt>
  <wgt id="413">4.6235e-12</wgt>
  <wgt id="414">4.54293e-12</wgt>
  <wgt id="415">4.65691e-12</wgt>
  <wgt id="416">4.77172e-12</wgt>
  <wgt id="417">4.38168e-12</wgt>
  <wgt id="418">4.61671e-12</wgt>
  <wgt id="419">4.555e-12</wgt>
  <wgt id="420">4.72768e-12</wgt>
  <wgt id="421">4.52675e-12</wgt>
  <wgt id="422">4.57611e-12</wgt>
  <wgt id="423">4.62148e-12</wgt>
  <wgt id="424">4.75303e-12</wgt>
  <wgt id="425">4.508e-12</wgt>
  <wgt id="426">4.60704e-12</wgt>
  <wgt id="427">4.50962e-12</wgt>
  <wgt id="428">4.82953e-12</wgt>
  <wgt id="429">4.6734e-12</wgt>
  <wgt id="430">4.83347e-12</wgt>
  <wgt id="431">4.80069e-12</wgt>
  <wgt id="432">4.77126e-12</wgt>
  <wgt id="433">4.74238e-12</wgt>
  <wgt id="434">4.70519e-12</wgt>
  <wgt id="435">4.63357e-12</wgt>
  <wgt id="436">4.59747e-12</wgt>
  <wgt id="437">4.5622e-12</wgt>
  <wgt id="438">4.6734e-12</wgt>
  <wgt id="439">4.68763e-12</wgt>
  <wgt id="440">4.67872e-12</wgt>
  <wgt id="441">4.66969e-12</wgt>
  <wgt id="442">4.66683e-12</wgt>
  <wgt id="443">4.18968e-12</wgt>
  <wgt id="444">4.23585e-12</wgt>
  <wgt id="445">4.2342e-12</wgt>
  <wgt id="446">4.15888e-12</wgt>
  <wgt id="447">4.18927e-12</wgt>
  <wgt id="448">4.08516e-12</wgt>
  <wgt id="449">4.28219e-12</wgt>
  <wgt id="450">4.24518e-12</wgt>
  <wgt id="451">4.17738e-12</wgt>
  <wgt id="452">4.28544e-12</wgt>
  <wgt id="453">4.24752e-12</wgt>
  <wgt id="454">3.96348e-12</wgt>
  <wgt id="455">4.22637e-12</wgt>
  <wgt id="456">4.26921e-12</wgt>
  <wgt id="457">4.20466e-12</wgt>
  <wgt id="458">4.26663e-12</wgt>
  <wgt id="459">4.22868e-12</wgt>
  <wgt id="460">4.27844e-12</wgt>
  <wgt id="461">4.08342e-12</wgt>
  <wgt id="462">4.15691e-12</wgt>
  <wgt id="463">4.11962e-12</wgt>
  <wgt id="464">4.16777e-12</wgt>
  <wgt id="465">4.23704e-12</wgt>
  <wgt id="466">4.08134e-12</wgt>
  <wgt id="467">4.15551e-12</wgt>
  <wgt id="468">4.18664e-12</wgt>
  <wgt id="469">4.17707e-12</wgt>
  <wgt id="470">4.12042e-12</wgt>
  <wgt id="471">4.13326e-12</wgt>
  <wgt id="472">4.22132e-12</wgt>
  <wgt id="473">4.04232e-12</wgt>
  <wgt id="474">3.0282e-12</wgt>
  <wgt id="475">3.03037e-12</wgt>
  <wgt id="476">3.01812e-12</wgt>
  <wgt id="477">3.09871e-12</wgt>
  <wgt id="478">3.07568e-12</wgt>
  <wgt id="479">2.866e-12</wgt>
  <wgt id="480">3.19608e-12</wgt>
  <wgt id="481">3.04881e-12</wgt>
  <wgt id="482">3.03835e-12</wgt>
  <wgt id="483">3.06154e-12</wgt>
  <wgt id="484">3.16707e-12</wgt>
  <wgt id="485">2.76061e-12</wgt>
  <wgt id="486">3.18301e-12</wgt>
  <wgt id="487">2.93423e-12</wgt>
  <wgt id="488">3.05124e-12</wgt>
  <wgt id="489">2.69907e-12</wgt>
  <wgt id="490">2.98532e-12</wgt>
  <wgt id="491">2.98298e-12</wgt>
  <wgt id="492">2.97596e-12</wgt>
  <wgt id="493">2.78164e-12</wgt>
  <wgt id="494">2.79129e-12</wgt>
  <wgt id="495">3.04469e-12</wgt>
  <wgt id="496">2.85992e-12</wgt>
  <wgt id="497">2.81941e-12</wgt>
  <wgt id="498">3.11609e-12</wgt>
  <wgt id="499">3.06015e-12</wgt>
  <wgt id="500">3.0034e-12</wgt>
  <wgt id="501">3.1591e-12</wgt>
  <wgt id="502">3.16905e-12</wgt>
  <wgt id="503">2.96649e-12</wgt>
  <wgt id="504">3.13353e-12</wgt>
  <wgt id="505">3.163e-12</wgt>
  <wgt id="506">2.79239e-12</wgt>
  <wgt id="507">2.9586e-12</wgt>
  <wgt id="508">3.19782e-12</wgt>
  <wgt id="509">2.92273e-12</wgt>
  <wgt id="510">3.04764e-12</wgt>
  <wgt id="511">2.86263e-12</wgt>
  <wgt id="512">3.25406e-12</wgt>
  <wgt id="513">3.16849e-12</wgt>
  <wgt id="514">3.21636e-12</wgt>
  <wgt id="515">3.12847e-12</wgt>
  <wgt id="516">3.36877e-12</wgt>
  <wgt id="517">3.10507e-12</wgt>
  <wgt id="518">3.15265e-12</wgt>
  <wgt id="519">2.90262e-12</wgt>
  <wgt id="520">3.06582e-12</wgt>
  <wgt id="521">2.9464e-12</wgt>
  <wgt id="522">3.15e-12</wgt>
  <wgt id="523">2.87385e-12</wgt>
  <wgt id="524">3.10994e-12</wgt>
  <wgt id="525">2.95122e-12</wgt>
  <wgt id="526">3.20199e-12</wgt>
  <wgt id="527">2.98918e-12</wgt>
  <wgt id="528">3.01183e-12</wgt>
  <wgt id="529">2.87135e-12</wgt>
  <wgt id="530">3.19437e-12</wgt>
  <wgt id="531">2.89181e-12</wgt>
  <wgt id="532">3.29718e-12</wgt>
  <wgt id="533">3.02575e-12</wgt>
  <wgt id="534">2.89399e-12</wgt>
  <wgt id="535">3.08209e-12</wgt>
  <wgt id="536">3.1454e-12</wgt>
  <wgt id="537">2.85938e-12</wgt>
  <wgt id="538">3.00285e-12</wgt>
  <wgt id="539">2.95212e-12</wgt>
  <wgt id="540">3.20622e-12</wgt>
  <wgt id="541">3.01607e-12</wgt>
  <wgt id="542">2.95198e-12</wgt>
  <wgt id="543">2.90783e-12</wgt>
  <wgt id="544">3.05322e-12</wgt>
  <wgt id="545">2.85091e-12</wgt>
  <wgt id="546">2.77692e-12</wgt>
  <wgt id="547">2.91141e-12</wgt>
  <wgt id="548">2.93051e-12</wgt>
  <wgt id="549">2.96761e-12</wgt>
  <wgt id="550">2.92551e-12</wgt>
  <wgt id="551">3.03418e-12</wgt>
  <wgt id="552">2.78322e-12</wgt>
  <wgt id="553">2.82126e-12</wgt>
  <wgt id="554">3.18094e-12</wgt>
  <wgt id="555">3.1019e-12</wgt>
  <wgt id="556">2.98532e-12</wgt>
  <wgt id="557">3.08797e-12</wgt>
  <wgt id="558">2.99945e-12</wgt>
  <wgt id="559">3.06505e-12</wgt>
  <wgt id="560">3.3586e-12</wgt>
  <wgt id="561">3.12196e-12</wgt>
  <wgt id="562">3.14526e-12</wgt>
  <wgt id="563">3.34931e-12</wgt>
  <wgt id="564">3.21847e-12</wgt>
  <wgt id="565">3.16064e-12</wgt>
  <wgt id="566">2.91038e-12</wgt>
  <wgt id="567">3.03192e-12</wgt>
  <wgt id="568">2.90351e-12</wgt>
  <wgt id="569">3.0585e-12</wgt>
  <wgt id="570">3.0532e-12</wgt>
  <wgt id="571">3.36537e-12</wgt>
  <wgt id="572">2.9126e-12</wgt>
  <wgt id="573">2.94003e-12</wgt>
  <wgt id="574">2.96115e-12</wgt>
  <wgt id="575">3.35102e-12</wgt>
  <wgt id="576">3.68007e-12</wgt>
  <wgt id="577">3.49146e-12</wgt>
  <wgt id="578">3.37913e-12</wgt>
  <wgt id="579">3.48494e-12</wgt>
  <wgt id="580">3.57632e-12</wgt>
  <wgt id="581">3.70912e-12</wgt>
  <wgt id="582">3.60097e-12</wgt>
  <wgt id="583">3.42954e-12</wgt>
  <wgt id="584">3.3139e-12</wgt>
  <wgt id="585">3.08481e-12</wgt>
  <wgt id="586">3.13785e-12</wgt>
  <wgt id="587">3.41785e-12</wgt>
  <wgt id="588">3.71579e-12</wgt>
  <wgt id="589">3.69699e-12</wgt>
  <wgt id="590">3.32948e-12</wgt>
  <wgt id="591">3.44696e-12</wgt>
  <wgt id="592">3.13936e-12</wgt>
  <wgt id="593">3.23868e-12</wgt>
  <wgt id="594">3.25376e-12</wgt>
  <wgt id="595">3.54875e-12</wgt>
  <wgt id="596">3.98342e-12</wgt>
  <wgt id="597">3.40739e-12</wgt>
  <wgt id="598">3.43225e-12</wgt>
  <wgt id="599">3.58999e-12</wgt>
  <wgt id="600">3.62503e-12</wgt>
  <wgt id="601">3.20372e-12</wgt>
  <wgt id="602">3.23131e-12</wgt>
  <wgt id="603">3.11688e-12</wgt>
  <wgt id="604">3.44941e-12</wgt>
  <wgt id="605">3.36901e-12</wgt>
  <wgt id="606">3.40714e-12</wgt>
  <wgt id="607">3.5295e-12</wgt>
  <wgt id="608">3.48274e-12</wgt>
  <wgt id="609">3.31021e-12</wgt>
  <wgt id="610">3.18796e-12</wgt>
  <wgt id="611">3.17921e-12</wgt>
  <wgt id="612">3.45039e-12</wgt>
  <wgt id="613">3.17668e-12</wgt>
  <wgt id="614">3.31993e-12</wgt>
  <wgt id="615">3.42695e-12</wgt>
  <wgt id="616">3.17692e-12</wgt>
  <wgt id="617">3.49037e-12</wgt>
  <wgt id="618">3.69189e-12</wgt>
  <wgt id="619">3.28211e-12</wgt>
  <wgt id="620">3.45291e-12</wgt>
  <wgt id="621">3.30433e-12</wgt>
  <wgt id="622">3.41785e-12</wgt>
  <wgt id="623">3.34947e-12</wgt>
  <wgt id="624">3.36507e-12</wgt>
  <wgt id="625">3.17818e-12</wgt>
  <wgt id="626">2.93117e-12</wgt>
  <wgt id="627">3.00186e-12</wgt>
  <wgt id="628">3.32454e-12</wgt>
  <wgt id="629">3.46476e-12</wgt>
  <wgt id="630">3.26114e-12</wgt>
  <wgt id="631">3.45333e-12</wgt>
  <wgt id="632">3.04436e-12</wgt>
  <wgt id="633">3.32788e-12</wgt>
  <wgt id="634">3.19192e-12</wgt>
  <wgt id="635">3.0814e-12</wgt>
  <wgt id="636">3.38117e-12</wgt>
  <wgt id="637">3.33957e-12</wgt>
  <wgt id="638">3.18097e-12</wgt>
  <wgt id="639">3.18471e-12</wgt>
  <wgt id="640">3.25094e-12</wgt>
  <wgt id="641">3.52732e-12</wgt>
  <wgt id="642">3.0106e-12</wgt>
  <wgt id="643">3.25081e-12</wgt>
  <wgt id="644">3.00302e-12</wgt>
  <wgt id="645">3.34432e-12</wgt>
  <wgt id="646">3.03656e-12</wgt>
  <wgt id="647">3.4099e-12</wgt>
  <wgt id="648">3.53141e-12</wgt>
  <wgt id="649">3.3705e-12</wgt>
  <wgt id="650">3.19964e-12</wgt>
  <wgt id="651">3.59821e-12</wgt>
  <wgt id="652">3.19493e-12</wgt>
  <wgt id="653">3.2086e-12</wgt>
  <wgt id="654">3.41383e-12</wgt>
  <wgt id="655">3.18567e-12</wgt>
  <wgt id="656">3.36319e-12</wgt>
  <wgt id="657">3.68749e-12</wgt>
  <wgt id="658">3.35702e-12</wgt>
  <wgt id="659">3.2045e-12</wgt>
  <wgt id="660">3.21366e-12</wgt>
  <wgt id="661">3.25182e-12</wgt>
  <wgt id="662">3.29203e-12</wgt>
  <wgt id="663">3.4204e-12</wgt>
  <wgt id="664">3.40954e-12</wgt>
  <wgt id="665">3.29998e-12</wgt>
  <wgt id="666">3.26367e-12</wgt>
  <wgt id="667">3.54631e-12</wgt>
  <wgt id="668">3.29526e-12</wgt>
  <wgt id="669">3.32799e-12</wgt>
  <wgt id="670">3.52938e-12</wgt>
  <wgt id="671">3.39629e-12</wgt>
  <wgt id="672">3.28379e-12</wgt>
  <wgt id="673">3.59359e-12</wgt>
  <wgt id="674">3.23719e-12</wgt>
  <wgt id="675">3.20343e-12</wgt>
  <wgt id="676">4.36991e-12</wgt>
  <wgt id="677">4.41025e-12</wgt>
  <wgt id="678">4.83494e-12</wgt>
  <wgt id="679">4.54561e-12</wgt>
  <wgt id="680">4.41116e-12</wgt>
  <wgt id="681">4.24513e-12</wgt>
  <wgt id="682">4.6003e-12</wgt>
  <wgt id="683">3.97004e-12</wgt>
  <wgt id="684">4.63335e-12</wgt>
  <wgt id="685">4.37044e-12</wgt>
  <wgt id="686">4.50876e-12</wgt>
  <wgt id="687">4.5103e-12</wgt>
  <wgt id="688">4.22379e-12</wgt>
  <wgt id="689">4.59348e-12</wgt>
  <wgt id="690">4.49644e-12</wgt>
  <wgt id="691">4.47162e-12</wgt>
  <wgt id="692">4.2478e-12</wgt>
  <wgt id="693">5.92742e-12</wgt>
  <wgt id="694">4.85159e-12</wgt>
  <wgt id="695">4.05095e-12</wgt>
  <wgt id="696">4.15046e-12</wgt>
  <wgt id="697">3.88689e-12</wgt>
  <wgt id="698">3.54137e-12</wgt>
  <wgt id="699">3.65388e-12</wgt>
  <wgt id="700">3.84503e-12</wgt>
  <wgt id="701">4.36664e-12</wgt>
  <wgt id="702">4.16223e-12</wgt>
  <wgt id="703">5.52996e-12</wgt>
  <wgt id="704">4.95604e-12</wgt>
  <wgt id="705">4.93793e-12</wgt>
  <wgt id="706">4.03695e-12</wgt>
  <wgt id="707">4.06496e-12</wgt>
  <wgt id="708">4.14179e-12</wgt>
  <wgt id="709">4.21439e-12</wgt>
  <wgt id="710">3.56805e-12</wgt>
  <wgt id="711">4.71965e-12</wgt>
  <wgt id="712">4.07625e-12</wgt>
  <wgt id="713">4.7163e-12</wgt>
  <wgt id="714">3.88209e-12</wgt>
  <wgt id="715">4.13951e-12</wgt>
  <wgt id="716">4.19044e-12</wgt>
  <wgt id="717">3.73827e-12</wgt>
  <wgt id="718">4.47392e-12</wgt>
  <wgt id="719">3.979e-12</wgt>
  <wgt id="720">4.50831e-12</wgt>
  <wgt id="721">3.70284e-12</wgt>
  <wgt id="722">3.35285e-12</wgt>
  <wgt id="723">4.97879e-12</wgt>
  <wgt id="724">4.77563e-12</wgt>
  <wgt id="725">4.58725e-12</wgt>
  <wgt id="726">4.34364e-12</wgt>
  <wgt id="727">4.40159e-12</wgt>
  <wgt id="728">4.30975e-12</wgt>
  <wgt id="729">3.92606e-12</wgt>
  <wgt id="730">4.88976e-12</wgt>
  <wgt id="731">4.30683e-12</wgt>
  <wgt id="732">5.14731e-12</wgt>
  <wgt id="733">4.02758e-12</wgt>
  <wgt id="734">4.53869e-12</wgt>
  <wgt id="735">4.34732e-12</wgt>
  <wgt id="736">4.01497e-12</wgt>
  <wgt id="737">3.98574e-12</wgt>
  <wgt id="738">4.14078e-12</wgt>
  <wgt id="739">4.64464e-12</wgt>
  <wgt id="740">5.25843e-12</wgt>
  <wgt id="741">4.63558e-12</wgt>
  <wgt id="742">4.14035e-12</wgt>
  <wgt id="743">3.95167e-12</wgt>
  <wgt id="744">4.27719e-12</wgt>
  <wgt id="745">4.83643e-12</wgt>
  <wgt id="746">4.97698e-12</wgt>
  <wgt id="747">3.5824e-12</wgt>
  <wgt id="748">4.18672e-12</wgt>
  <wgt id="749">4.56679e-12</wgt>
  <wgt id="750">4.73865e-12</wgt>
  <wgt id="751">4.41096e-12</wgt>
  <wgt id="752">3.90356e-12</wgt>
  <wgt id="753">3.87178e-12</wgt>
  <wgt id="754">4.57246e-12</wgt>
  <wgt id="755">4.25247e-12</wgt>
  <wgt id="756">4.21941e-12</wgt>
  <wgt id="757">3.72269e-12</wgt>
  <wgt id="758">4.24504e-12</wgt>
  <wgt id="759">4.79194e-12</wgt>
  <wgt id="760">4.15826e-12</wgt>
  <wgt id="761">4.90456e-12</wgt>
  <wgt id="762">4.92903e-12</wgt>
  <wgt id="763">4.51793e-12</wgt>
  <wgt id="764">4.71185e-12</wgt>
  <wgt id="765">4.42632e-12</wgt>
  <wgt id="766">4.44578e-12</wgt>
  <wgt id="767">4.47007e-12</wgt>
  <wgt id="768">3.94135e-12</wgt>
  <wgt id="769">4.6021e-12</wgt>
  <wgt id="770">4.04497e-12</wgt>
  <wgt id="771">5.45652e-12</wgt>
  <wgt id="772">4.24726e-12</wgt>
  <wgt id="773">4.40496e-12</wgt>
  <wgt id="774">3.40982e-12</wgt>
  <wgt id="775">4.59326e-12</wgt>
  <wgt id="776">5.13421e-12</wgt>
  <wgt id="777">3.80488e-12</wgt>
  <wgt id="778">2.78398e-12</wgt>
  <wgt id="779">1.60372e-12</wgt>
  <wgt id="780">8.54165e-13</wgt>
  <wgt id="781">3.1451e-12</wgt>
  <wgt id="782">3.45509e-12</wgt>
  <wgt id="783">1.3692e-12</wgt>
  <wgt id="784">1.83987e-12</wgt>
  <wgt id="785">4.29406e-12</wgt>
  <wgt id="786">1.3408e-12</wgt>
  <wgt id="787">3.73662e-12</wgt>
  <wgt id="788">2.53629e-13</wgt>
  <wgt id="789">1.8041e-12</wgt>
  <wgt id="790">1.40068e-12</wgt>
  <wgt id="791">3.30048e-12</wgt>
  <wgt id="792">3.8253e-12</wgt>
  <wgt id="793">2.55857e-12</wgt>
  <wgt id="794">1.24355e-12</wgt>
  <wgt id="795">4.01908e-12</wgt>
  <wgt id="796">4.07564e-12</wgt>
  <wgt id="797">3.68167e-12</wgt>
  <wgt id="798">2.03729e-12</wgt>
  <wgt id="799">3.67859e-12</wgt>
  <wgt id="800">2.05091e-12</wgt>
  <wgt id="801">2.79179e-12</wgt>
  <wgt id="802">1.1908e-12</wgt>
  <wgt id="803">4.60808e-12</wgt>
  <wgt id="804">4.02434e-12</wgt>
  <wgt id="805">3.90982e-12</wgt>
  <wgt id="806">3.12239e-12</wgt>
  <wgt id="807">2.76116e-12</wgt>
  <wgt id="808">2.70084e-12</wgt>
  <wgt id="809">2.46142e-12</wgt>
  <wgt id="810">3.58179e-12</wgt>
  <wgt id="811">2.94898e-12</wgt>
  <wgt id="812">1.44115e-12</wgt>
  <wgt id="813">1.56914e-12</wgt>
  <wgt id="814">1.82074e-12</wgt>
  <wgt id="815">1.42429e-12</wgt>
  <wgt id="816">1.67295e-12</wgt>
  <wgt id="817">2.85526e-12</wgt>
  <wgt id="818">3.92253e-12</wgt>
  <wgt id="819">1.56583e-12</wgt>
  <wgt id="820">2.58654e-12</wgt>
  <wgt id="821">3.49593e-12</wgt>
  <wgt id="822">2.21228e-12</wgt>
  <wgt id="823">3.72055e-12</wgt>
  <wgt id="824">4.3336e-12</wgt>
  <wgt id="825">1.07242e-12</wgt>
  <wgt id="826">3.69181e-12</wgt>
  <wgt id="827">1.01288e-12</wgt>
  <wgt id="828">3.67597e-12</wgt>
  <wgt id="829">2.89788e-12</wgt>
  <wgt id="830">1.02753e-12</wgt>
  <wgt id="831">3.41943e-12</wgt>
  <wgt id="832">5.27058e-12</wgt>
  <wgt id="833">2.14077e-12</wgt>
  <wgt id="834">5.18182e-12</wgt>
  <wgt id="835">1.80223e-12</wgt>
  <wgt id="836">2.16581e-12</wgt>
  <wgt id="837">3.39527e-12</wgt>
  <wgt id="838">2.11716e-12</wgt>
  <wgt id="839">3.42979e-12</wgt>
  <wgt id="840">2.32808e-12</wgt>
  <wgt id="841">4.1175e-12</wgt>
  <wgt id="842">2.85336e-12</wgt>
  <wgt id="843">3.04622e-12</wgt>
  <wgt id="844">3.20856e-12</wgt>
  <wgt id="845">5.28156e-12</wgt>
  <wgt id="846">2.70248e-12</wgt>
  <wgt id="847">3.04938e-12</wgt>
  <wgt id="848">1.4861e-12</wgt>
  <wgt id="849">3.14862e-12</wgt>
  <wgt id="850">4.58927e-12</wgt>
  <wgt id="851">3.42932e-12</wgt>
  <wgt id="852">1.16281e-12</wgt>
  <wgt id="853">3.60935e-12</wgt>
  <wgt id="854">4.14181e-12</wgt>
  <wgt id="855">3.58442e-12</wgt>
  <wgt id="856">1.00829e-12</wgt>
  <wgt id="857">2.33832e-12</wgt>
  <wgt id="858">2.66749e-12</wgt>
  <wgt id="859">2.69368e-12</wgt>
  <wgt id="860">3.74484e-12</wgt>
  <wgt id="861">2.21809e-12</wgt>
  <wgt id="862">2.90846e-12</wgt>
  <wgt id="863">3.34938e-12</wgt>
  <wgt id="864">2.87533e-12</wgt>
  <wgt id="865">4.82098e-12</wgt>
  <wgt id="866">5.30392e-12</wgt>
  <wgt id="867">2.84231e-12</wgt>
  <wgt id="868">3.00164e-12</wgt>
  <wgt id="869">1.37579e-12</wgt>
  <wgt id="870">1.78619e-12</wgt>
  <wgt id="871">1.86085e-12</wgt>
  <wgt id="872">4.31264e-12</wgt>
  <wgt id="873">2.13052e-12</wgt>
  <wgt id="874">3.19384e-12</wgt>
  <wgt id="875">2.03341e-12</wgt>
  <wgt id="876">4.08488e-12</wgt>
  <wgt id="877">3.27663e-12</wgt>
  <wgt id="878">2.21303e-12</wgt>
  <wgt id="879">4.36991e-12</wgt>
  <wgt id="880">4.41025e-12</wgt>
  <wgt id="881">4.83494e-12</wgt>
  <wgt id="882">4.54561e-12</wgt>
  <wgt id="883">4.41116e-12</wgt>
  <wgt id="884">4.24513e-12</wgt>
  <wgt id="885">4.6003e-12</wgt>
  <wgt id="886">3.97004e-12</wgt>
  <wgt id="887">4.63335e-12</wgt>
  <wgt id="888">4.37044e-12</wgt>
  <wgt id="889">4.50876e-12</wgt>
  <wgt id="890">4.5103e-12</wgt>
  <wgt id="891">4.22379e-12</wgt>
  <wgt id="892">4.59348e-12</wgt>
  <wgt id="893">4.49644e-12</wgt>
  <wgt id="894">4.47162e-12</wgt>
  <wgt id="895">4.2478e-12</wgt>
  <wgt id="896">5.92742e-12</wgt>
  <wgt id="897">4.85159e-12</wgt>
  <wgt id="898">4.05095e-12</wgt>
  <wgt id="899">4.15046e-12</wgt>
  <wgt id="900">3.88689e-12</wgt>
  <wgt id="901">3.54137e-12</wgt>
  <wgt id="902">3.65388e-12</wgt>
  <wgt id="903">3.84503e-12</wgt>
  <wgt id="904">4.36664e-12</wgt>
  <wgt id="905">4.16223e-12</wgt>
  <wgt id="906">5.52996e-12</wgt>
  <wgt id="907">4.95604e-12</wgt>
  <wgt id="908">4.93793e-12</wgt>
  <wgt id="909">4.03695e-12</wgt>
  <wgt id="910">4.06496e-12</wgt>
  <wgt id="911">4.14179e-12</wgt>
  <wgt id="912">4.21439e-12</wgt>
  <wgt id="913">3.56805e-12</wgt>
  <wgt id="914">4.71965e-12</wgt>
  <wgt id="915">4.07625e-12</wgt>
  <wgt id="916">4.7163e-12</wgt>
  <wgt id="917">3.88209e-12</wgt>
  <wgt id="918">4.13951e-12</wgt>
  <wgt id="919">4.19044e-12</wgt>
  <wgt id="920">3.73827e-12</wgt>
  <wgt id="921">4.47392e-12</wgt>
  <wgt id="922">3.979e-12</wgt>
  <wgt id="923">4.50831e-12</wgt>
  <wgt id="924">3.70284e-12</wgt>
  <wgt id="925">3.35285e-12</wgt>
  <wgt id="926">4.97879e-12</wgt>
  <wgt id="927">4.77563e-12</wgt>
  <wgt id="928">4.58725e-12</wgt>
  <wgt id="929">4.34364e-12</wgt>
  <wgt id="930">4.40159e-12</wgt>
  <wgt id="931">4.30975e-12</wgt>
  <wgt id="932">3.92606e-12</wgt>
  <wgt id="933">4.88976e-12</wgt>
  <wgt id="934">4.30683e-12</wgt>
  <wgt id="935">5.14731e-12</wgt>
  <wgt id="936">4.02758e-12</wgt>
  <wgt id="937">4.53869e-12</wgt>
  <wgt id="938">4.34732e-12</wgt>
  <wgt id="939">4.01497e-12</wgt>
  <wgt id="940">3.98574e-12</wgt>
  <wgt id="941">4.14078e-12</wgt>
  <wgt id="942">4.64464e-12</wgt>
  <wgt id="943">5.25843e-12</wgt>
  <wgt id="944">4.63558e-12</wgt>
  <wgt id="945">4.14035e-12</wgt>
  <wgt id="946">3.95167e-12</wgt>
  <wgt id="947">4.27719e-12</wgt>
  <wgt id="948">4.83643e-12</wgt>
  <wgt id="949">4.97698e-12</wgt>
  <wgt id="950">3.5824e-12</wgt>
  <wgt id="951">4.18672e-12</wgt>
  <wgt id="952">4.56679e-12</wgt>
  <wgt id="953">4.73865e-12</wgt>
  <wgt id="954">4.41096e-12</wgt>
  <wgt id="955">3.90356e-12</wgt>
  <wgt id="956">3.87178e-12</wgt>
  <wgt id="957">4.57246e-12</wgt>
  <wgt id="958">4.25247e-12</wgt>
  <wgt id="959">4.21941e-12</wgt>
  <wgt id="960">3.72269e-12</wgt>
  <wgt id="961">4.24504e-12</wgt>
  <wgt id="962">4.79194e-12</wgt>
  <wgt id="963">4.15826e-12</wgt>
  <wgt id="964">4.90456e-12</wgt>
  <wgt id="965">4.92903e-12</wgt>
  <wgt id="966">4.51793e-12</wgt>
  <wgt id="967">4.71185e-12</wgt>
  <wgt id="968">4.42632e-12</wgt>
  <wgt id="969">4.44578e-12</wgt>
  <wgt id="970">4.47007e-12</wgt>
  <wgt id="971">3.94135e-12</wgt>
  <wgt id="972">4.6021e-12</wgt>
  <wgt id="973">4.04497e-12</wgt>
  <wgt id="974">5.45652e-12</wgt>
  <wgt id="975">4.24726e-12</wgt>
  <wgt id="976">4.40496e-12</wgt>
  <wgt id="977">3.40982e-12</wgt>
  <wgt id="978">4.59326e-12</wgt>
  <wgt id="979">5.13421e-12</wgt>
  <wgt id="980">4.33696e-12</wgt>
  <wgt id="981">4.48418e-12</wgt>
  <wgt id="982">4.2388e-12</wgt>
</rwgt>
</event>
<event>
 5   1  0.3028200E-11  0.2596862E+04  0.7818608E-02  0.7613962E-01
       21   -1    0    0  502  501  0.00000000000E+00  0.00000000000E+00  0.13922255505E+04  0.13922255505E+04  0.00000000000E+00 0.  1.
       21   -1    0    0  501  502 -0.00000000000E+00 -0.00000000000E+00 -0.12109556846E+04  0.12109556846E+04  0.00000000000E+00 0. -1.
       39    2    1    2    0    0  0.00000000000E+00  0.00000000000E+00  0.18126986590E+03  0.26031812352E+04  0.25968622949E+04 0.  0.
       25    1    3    3    0    0  0.69033110540E+03  0.68038620703E+03  0.94759288558E+03  0.13612640092E+04  0.12500000000E+03 0.  0.
       25    1    3    3    0    0 -0.69033110540E+03 -0.68038620703E+03 -0.76632301969E+03  0.12419172260E+04  0.12500000000E+03 0.  0.
<mgrwt>
<rscale>  0 0.25968623E+04</rscale>
<asrwt>0</asrwt>
<pdfrwt beam="1">  1       21 0.21418855E+00 0.25968623E+04</pdfrwt>
<pdfrwt beam="2">  1       21 0.18630087E+00 0.25968623E+04</pdfrwt>
<totfact> 0.58688258E+00</totfact>
</mgrwt>
<rwgt>
  <wgt id="1">3.0282e-12</wgt>
  <wgt id="2">2.62072e-12</wgt>
  <wgt id="3">3.53769e-12</wgt>
  <wgt id="4">3.0282e-12</wgt>
  <wgt id="5">2.62072e-12</wgt>
  <wgt id="6">3.53769e-12</wgt>
  <wgt id="7">3.0282e-12</wgt>
  <wgt id="8">2.62072e-12</wgt>
  <wgt id="9">3.53769e-12</wgt>
  <wgt id="10">3.16507e-12</wgt>
  <wgt id="11">3.16169e-12</wgt>
  <wgt id="12">3.15874e-12</wgt>
  <wgt id="13">3.15389e-12</wgt>
  <wgt id="14">3.17728e-12</wgt>
  <wgt id="15">3.17024e-12</wgt>
  <wgt id="16">3.15957e-12</wgt>
  <wgt id="17">3.17042e-12</wgt>
  <wgt id="18">3.15719e-12</wgt>
  <wgt id="19">3.17327e-12</wgt>
  <wgt id="20">3.155e-12</wgt>
  <wgt id="21">3.14467e-12</wgt>
  <wgt id="22">3.15278e-12</wgt>
  <wgt id="23">3.1352e-12</wgt>
  <wgt id="24">3.15065e-12</wgt>
  <wgt id="25">3.15817e-12</wgt>
  <wgt id="26">3.17899e-12</wgt>
  <wgt id="27">3.16558e-12</wgt>
  <wgt id="28">3.15117e-12</wgt>
  <wgt id="29">3.16742e-12</wgt>
  <wgt id="30">3.15878e-12</wgt>
  <wgt id="31">3.17329e-12</wgt>
  <wgt id="32">3.16328e-12</wgt>
  <wgt id="33">3.17461e-12</wgt>
  <wgt id="34">3.15477e-12</wgt>
  <wgt id="35">3.16666e-12</wgt>
  <wgt id="36">3.1787e-12</wgt>
  <wgt id="37">3.15692e-12</wgt>
  <wgt id="38">3.15349e-12</wgt>
  <wgt id="39">3.19672e-12</wgt>
  <wgt id="40">3.17046e-12</wgt>
  <wgt id="41">3.16468e-12</wgt>
  <wgt id="42">3.16803e-12</wgt>
  <wgt id="43">3.16296e-12</wgt>
  <wgt id="44">3.15896e-12</wgt>
  <wgt id="45">3.17526e-12</wgt>
  <wgt id="46">3.1729e-12</wgt>
  <wgt id="47">3.15412e-12</wgt>
  <wgt id="48">3.16385e-12</wgt>
  <wgt id="49">3.16435e-12</wgt>
  <wgt id="50">3.18124e-12</wgt>
  <wgt id="51">3.18128e-12</wgt>
  <wgt id="52">3.17067e-12</wgt>
  <wgt id="53">3.13458e-12</wgt>
  <wgt id="54">3.15653e-12</wgt>
  <wgt id="55">3.16547e-12</wgt>
  <wgt id="56">3.17871e-12</wgt>
  <wgt id="57">3.17554e-12</wgt>
  <wgt id="58">3.14186e-12</wgt>
  <wgt id="59">3.1521e-12</wgt>
  <wgt id="60">3.16678e-12</wgt>
  <wgt id="61">3.151e-12</wgt>
  <wgt id="62">3.16093e-12</wgt>
  <wgt id="63">3.16602e-12</wgt>
  <wgt id="64">3.1685e-12</wgt>
  <wgt id="65">3.16989e-12</wgt>
  <wgt id="66">3.15973e-12</wgt>
  <wgt id="67">3.15484e-12</wgt>
  <wgt id="68">3.16139e-12</wgt>
  <wgt id="69">3.16586e-12</wgt>
  <wgt id="70">3.16269e-12</wgt>
  <wgt id="71">3.16625e-12</wgt>
  <wgt id="72">3.1606e-12</wgt>
  <wgt id="73">3.16668e-12</wgt>
  <wgt id="74">3.16811e-12</wgt>
  <wgt id="75">3.15982e-12</wgt>
  <wgt id="76">3.17502e-12</wgt>
  <wgt id="77">3.1645e-12</wgt>
  <wgt id="78">3.16559e-12</wgt>
  <wgt id="79">3.17238e-12</wgt>
  <wgt id="80">3.1502e-12</wgt>
  <wgt id="81">3.16095e-12</wgt>
  <wgt id="82">3.16502e-12</wgt>
  <wgt id="83">3.15025e-12</wgt>
  <wgt id="84">3.15772e-12</wgt>
  <wgt id="85">3.15709e-12</wgt>
  <wgt id="86">3.17534e-12</wgt>
  <wgt id="87">3.14502e-12</wgt>
  <wgt id="88">3.16984e-12</wgt>
  <wgt id="89">3.16864e-12</wgt>
  <wgt id="90">3.17105e-12</wgt>
  <wgt id="91">3.16793e-12</wgt>
  <wgt id="92">3.17215e-12</wgt>
  <wgt id="93">3.16485e-12</wgt>
  <wgt id="94">3.16118e-12</wgt>
  <wgt id="95">3.16811e-12</wgt>
  <wgt id="96">3.16789e-12</wgt>
  <wgt id="97">3.15962e-12</wgt>
  <wgt id="98">3.16643e-12</wgt>
  <wgt id="99">3.16297e-12</wgt>
  <wgt id="100">3.16815e-12</wgt>
  <wgt id="101">3.16355e-12</wgt>
  <wgt id="102">3.16088e-12</wgt>
  <wgt id="103">3.17063e-12</wgt>
  <wgt id="104">3.16255e-12</wgt>
  <wgt id="105">3.16901e-12</wgt>
  <wgt id="106">3.15994e-12</wgt>
  <wgt id="107">3.1749e-12</wgt>
  <wgt id="108">3.16164e-12</wgt>
  <wgt id="109">3.16536e-12</wgt>
  <wgt id="110">3.16511e-12</wgt>
  <wgt id="111">3.18791e-12</wgt>
  <wgt id="112">3.17073e-12</wgt>
  <wgt id="113">4.40003e-12</wgt>
  <wgt id="114">4.48453e-12</wgt>
  <wgt id="115">4.42131e-12</wgt>
  <wgt id="116">6.43945e-12</wgt>
  <wgt id="117">3.58863e-12</wgt>
  <wgt id="118">3.60284e-12</wgt>
  <wgt id="119">3.58064e-12</wgt>
  <wgt id="120">3.58889e-12</wgt>
  <wgt id="121">3.58855e-12</wgt>
  <wgt id="122">3.58266e-12</wgt>
  <wgt id="123">3.59689e-12</wgt>
  <wgt id="124">3.58366e-12</wgt>
  <wgt id="125">3.59184e-12</wgt>
  <wgt id="126">3.596e-12</wgt>
  <wgt id="127">3.58372e-12</wgt>
  <wgt id="128">3.59994e-12</wgt>
  <wgt id="129">3.57753e-12</wgt>
  <wgt id="130">3.60994e-12</wgt>
  <wgt id="131">3.56688e-12</wgt>
  <wgt id="132">3.49069e-12</wgt>
  <wgt id="133">3.70529e-12</wgt>
  <wgt id="134">3.54751e-12</wgt>
  <wgt id="135">3.62098e-12</wgt>
  <wgt id="136">3.63888e-12</wgt>
  <wgt id="137">3.52802e-12</wgt>
  <wgt id="138">3.73991e-12</wgt>
  <wgt id="139">3.44356e-12</wgt>
  <wgt id="140">3.56612e-12</wgt>
  <wgt id="141">3.60619e-12</wgt>
  <wgt id="142">3.58899e-12</wgt>
  <wgt id="143">3.59504e-12</wgt>
  <wgt id="144">3.46739e-12</wgt>
  <wgt id="145">3.70321e-12</wgt>
  <wgt id="146">3.62768e-12</wgt>
  <wgt id="147">3.55736e-12</wgt>
  <wgt id="148">3.60095e-12</wgt>
  <wgt id="149">3.5878e-12</wgt>
  <wgt id="150">3.62111e-12</wgt>
  <wgt id="151">3.57349e-12</wgt>
  <wgt id="152">3.5907e-12</wgt>
  <wgt id="153">3.58791e-12</wgt>
  <wgt id="154">3.61293e-12</wgt>
  <wgt id="155">3.55859e-12</wgt>
  <wgt id="156">3.67887e-12</wgt>
  <wgt id="157">3.49962e-12</wgt>
  <wgt id="158">4.31449e-12</wgt>
  <wgt id="159">4.3327e-12</wgt>
  <wgt id="160">4.29995e-12</wgt>
  <wgt id="161">4.30251e-12</wgt>
  <wgt id="162">4.32804e-12</wgt>
  <wgt id="163">4.30925e-12</wgt>
  <wgt id="164">4.32237e-12</wgt>
  <wgt id="165">4.31613e-12</wgt>
  <wgt id="166">4.31328e-12</wgt>
  <wgt id="167">4.31143e-12</wgt>
  <wgt id="168">4.3189e-12</wgt>
  <wgt id="169">4.29643e-12</wgt>
  <wgt id="170">4.32595e-12</wgt>
  <wgt id="171">4.30933e-12</wgt>
  <wgt id="172">4.32188e-12</wgt>
  <wgt id="173">4.31271e-12</wgt>
  <wgt id="174">4.31513e-12</wgt>
  <wgt id="175">4.18583e-12</wgt>
  <wgt id="176">4.48324e-12</wgt>
  <wgt id="177">4.33986e-12</wgt>
  <wgt id="178">4.2914e-12</wgt>
  <wgt id="179">4.5134e-12</wgt>
  <wgt id="180">4.00317e-12</wgt>
  <wgt id="181">4.17801e-12</wgt>
  <wgt id="182">4.4049e-12</wgt>
  <wgt id="183">4.23141e-12</wgt>
  <wgt id="184">4.35588e-12</wgt>
  <wgt id="185">4.27679e-12</wgt>
  <wgt id="186">4.36193e-12</wgt>
  <wgt id="187">4.27326e-12</wgt>
  <wgt id="188">4.38913e-12</wgt>
  <wgt id="189">4.28381e-12</wgt>
  <wgt id="190">4.32707e-12</wgt>
  <wgt id="191">4.32757e-12</wgt>
  <wgt id="192">4.30678e-12</wgt>
  <wgt id="193">4.38256e-12</wgt>
  <wgt id="194">4.28109e-12</wgt>
  <wgt id="195">4.18016e-12</wgt>
  <wgt id="196">4.54042e-12</wgt>
  <wgt id="197">4.33786e-12</wgt>
  <wgt id="198">4.30907e-12</wgt>
  <wgt id="199">4.31449e-12</wgt>
  <wgt id="200">4.35391e-12</wgt>
  <wgt id="201">4.33991e-12</wgt>
  <wgt id="202">4.326e-12</wgt>
  <wgt id="203">4.30537e-12</wgt>
  <wgt id="204">4.29558e-12</wgt>
  <wgt id="205">4.28769e-12</wgt>
  <wgt id="206">4.16131e-12</wgt>
  <wgt id="207">4.18606e-12</wgt>
  <wgt id="208">4.1369e-12</wgt>
  <wgt id="209">4.17645e-12</wgt>
  <wgt id="210">4.15038e-12</wgt>
  <wgt id="211">4.15949e-12</wgt>
  <wgt id="212">4.16282e-12</wgt>
  <wgt id="213">4.16096e-12</wgt>
  <wgt id="214">4.16184e-12</wgt>
  <wgt id="215">4.16488e-12</wgt>
  <wgt id="216">4.1587e-12</wgt>
  <wgt id="217">4.17401e-12</wgt>
  <wgt id="218">4.15144e-12</wgt>
  <wgt id="219">4.15864e-12</wgt>
  <wgt id="220">4.16304e-12</wgt>
  <wgt id="221">4.15987e-12</wgt>
  <wgt id="222">4.1647e-12</wgt>
  <wgt id="223">3.92839e-12</wgt>
  <wgt id="224">4.37432e-12</wgt>
  <wgt id="225">4.10726e-12</wgt>
  <wgt id="226">4.22953e-12</wgt>
  <wgt id="227">4.11979e-12</wgt>
  <wgt id="228">4.17955e-12</wgt>
  <wgt id="229">4.10051e-12</wgt>
  <wgt id="230">4.19165e-12</wgt>
  <wgt id="231">4.28871e-12</wgt>
  <wgt id="232">4.05701e-12</wgt>
  <wgt id="233">4.13778e-12</wgt>
  <wgt id="234">4.19961e-12</wgt>
  <wgt id="235">4.05123e-12</wgt>
  <wgt id="236">4.25754e-12</wgt>
  <wgt id="237">4.09111e-12</wgt>
  <wgt id="238">4.18515e-12</wgt>
  <wgt id="239">4.13169e-12</wgt>
  <wgt id="240">4.21473e-12</wgt>
  <wgt id="241">4.1154e-12</wgt>
  <wgt id="242">4.21716e-12</wgt>
  <wgt id="243">4.22867e-12</wgt>
  <wgt id="244">4.17474e-12</wgt>
  <wgt id="245">4.15936e-12</wgt>
  <wgt id="246">4.18932e-12</wgt>
  <wgt id="247">4.16131e-12</wgt>
  <wgt id="248">4.19952e-12</wgt>
  <wgt id="249">4.185e-12</wgt>
  <wgt id="250">4.17165e-12</wgt>
  <wgt id="251">4.15149e-12</wgt>
  <wgt id="252">4.14214e-12</wgt>
  <wgt id="253">4.13539e-12</wgt>
  <wgt id="254">4.07564e-12</wgt>
  <wgt id="255">4.07936e-12</wgt>
  <wgt id="256">4.0712e-12</wgt>
  <wgt id="257">4.07837e-12</wgt>
  <wgt id="258">4.07346e-12</wgt>
  <wgt id="259">4.10293e-12</wgt>
  <wgt id="260">4.04904e-12</wgt>
  <wgt id="261">4.08318e-12</wgt>
  <wgt id="262">4.06623e-12</wgt>
  <wgt id="263">4.07319e-12</wgt>
  <wgt id="264">4.07823e-12</wgt>
  <wgt id="265">4.07008e-12</wgt>
  <wgt id="266">4.08643e-12</wgt>
  <wgt id="267">4.07696e-12</wgt>
  <wgt id="268">4.07341e-12</wgt>
  <wgt id="269">4.0903e-12</wgt>
  <wgt id="270">4.0656e-12</wgt>
  <wgt id="271">4.06828e-12</wgt>
  <wgt id="272">4.08376e-12</wgt>
  <wgt id="273">4.06213e-12</wgt>
  <wgt id="274">4.08563e-12</wgt>
  <wgt id="275">4.05655e-12</wgt>
  <wgt id="276">4.09522e-12</wgt>
  <wgt id="277">4.05101e-12</wgt>
  <wgt id="278">4.09802e-12</wgt>
  <wgt id="279">3.99205e-12</wgt>
  <wgt id="280">4.18035e-12</wgt>
  <wgt id="281">4.05584e-12</wgt>
  <wgt id="282">4.07715e-12</wgt>
  <wgt id="283">3.95019e-12</wgt>
  <wgt id="284">4.23034e-12</wgt>
  <wgt id="285">3.86893e-12</wgt>
  <wgt id="286">4.24751e-12</wgt>
  <wgt id="287">4.08913e-12</wgt>
  <wgt id="288">4.05814e-12</wgt>
  <wgt id="289">4.1061e-12</wgt>
  <wgt id="290">4.00536e-12</wgt>
  <wgt id="291">4.06266e-12</wgt>
  <wgt id="292">4.07828e-12</wgt>
  <wgt id="293">4.04185e-12</wgt>
  <wgt id="294">4.10891e-12</wgt>
  <wgt id="295">3.99376e-12</wgt>
  <wgt id="296">4.17537e-12</wgt>
  <wgt id="297">4.07234e-12</wgt>
  <wgt id="298">4.09405e-12</wgt>
  <wgt id="299">4.0612e-12</wgt>
  <wgt id="300">4.11301e-12</wgt>
  <wgt id="301">4.00398e-12</wgt>
  <wgt id="302">4.24486e-12</wgt>
  <wgt id="303">4.03801e-12</wgt>
  <wgt id="304">4.09679e-12</wgt>
  <wgt id="305">4.07825e-12</wgt>
  <wgt id="306">4.08265e-12</wgt>
  <wgt id="307">4.07366e-12</wgt>
  <wgt id="308">4.08153e-12</wgt>
  <wgt id="309">4.07627e-12</wgt>
  <wgt id="310">4.10679e-12</wgt>
  <wgt id="311">4.05202e-12</wgt>
  <wgt id="312">4.08516e-12</wgt>
  <wgt id="313">4.07115e-12</wgt>
  <wgt id="314">4.07604e-12</wgt>
  <wgt id="315">4.08055e-12</wgt>
  <wgt id="316">4.07299e-12</wgt>
  <wgt id="317">4.08982e-12</wgt>
  <wgt id="318">4.08174e-12</wgt>
  <wgt id="319">4.07256e-12</wgt>
  <wgt id="320">4.09391e-12</wgt>
  <wgt id="321">4.06976e-12</wgt>
  <wgt id="322">4.06913e-12</wgt>
  <wgt id="323">4.08908e-12</wgt>
  <wgt id="324">4.06723e-12</wgt>
  <wgt id="325">4.0881e-12</wgt>
  <wgt id="326">4.06315e-12</wgt>
  <wgt id="327">4.09781e-12</wgt>
  <wgt id="328">4.05664e-12</wgt>
  <wgt id="329">4.09054e-12</wgt>
  <wgt id="330">4.20512e-12</wgt>
  <wgt id="331">3.95769e-12</wgt>
  <wgt id="332">4.06176e-12</wgt>
  <wgt id="333">4.07911e-12</wgt>
  <wgt id="334">3.98036e-12</wgt>
  <wgt id="335">4.20044e-12</wgt>
  <wgt id="336">3.92867e-12</wgt>
  <wgt id="337">4.26129e-12</wgt>
  <wgt id="338">4.12628e-12</wgt>
  <wgt id="339">4.0341e-12</wgt>
  <wgt id="340">4.10696e-12</wgt>
  <wgt id="341">4.00536e-12</wgt>
  <wgt id="342">4.06896e-12</wgt>
  <wgt id="343">4.07404e-12</wgt>
  <wgt id="344">4.04807e-12</wgt>
  <wgt id="345">4.11347e-12</wgt>
  <wgt id="346">3.99354e-12</wgt>
  <wgt id="347">4.17607e-12</wgt>
  <wgt id="348">4.07629e-12</wgt>
  <wgt id="349">4.09445e-12</wgt>
  <wgt id="350">4.06059e-12</wgt>
  <wgt id="351">4.12318e-12</wgt>
  <wgt id="352">3.99994e-12</wgt>
  <wgt id="353">4.2534e-12</wgt>
  <wgt id="354">4.02147e-12</wgt>
  <wgt id="355">4.11252e-12</wgt>
  <wgt id="356">4.07564e-12</wgt>
  <wgt id="357">4.09246e-12</wgt>
  <wgt id="358">4.07825e-12</wgt>
  <wgt id="359">4.08715e-12</wgt>
  <wgt id="360">4.11283e-12</wgt>
  <wgt id="361">4.09074e-12</wgt>
  <wgt id="362">4.16758e-12</wgt>
  <wgt id="363">4.15657e-12</wgt>
  <wgt id="364">4.14066e-12</wgt>
  <wgt id="365">4.12542e-12</wgt>
  <wgt id="366">4.10894e-12</wgt>
  <wgt id="367">4.0756e-12</wgt>
  <wgt id="368">4.057e-12</wgt>
  <wgt id="369">4.03689e-12</wgt>
  <wgt id="370">4.09074e-12</wgt>
  <wgt id="371">4.10947e-12</wgt>
  <wgt id="372">4.09914e-12</wgt>
  <wgt id="373">4.08388e-12</wgt>
  <wgt id="374">4.08373e-12</wgt>
  <wgt id="375">4.41969e-12</wgt>
  <wgt id="376">4.42025e-12</wgt>
  <wgt id="377">4.41869e-12</wgt>
  <wgt id="378">4.43587e-12</wgt>
  <wgt id="379">4.40328e-12</wgt>
  <wgt id="380">4.43113e-12</wgt>
  <wgt id="381">4.41496e-12</wgt>
  <wgt id="382">4.44455e-12</wgt>
  <wgt id="383">4.39488e-12</wgt>
  <wgt id="384">4.42254e-12</wgt>
  <wgt id="385">4.41678e-12</wgt>
  <wgt id="386">4.43903e-12</wgt>
  <wgt id="387">4.41114e-12</wgt>
  <wgt id="388">4.41496e-12</wgt>
  <wgt id="389">4.42495e-12</wgt>
  <wgt id="390">4.43253e-12</wgt>
  <wgt id="391">4.40598e-12</wgt>
  <wgt id="392">4.3809e-12</wgt>
  <wgt id="393">4.44156e-12</wgt>
  <wgt id="394">4.42574e-12</wgt>
  <wgt id="395">4.41115e-12</wgt>
  <wgt id="396">4.42456e-12</wgt>
  <wgt id="397">4.41616e-12</wgt>
  <wgt id="398">4.39844e-12</wgt>
  <wgt id="399">4.44016e-12</wgt>
  <wgt id="400">4.41121e-12</wgt>
  <wgt id="401">4.43846e-12</wgt>
  <wgt id="402">4.38019e-12</wgt>
  <wgt id="403">4.43831e-12</wgt>
  <wgt id="404">4.53111e-12</wgt>
  <wgt id="405">4.1521e-12</wgt>
  <wgt id="406">4.33998e-12</wgt>
  <wgt id="407">4.59337e-12</wgt>
  <wgt id="408">4.4606e-12</wgt>
  <wgt id="409">4.34173e-12</wgt>
  <wgt id="410">4.28972e-12</wgt>
  <wgt id="411">4.48046e-12</wgt>
  <wgt id="412">4.41103e-12</wgt>
  <wgt id="413">4.43295e-12</wgt>
  <wgt id="414">4.36756e-12</wgt>
  <wgt id="415">4.46008e-12</wgt>
  <wgt id="416">4.55071e-12</wgt>
  <wgt id="417">4.23896e-12</wgt>
  <wgt id="418">4.42618e-12</wgt>
  <wgt id="419">4.38486e-12</wgt>
  <wgt id="420">4.50398e-12</wgt>
  <wgt id="421">4.36824e-12</wgt>
  <wgt id="422">4.40594e-12</wgt>
  <wgt id="423">4.42662e-12</wgt>
  <wgt id="424">4.52671e-12</wgt>
  <wgt id="425">4.35066e-12</wgt>
  <wgt id="426">4.41969e-12</wgt>
  <wgt id="427">4.37067e-12</wgt>
  <wgt id="428">4.55808e-12</wgt>
  <wgt id="429">4.46655e-12</wgt>
  <wgt id="430">4.60064e-12</wgt>
  <wgt id="431">4.57362e-12</wgt>
  <wgt id="432">4.54855e-12</wgt>
  <wgt id="433">4.52392e-12</wgt>
  <wgt id="434">4.49383e-12</wgt>
  <wgt id="435">4.43238e-12</wgt>
  <wgt id="436">4.40104e-12</wgt>
  <wgt id="437">4.3709e-12</wgt>
  <wgt id="438">4.46655e-12</wgt>
  <wgt id="439">4.48131e-12</wgt>
  <wgt id="440">4.47248e-12</wgt>
  <wgt id="441">4.46221e-12</wgt>
  <wgt id="442">4.45854e-12</wgt>
  <wgt id="443">4.27956e-12</wgt>
  <wgt id="444">4.30852e-12</wgt>
  <wgt id="445">4.26014e-12</wgt>
  <wgt id="446">4.25045e-12</wgt>
  <wgt id="447">4.26307e-12</wgt>
  <wgt id="448">4.15768e-12</wgt>
  <wgt id="449">4.35172e-12</wgt>
  <wgt id="450">4.26634e-12</wgt>
  <wgt id="451">4.27137e-12</wgt>
  <wgt id="452">4.38627e-12</wgt>
  <wgt id="453">4.32861e-12</wgt>
  <wgt id="454">4.10013e-12</wgt>
  <wgt id="455">4.28513e-12</wgt>
  <wgt id="456">4.25855e-12</wgt>
  <wgt id="457">4.30011e-12</wgt>
  <wgt id="458">4.33265e-12</wgt>
  <wgt id="459">4.31064e-12</wgt>
  <wgt id="460">4.30481e-12</wgt>
  <wgt id="461">4.18897e-12</wgt>
  <wgt id="462">4.23836e-12</wgt>
  <wgt id="463">4.22732e-12</wgt>
  <wgt id="464">4.25038e-12</wgt>
  <wgt id="465">4.33181e-12</wgt>
  <wgt id="466">4.22328e-12</wgt>
  <wgt id="467">4.23184e-12</wgt>
  <wgt id="468">4.26622e-12</wgt>
  <wgt id="469">4.26461e-12</wgt>
  <wgt id="470">4.23809e-12</wgt>
  <wgt id="471">4.23577e-12</wgt>
  <wgt id="472">4.30276e-12</wgt>
  <wgt id="473">4.1195e-12</wgt>
  <wgt id="474">3.0282e-12</wgt>
  <wgt id="475">3.20852e-12</wgt>
  <wgt id="476">2.95023e-12</wgt>
  <wgt id="477">2.87917e-12</wgt>
  <wgt id="478">3.04136e-12</wgt>
  <wgt id="479">2.94768e-12</wgt>
  <wgt id="480">3.1591e-12</wgt>
  <wgt id="481">2.98173e-12</wgt>
  <wgt id="482">2.92909e-12</wgt>
  <wgt id="483">2.94494e-12</wgt>
  <wgt id="484">3.21427e-12</wgt>
  <wgt id="485">3.01329e-12</wgt>
  <wgt id="486">3.14462e-12</wgt>
  <wgt id="487">3.10368e-12</wgt>
  <wgt id="488">3.08118e-12</wgt>
  <wgt id="489">2.9326e-12</wgt>
  <wgt id="490">2.92403e-12</wgt>
  <wgt id="491">2.9939e-12</wgt>
  <wgt id="492">2.93789e-12</wgt>
  <wgt id="493">2.90353e-12</wgt>
  <wgt id="494">2.93482e-12</wgt>
  <wgt id="495">3.10689e-12</wgt>
  <wgt id="496">2.93076e-12</wgt>
  <wgt id="497">2.89619e-12</wgt>
  <wgt id="498">3.08385e-12</wgt>
  <wgt id="499">2.95741e-12</wgt>
  <wgt id="500">2.98572e-12</wgt>
  <wgt id="501">3.17999e-12</wgt>
  <wgt id="502">2.96243e-12</wgt>
  <wgt id="503">3.03361e-12</wgt>
  <wgt id="504">3.07898e-12</wgt>
  <wgt id="505">2.95483e-12</wgt>
  <wgt id="506">3.12588e-12</wgt>
  <wgt id="507">3.00835e-12</wgt>
  <wgt id="508">3.07083e-12</wgt>
  <wgt id="509">2.90426e-12</wgt>
  <wgt id="510">3.12376e-12</wgt>
  <wgt id="511">2.97057e-12</wgt>
  <wgt id="512">3.08981e-12</wgt>
  <wgt id="513">3.19355e-12</wgt>
  <wgt id="514">3.01339e-12</wgt>
  <wgt id="515">2.98614e-12</wgt>
  <wgt id="516">3.12712e-12</wgt>
  <wgt id="517">3.08753e-12</wgt>
  <wgt id="518">3.09049e-12</wgt>
  <wgt id="519">2.92299e-12</wgt>
  <wgt id="520">3.07678e-12</wgt>
  <wgt id="521">3.12511e-12</wgt>
  <wgt id="522">3.15107e-12</wgt>
  <wgt id="523">3.10528e-12</wgt>
  <wgt id="524">3.05893e-12</wgt>
  <wgt id="525">3.14655e-12</wgt>
  <wgt id="526">3.05819e-12</wgt>
  <wgt id="527">3.0627e-12</wgt>
  <wgt id="528">3.06315e-12</wgt>
  <wgt id="529">2.9583e-12</wgt>
  <wgt id="530">3.07591e-12</wgt>
  <wgt id="531">3.00276e-12</wgt>
  <wgt id="532">3.21613e-12</wgt>
  <wgt id="533">2.85173e-12</wgt>
  <wgt id="534">3.05095e-12</wgt>
  <wgt id="535">3.0999e-12</wgt>
  <wgt id="536">2.99383e-12</wgt>
  <wgt id="537">3.03761e-12</wgt>
  <wgt id="538">3.04699e-12</wgt>
  <wgt id="539">2.9841e-12</wgt>
  <wgt id="540">2.94285e-12</wgt>
  <wgt id="541">2.91076e-12</wgt>
  <wgt id="542">2.99295e-12</wgt>
  <wgt id="543">3.0239e-12</wgt>
  <wgt id="544">3.17947e-12</wgt>
  <wgt id="545">2.9892e-12</wgt>
  <wgt id="546">2.9787e-12</wgt>
  <wgt id="547">2.93379e-12</wgt>
  <wgt id="548">2.9036e-12</wgt>
  <wgt id="549">2.96733e-12</wgt>
  <wgt id="550">2.97173e-12</wgt>
  <wgt id="551">3.05128e-12</wgt>
  <wgt id="552">2.99706e-12</wgt>
  <wgt id="553">3.01661e-12</wgt>
  <wgt id="554">3.24847e-12</wgt>
  <wgt id="555">3.09758e-12</wgt>
  <wgt id="556">2.92403e-12</wgt>
  <wgt id="557">3.08581e-12</wgt>
  <wgt id="558">2.93178e-12</wgt>
  <wgt id="559">2.98157e-12</wgt>
  <wgt id="560">3.3019e-12</wgt>
  <wgt id="561">2.98201e-12</wgt>
  <wgt id="562">3.0905e-12</wgt>
  <wgt id="563">2.93096e-12</wgt>
  <wgt id="564">3.03873e-12</wgt>
  <wgt id="565">2.89762e-12</wgt>
  <wgt id="566">3.09584e-12</wgt>
  <wgt id="567">2.99086e-12</wgt>
  <wgt id="568">3.00261e-12</wgt>
  <wgt id="569">3.11934e-12</wgt>
  <wgt id="570">2.90674e-12</wgt>
  <wgt id="571">3.36651e-12</wgt>
  <wgt id="572">2.95368e-12</wgt>
  <wgt id="573">2.89551e-12</wgt>
  <wgt id="574">2.91899e-12</wgt>
  <wgt id="575">3.35497e-12</wgt>
  <wgt id="576">3.35611e-12</wgt>
  <wgt id="577">3.41885e-12</wgt>
  <wgt id="578">3.47266e-12</wgt>
  <wgt id="579">3.44005e-12</wgt>
  <wgt id="580">3.43856e-12</wgt>
  <wgt id="581">3.59535e-12</wgt>
  <wgt id="582">3.35011e-12</wgt>
  <wgt id="583">3.39688e-12</wgt>
  <wgt id="584">3.36136e-12</wgt>
  <wgt id="585">3.37258e-12</wgt>
  <wgt id="586">3.27949e-12</wgt>
  <wgt id="587">3.41458e-12</wgt>
  <wgt id="588">3.34392e-12</wgt>
  <wgt id="589">3.45192e-12</wgt>
  <wgt id="590">3.41625e-12</wgt>
  <wgt id="591">3.47533e-12</wgt>
  <wgt id="592">3.26447e-12</wgt>
  <wgt id="593">3.34172e-12</wgt>
  <wgt id="594">3.42044e-12</wgt>
  <wgt id="595">3.35472e-12</wgt>
  <wgt id="596">3.3693e-12</wgt>
  <wgt id="597">3.27624e-12</wgt>
  <wgt id="598">3.20312e-12</wgt>
  <wgt id="599">3.54086e-12</wgt>
  <wgt id="600">3.32334e-12</wgt>
  <wgt id="601">3.26239e-12</wgt>
  <wgt id="602">3.27074e-12</wgt>
  <wgt id="603">3.27048e-12</wgt>
  <wgt id="604">3.4118e-12</wgt>
  <wgt id="605">3.49048e-12</wgt>
  <wgt id="606">3.29149e-12</wgt>
  <wgt id="607">3.32013e-12</wgt>
  <wgt id="608">3.41802e-12</wgt>
  <wgt id="609">3.18869e-12</wgt>
  <wgt id="610">3.23338e-12</wgt>
  <wgt id="611">3.3647e-12</wgt>
  <wgt id="612">3.56678e-12</wgt>
  <wgt id="613">3.33514e-12</wgt>
  <wgt id="614">3.40316e-12</wgt>
  <wgt id="615">3.28672e-12</wgt>
  <wgt id="616">3.51107e-12</wgt>
  <wgt id="617">3.48729e-12</wgt>
  <wgt id="618">3.49078e-12</wgt>
  <wgt id="619">3.29501e-12</wgt>
  <wgt id="620">3.53323e-12</wgt>
  <wgt id="621">3.39856e-12</wgt>
  <wgt id="622">3.41458e-12</wgt>
  <wgt id="623">3.46297e-12</wgt>
  <wgt id="624">3.35539e-12</wgt>
  <wgt id="625">3.31376e-12</wgt>
  <wgt id="626">3.25775e-12</wgt>
  <wgt id="627">3.20584e-12</wgt>
  <wgt id="628">3.56095e-12</wgt>
  <wgt id="629">3.27293e-12</wgt>
  <wgt id="630">3.1956e-12</wgt>
  <wgt id="631">3.38845e-12</wgt>
  <wgt id="632">3.21234e-12</wgt>
  <wgt id="633">3.32404e-12</wgt>
  <wgt id="634">3.32119e-12</wgt>
  <wgt id="635">3.24177e-12</wgt>
  <wgt id="636">3.37491e-12</wgt>
  <wgt id="637">3.32231e-12</wgt>
  <wgt id="638">3.21257e-12</wgt>
  <wgt id="639">3.29904e-12</wgt>
  <wgt id="640">3.34999e-12</wgt>
  <wgt id="641">3.39317e-12</wgt>
  <wgt id="642">3.13334e-12</wgt>
  <wgt id="643">3.32633e-12</wgt>
  <wgt id="644">3.1979e-12</wgt>
  <wgt id="645">3.39793e-12</wgt>
  <wgt id="646">3.37925e-12</wgt>
  <wgt id="647">3.32521e-12</wgt>
  <wgt id="648">3.38174e-12</wgt>
  <wgt id="649">3.40648e-12</wgt>
  <wgt id="650">3.28811e-12</wgt>
  <wgt id="651">3.35352e-12</wgt>
  <wgt id="652">3.31279e-12</wgt>
  <wgt id="653">3.25249e-12</wgt>
  <wgt id="654">3.32896e-12</wgt>
  <wgt id="655">3.31943e-12</wgt>
  <wgt id="656">3.4011e-12</wgt>
  <wgt id="657">3.52924e-12</wgt>
  <wgt id="658">3.32394e-12</wgt>
  <wgt id="659">3.21089e-12</wgt>
  <wgt id="660">3.42189e-12</wgt>
  <wgt id="661">3.29227e-12</wgt>
  <wgt id="662">3.36917e-12</wgt>
  <wgt id="663">3.36569e-12</wgt>
  <wgt id="664">3.31225e-12</wgt>
  <wgt id="665">3.34673e-12</wgt>
  <wgt id="666">3.30873e-12</wgt>
  <wgt id="667">3.4614e-12</wgt>
  <wgt id="668">3.36313e-12</wgt>
  <wgt id="669">3.43386e-12</wgt>
  <wgt id="670">3.44967e-12</wgt>
  <wgt id="671">3.34798e-12</wgt>
  <wgt id="672">3.21486e-12</wgt>
  <wgt id="673">3.38501e-12</wgt>
  <wgt id="674">3.2948e-12</wgt>
  <wgt id="675">3.33249e-12</wgt>
  <wgt id="676">4.29935e-12</wgt>
  <wgt id="677">4.33566e-12</wgt>
  <wgt id="678">4.51795e-12</wgt>
  <wgt id="679">3.9632e-12</wgt>
  <wgt id="680">4.23814e-12</wgt>
  <wgt id="681">4.36825e-12</wgt>
  <wgt id="682">4.4856e-12</wgt>
  <wgt id="683">4.21799e-12</wgt>
  <wgt id="684">4.50605e-12</wgt>
  <wgt id="685">4.06973e-12</wgt>
  <wgt id="686">4.13729e-12</wgt>
  <wgt id="687">4.53815e-12</wgt>
  <wgt id="688">4.29575e-12</wgt>
  <wgt id="689">4.70152e-12</wgt>
  <wgt id="690">4.501e-12</wgt>
  <wgt id="691">4.6015e-12</wgt>
  <wgt id="692">4.22196e-12</wgt>
  <wgt id="693">5.15024e-12</wgt>
  <wgt id="694">4.57203e-12</wgt>
  <wgt id="695">4.17066e-12</wgt>
  <wgt id="696">4.04161e-12</wgt>
  <wgt id="697">4.20174e-12</wgt>
  <wgt id="698">3.86486e-12</wgt>
  <wgt id="699">3.851e-12</wgt>
  <wgt id="700">3.68117e-12</wgt>
  <wgt id="701">4.32121e-12</wgt>
  <wgt id="702">4.19076e-12</wgt>
  <wgt id="703">5.00685e-12</wgt>
  <wgt id="704">4.76985e-12</wgt>
  <wgt id="705">4.52084e-12</wgt>
  <wgt id="706">3.99415e-12</wgt>
  <wgt id="707">4.11582e-12</wgt>
  <wgt id="708">4.23663e-12</wgt>
  <wgt id="709">4.21778e-12</wgt>
  <wgt id="710">3.85614e-12</wgt>
  <wgt id="711">4.25508e-12</wgt>
  <wgt id="712">4.20677e-12</wgt>
  <wgt id="713">4.71865e-12</wgt>
  <wgt id="714">4.18597e-12</wgt>
  <wgt id="715">4.25601e-12</wgt>
  <wgt id="716">4.12019e-12</wgt>
  <wgt id="717">4.06598e-12</wgt>
  <wgt id="718">4.34222e-12</wgt>
  <wgt id="719">3.86664e-12</wgt>
  <wgt id="720">4.01428e-12</wgt>
  <wgt id="721">3.8513e-12</wgt>
  <wgt id="722">3.73579e-12</wgt>
  <wgt id="723">4.63039e-12</wgt>
  <wgt id="724">4.53743e-12</wgt>
  <wgt id="725">4.53558e-12</wgt>
  <wgt id="726">4.3358e-12</wgt>
  <wgt id="727">4.19504e-12</wgt>
  <wgt id="728">4.16081e-12</wgt>
  <wgt id="729">3.91079e-12</wgt>
  <wgt id="730">4.72149e-12</wgt>
  <wgt id="731">4.23479e-12</wgt>
  <wgt id="732">4.76781e-12</wgt>
  <wgt id="733">4.29348e-12</wgt>
  <wgt id="734">4.41038e-12</wgt>
  <wgt id="735">4.2834e-12</wgt>
  <wgt id="736">4.1899e-12</wgt>
  <wgt id="737">4.37224e-12</wgt>
  <wgt id="738">4.02785e-12</wgt>
  <wgt id="739">4.42914e-12</wgt>
  <wgt id="740">4.81207e-12</wgt>
  <wgt id="741">3.82662e-12</wgt>
  <wgt id="742">4.22404e-12</wgt>
  <wgt id="743">4.04031e-12</wgt>
  <wgt id="744">4.20743e-12</wgt>
  <wgt id="745">4.53813e-12</wgt>
  <wgt id="746">4.63384e-12</wgt>
  <wgt id="747">3.81936e-12</wgt>
  <wgt id="748">4.26066e-12</wgt>
  <wgt id="749">4.51764e-12</wgt>
  <wgt id="750">4.46023e-12</wgt>
  <wgt id="751">4.42304e-12</wgt>
  <wgt id="752">3.90057e-12</wgt>
  <wgt id="753">4.07822e-12</wgt>
  <wgt id="754">4.58295e-12</wgt>
  <wgt id="755">4.3036e-12</wgt>
  <wgt id="756">4.33417e-12</wgt>
  <wgt id="757">3.90614e-12</wgt>
  <wgt id="758">4.32145e-12</wgt>
  <wgt id="759">4.47661e-12</wgt>
  <wgt id="760">4.32542e-12</wgt>
  <wgt id="761">4.53594e-12</wgt>
  <wgt id="762">4.59083e-12</wgt>
  <wgt id="763">4.25715e-12</wgt>
  <wgt id="764">4.49567e-12</wgt>
  <wgt id="765">4.4288e-12</wgt>
  <wgt id="766">4.3012e-12</wgt>
  <wgt id="767">4.42813e-12</wgt>
  <wgt id="768">4.01777e-12</wgt>
  <wgt id="769">4.58479e-12</wgt>
  <wgt id="770">4.16079e-12</wgt>
  <wgt id="771">5.16209e-12</wgt>
  <wgt id="772">4.06307e-12</wgt>
  <wgt id="773">4.25091e-12</wgt>
  <wgt id="774">3.7481e-12</wgt>
  <wgt id="775">4.58527e-12</wgt>
  <wgt id="776">4.70697e-12</wgt>
  <wgt id="777">4.00146e-12</wgt>
  <wgt id="778">3.0902e-12</wgt>
  <wgt id="779">2.47611e-12</wgt>
  <wgt id="780">1.90907e-12</wgt>
  <wgt id="781">3.23438e-12</wgt>
  <wgt id="782">3.28652e-12</wgt>
  <wgt id="783">2.48267e-12</wgt>
  <wgt id="784">2.62534e-12</wgt>
  <wgt id="785">3.85503e-12</wgt>
  <wgt id="786">2.31886e-12</wgt>
  <wgt id="787">3.62135e-12</wgt>
  <wgt id="788">1.76589e-12</wgt>
  <wgt id="789">2.42235e-12</wgt>
  <wgt id="790">2.26328e-12</wgt>
  <wgt id="791">2.92528e-12</wgt>
  <wgt id="792">4.12741e-12</wgt>
  <wgt id="793">3.0498e-12</wgt>
  <wgt id="794">2.22318e-12</wgt>
  <wgt id="795">3.77876e-12</wgt>
  <wgt id="796">4.16878e-12</wgt>
  <wgt id="797">3.7018e-12</wgt>
  <wgt id="798">2.78356e-12</wgt>
  <wgt id="799">3.60179e-12</wgt>
  <wgt id="800">2.44933e-12</wgt>
  <wgt id="801">2.83324e-12</wgt>
  <wgt id="802">2.22901e-12</wgt>
  <wgt id="803">4.04223e-12</wgt>
  <wgt id="804">3.74233e-12</wgt>
  <wgt id="805">3.80832e-12</wgt>
  <wgt id="806">3.43157e-12</wgt>
  <wgt id="807">2.90467e-12</wgt>
  <wgt id="808">2.98786e-12</wgt>
  <wgt id="809">2.82829e-12</wgt>
  <wgt id="810">3.51163e-12</wgt>
  <wgt id="811">3.41361e-12</wgt>
  <wgt id="812">2.20821e-12</wgt>
  <wgt id="813">2.29291e-12</wgt>
  <wgt id="814">2.66062e-12</wgt>
  <wgt id="815">2.47655e-12</wgt>
  <wgt id="816">2.13636e-12</wgt>
  <wgt id="817">3.23302e-12</wgt>
  <wgt id="818">3.14974e-12</wgt>
  <wgt id="819">2.46061e-12</wgt>
  <wgt id="820">3.08352e-12</wgt>
  <wgt id="821">3.66289e-12</wgt>
  <wgt id="822">2.42431e-12</wgt>
  <wgt id="823">3.70885e-12</wgt>
  <wgt id="824">4.25483e-12</wgt>
  <wgt id="825">2.15202e-12</wgt>
  <wgt id="826">3.36691e-12</wgt>
  <wgt id="827">1.71894e-12</wgt>
  <wgt id="828">3.98882e-12</wgt>
  <wgt id="829">3.26363e-12</wgt>
  <wgt id="830">2.0307e-12</wgt>
  <wgt id="831">3.3955e-12</wgt>
  <wgt id="832">5.31126e-12</wgt>
  <wgt id="833">2.79904e-12</wgt>
  <wgt id="834">4.94224e-12</wgt>
  <wgt id="835">2.44918e-12</wgt>
  <wgt id="836">3.0185e-12</wgt>
  <wgt id="837">3.61174e-12</wgt>
  <wgt id="838">2.91846e-12</wgt>
  <wgt id="839">3.36198e-12</wgt>
  <wgt id="840">2.81818e-12</wgt>
  <wgt id="841">3.99336e-12</wgt>
  <wgt id="842">2.73441e-12</wgt>
  <wgt id="843">3.09172e-12</wgt>
  <wgt id="844">3.28521e-12</wgt>
  <wgt id="845">4.60107e-12</wgt>
  <wgt id="846">2.90156e-12</wgt>
  <wgt id="847">3.22018e-12</wgt>
  <wgt id="848">2.54808e-12</wgt>
  <wgt id="849">3.19509e-12</wgt>
  <wgt id="850">4.23442e-12</wgt>
  <wgt id="851">3.44331e-12</wgt>
  <wgt id="852">2.53756e-12</wgt>
  <wgt id="853">3.47386e-12</wgt>
  <wgt id="854">3.88515e-12</wgt>
  <wgt id="855">3.73484e-12</wgt>
  <wgt id="856">2.08729e-12</wgt>
  <wgt id="857">3.05396e-12</wgt>
  <wgt id="858">3.06204e-12</wgt>
  <wgt id="859">2.84935e-12</wgt>
  <wgt id="860">3.45275e-12</wgt>
  <wgt id="861">2.61169e-12</wgt>
  <wgt id="862">3.17397e-12</wgt>
  <wgt id="863">3.34795e-12</wgt>
  <wgt id="864">3.35784e-12</wgt>
  <wgt id="865">4.68618e-12</wgt>
  <wgt id="866">5.12915e-12</wgt>
  <wgt id="867">3.21969e-12</wgt>
  <wgt id="868">3.10981e-12</wgt>
  <wgt id="869">2.28874e-12</wgt>
  <wgt id="870">2.40987e-12</wgt>
  <wgt id="871">2.32951e-12</wgt>
  <wgt id="872">3.86331e-12</wgt>
  <wgt id="873">2.46361e-12</wgt>
  <wgt id="874">3.3177e-12</wgt>
  <wgt id="875">2.64502e-12</wgt>
  <wgt id="876">3.87493e-12</wgt>
  <wgt id="877">3.66784e-12</wgt>
  <wgt id="878">2.54233e-12</wgt>
  <wgt id="879">4.29935e-12</wgt>
  <wgt id="880">4.33566e-12</wgt>
  <wgt id="881">4.51795e-12</wgt>
  <wgt id="882">3.9632e-12</wgt>
  <wgt id="883">4.23814e-12</wgt>
  <wgt id="884">4.36825e-12</wgt>
  <wgt id="885">4.4856e-12</wgt>
  <wgt id="886">4.21799e-12</wgt>
  <wgt id="887">4.50605e-12</wgt>
  <wgt id="888">4.06973e-12</wgt>
  <wgt id="889">4.13729e-12</wgt>
  <wgt id="890">4.53815e-12</wgt>
  <wgt id="891">4.29575e-12</wgt>
  <wgt id="892">4.70152e-12</wgt>
  <wgt id="893">4.501e-12</wgt>
  <wgt id="894">4.6015e-12</wgt>
  <wgt id="895">4.22196e-12</wgt>
  <wgt id="896">5.15024e-12</wgt>
  <wgt id="897">4.57203e-12</wgt>
  <wgt id="898">4.17066e-12</wgt>
  <wgt id="899">4.04161e-12</wgt>
  <wgt id="900">4.20174e-12</wgt>
  <wgt id="901">3.86486e-12</wgt>
  <wgt id="902">3.851e-12</wgt>
  <wgt id="903">3.68117e-12</wgt>
  <wgt id="904">4.32121e-12</wgt>
  <wgt id="905">4.19076e-12</wgt>
  <wgt id="906">5.00685e-12</wgt>
  <wgt id="907">4.76985e-12</wgt>
  <wgt id="908">4.52084e-12</wgt>
  <wgt id="909">3.99415e-12</wgt>
  <wgt id="910">4.11582e-12</wgt>
  <wgt id="911">4.23663e-12</wgt>
  <wgt id="912">4.21778e-12</wgt>
  <wgt id="913">3.85614e-12</wgt>
  <wgt id="914">4.25508e-12</wgt>
  <wgt id="915">4.20677e-12</wgt>
  <wgt id="916">4.71865e-12</wgt>
  <wgt id="917">4.18597e-12</wgt>
  <wgt id="918">4.25601e-12</wgt>
  <wgt id="919">4.12019e-12</wgt>
  <wgt id="920">4.06598e-12</wgt>
  <wgt id="921">4.34222e-12</wgt>
  <wgt id="922">3.86664e-12</wgt>
  <wgt id="923">4.01428e-12</wgt>
  <wgt id="924">3.8513e-12</wgt>
  <wgt id="925">3.73579e-12</wgt>
  <wgt id="926">4.63039e-12</wgt>
  <wgt id="927">4.53743e-12</wgt>
  <wgt id="928">4.53558e-12</wgt>
  <wgt id="929">4.3358e-12</wgt>
  <wgt id="930">4.19504e-12</wgt>
  <wgt id="931">4.16081e-12</wgt>
  <wgt id="932">3.91079e-12</wgt>
  <wgt id="933">4.72149e-12</wgt>
  <wgt id="934">4.23479e-12</wgt>
  <wgt id="935">4.76781e-12</wgt>
  <wgt id="936">4.29348e-12</wgt>
  <wgt id="937">4.41038e-12</wgt>
  <wgt id="938">4.2834e-12</wgt>
  <wgt id="939">4.1899e-12</wgt>
  <wgt id="940">4.37224e-12</wgt>
  <wgt id="941">4.02785e-12</wgt>
  <wgt id="942">4.42914e-12</wgt>
  <wgt id="943">4.81207e-12</wgt>
  <wgt id="944">3.82662e-12</wgt>
  <wgt id="945">4.22404e-12</wgt>
  <wgt id="946">4.04031e-12</wgt>
  <wgt id="947">4.20743e-12</wgt>
  <wgt id="948">4.53813e-12</wgt>
  <wgt id="949">4.63384e-12</wgt>
  <wgt id="950">3.81936e-12</wgt>
  <wgt id="951">4.26066e-12</wgt>
  <wgt id="952">4.51764e-12</wgt>
  <wgt id="953">4.46023e-12</wgt>
  <wgt id="954">4.42304e-12</wgt>
  <wgt id="955">3.90057e-12</wgt>
  <wgt id="956">4.07822e-12</wgt>
  <wgt id="957">4.58295e-12</wgt>
  <wgt id="958">4.3036e-12</wgt>
  <wgt id="959">4.33417e-12</wgt>
  <wgt id="960">3.90614e-12</wgt>
  <wgt id="961">4.32145e-12</wgt>
  <wgt id="962">4.47661e-12</wgt>
  <wgt id="963">4.32542e-12</wgt>
  <wgt id="964">4.53594e-12</wgt>
  <wgt id="965">4.59083e-12</wgt>
  <wgt id="966">4.25715e-12</wgt>
  <wgt id="967">4.49567e-12</wgt>
  <wgt id="968">4.4288e-12</wgt>
  <wgt id="969">4.3012e-12</wgt>
  <wgt id="970">4.42813e-12</wgt>
  <wgt id="971">4.01777e-12</wgt>
  <wgt id="972">4.58479e-12</wgt>
  <wgt id="973">4.16079e-12</wgt>
  <wgt id="974">5.16209e-12</wgt>
  <wgt id="975">4.06307e-12</wgt>
  <wgt id="976">4.25091e-12</wgt>
  <wgt id="977">3.7481e-12</wgt>
  <wgt id="978">4.58527e-12</wgt>
  <wgt id="979">4.70697e-12</wgt>
  <wgt id="980">4.28803e-12</wgt>
  <wgt id="981">4.33614e-12</wgt>
  <wgt id="982">4.16945e-12</wgt>
</rwgt>
</event>
<event>
 5   1  0.3028200E-11  0.2342647E+04  0.7818608E-02  0.7697179E-01
       21   -1    0    0  502  501  0.00000000000E+00  0.00000000000E+00  0.89473167997E+03  0.89473167997E+03  0.00000000000E+00 0. -1.
       21   -1    0    0  501  502 -0.00000000000E+00 -0.00000000000E+00 -0.15334194667E+04  0.15334194667E+04  0.00000000000E+00 0.  1.
       39    2    1    2    0    0  0.00000000000E+00  0.00000000000E+00 -0.63868778668E+03  0.24281511466E+04  0.23426471997E+04 0.  0.
       25    1    3    3    0    0 -0.11450068732E+04 -0.96577884718E+02 -0.12266581680E+03  0.11623424324E+04  0.12500000000E+03 0.  0.
       25    1    3    3    0    0  0.11450068732E+04  0.96577884718E+02 -0.51602196989E+03  0.12658087142E+04  0.12500000000E+03 0.  0.
<mgrwt>
<rscale>  0 0.23426472E+04</rscale>
<asrwt>0</asrwt>
<pdfrwt beam="1">  1       21 0.13765103E+00 0.23426472E+04</pdfrwt>
<pdfrwt beam="2">  1       21 0.23591068E+00 0.23426472E+04</pdfrwt>
<totfact> 0.10989537E+01</totfact>
</mgrwt>
<rwgt>
  <wgt id="1">3.0282e-12</wgt>
  <wgt id="2">2.6326e-12</wgt>
  <wgt id="3">3.51994e-12</wgt>
  <wgt id="4">3.0282e-12</wgt>
  <wgt id="5">2.6326e-12</wgt>
  <wgt id="6">3.51994e-12</wgt>
  <wgt id="7">3.0282e-12</wgt>
  <wgt id="8">2.6326e-12</wgt>
  <wgt id="9">3.51994e-12</wgt>
  <wgt id="10">3.14499e-12</wgt>
  <wgt id="11">3.14253e-12</wgt>
  <wgt id="12">3.13923e-12</wgt>
  <wgt id="13">3.13473e-12</wgt>
  <wgt id="14">3.15648e-12</wgt>
  <wgt id="15">3.15012e-12</wgt>
  <wgt id="16">3.13955e-12</wgt>
  <wgt id="17">3.15269e-12</wgt>
  <wgt id="18">3.13923e-12</wgt>
  <wgt id="19">3.15237e-12</wgt>
  <wgt id="20">3.13684e-12</wgt>
  <wgt id="21">3.12435e-12</wgt>
  <wgt id="22">3.13095e-12</wgt>
  <wgt id="23">3.11355e-12</wgt>
  <wgt id="24">3.129e-12</wgt>
  <wgt id="25">3.13674e-12</wgt>
  <wgt id="26">3.15661e-12</wgt>
  <wgt id="27">3.1439e-12</wgt>
  <wgt id="28">3.12982e-12</wgt>
  <wgt id="29">3.14741e-12</wgt>
  <wgt id="30">3.13366e-12</wgt>
  <wgt id="31">3.15551e-12</wgt>
  <wgt id="32">3.13761e-12</wgt>
  <wgt id="33">3.15228e-12</wgt>
  <wgt id="34">3.13294e-12</wgt>
  <wgt id="35">3.1403e-12</wgt>
  <wgt id="36">3.15587e-12</wgt>
  <wgt id="37">3.13661e-12</wgt>
  <wgt id="38">3.13547e-12</wgt>
  <wgt id="39">3.1813e-12</wgt>
  <wgt id="40">3.14994e-12</wgt>
  <wgt id="41">3.14374e-12</wgt>
  <wgt id="42">3.15076e-12</wgt>
  <wgt id="43">3.14483e-12</wgt>
  <wgt id="44">3.13933e-12</wgt>
  <wgt id="45">3.15182e-12</wgt>
  <wgt id="46">3.14716e-12</wgt>
  <wgt id="47">3.13971e-12</wgt>
  <wgt id="48">3.14595e-12</wgt>
  <wgt id="49">3.14403e-12</wgt>
  <wgt id="50">3.15373e-12</wgt>
  <wgt id="51">3.15228e-12</wgt>
  <wgt id="52">3.14601e-12</wgt>
  <wgt id="53">3.1282e-12</wgt>
  <wgt id="54">3.14115e-12</wgt>
  <wgt id="55">3.14482e-12</wgt>
  <wgt id="56">3.1562e-12</wgt>
  <wgt id="57">3.15244e-12</wgt>
  <wgt id="58">3.12794e-12</wgt>
  <wgt id="59">3.13595e-12</wgt>
  <wgt id="60">3.14577e-12</wgt>
  <wgt id="61">3.13126e-12</wgt>
  <wgt id="62">3.13868e-12</wgt>
  <wgt id="63">3.14382e-12</wgt>
  <wgt id="64">3.14695e-12</wgt>
  <wgt id="65">3.14885e-12</wgt>
  <wgt id="66">3.14098e-12</wgt>
  <wgt id="67">3.13332e-12</wgt>
  <wgt id="68">3.14278e-12</wgt>
  <wgt id="69">3.1452e-12</wgt>
  <wgt id="70">3.14451e-12</wgt>
  <wgt id="71">3.14365e-12</wgt>
  <wgt id="72">3.13801e-12</wgt>
  <wgt id="73">3.1486e-12</wgt>
  <wgt id="74">3.14675e-12</wgt>
  <wgt id="75">3.14188e-12</wgt>
  <wgt id="76">3.15354e-12</wgt>
  <wgt id="77">3.14376e-12</wgt>
  <wgt id="78">3.14445e-12</wgt>
  <wgt id="79">3.15266e-12</wgt>
  <wgt id="80">3.13162e-12</wgt>
  <wgt id="81">3.14286e-12</wgt>
  <wgt id="82">3.14518e-12</wgt>
  <wgt id="83">3.13258e-12</wgt>
  <wgt id="84">3.14032e-12</wgt>
  <wgt id="85">3.1377e-12</wgt>
  <wgt id="86">3.15462e-12</wgt>
  <wgt id="87">3.12753e-12</wgt>
  <wgt id="88">3.14847e-12</wgt>
  <wgt id="89">3.14767e-12</wgt>
  <wgt id="90">3.15212e-12</wgt>
  <wgt id="91">3.14824e-12</wgt>
  <wgt id="92">3.15141e-12</wgt>
  <wgt id="93">3.14683e-12</wgt>
  <wgt id="94">3.14193e-12</wgt>
  <wgt id="95">3.15032e-12</wgt>
  <wgt id="96">3.1476e-12</wgt>
  <wgt id="97">3.13869e-12</wgt>
  <wgt id="98">3.1465e-12</wgt>
  <wgt id="99">3.13966e-12</wgt>
  <wgt id="100">3.14905e-12</wgt>
  <wgt id="101">3.14569e-12</wgt>
  <wgt id="102">3.14264e-12</wgt>
  <wgt id="103">3.14961e-12</wgt>
  <wgt id="104">3.14358e-12</wgt>
  <wgt id="105">3.14963e-12</wgt>
  <wgt id="106">3.13995e-12</wgt>
  <wgt id="107">3.15483e-12</wgt>
  <wgt id="108">3.14119e-12</wgt>
  <wgt id="109">3.14573e-12</wgt>
  <wgt id="110">3.14515e-12</wgt>
  <wgt id="111">3.17241e-12</wgt>
  <wgt id="112">3.15129e-12</wgt>
  <wgt id="113">4.28374e-12</wgt>
  <wgt id="114">4.35689e-12</wgt>
  <wgt id="115">4.29243e-12</wgt>
  <wgt id="116">6.01154e-12</wgt>
  <wgt id="117">3.50384e-12</wgt>
  <wgt id="118">3.51628e-12</wgt>
  <wgt id="119">3.4966e-12</wgt>
  <wgt id="120">3.5041e-12</wgt>
  <wgt id="121">3.50369e-12</wgt>
  <wgt id="122">3.49761e-12</wgt>
  <wgt id="123">3.51211e-12</wgt>
  <wgt id="124">3.49881e-12</wgt>
  <wgt id="125">3.5069e-12</wgt>
  <wgt id="126">3.51002e-12</wgt>
  <wgt id="127">3.49966e-12</wgt>
  <wgt id="128">3.51473e-12</wgt>
  <wgt id="129">3.49296e-12</wgt>
  <wgt id="130">3.52383e-12</wgt>
  <wgt id="131">3.48333e-12</wgt>
  <wgt id="132">3.41154e-12</wgt>
  <wgt id="133">3.61312e-12</wgt>
  <wgt id="134">3.46591e-12</wgt>
  <wgt id="135">3.53347e-12</wgt>
  <wgt id="136">3.55011e-12</wgt>
  <wgt id="137">3.44773e-12</wgt>
  <wgt id="138">3.64337e-12</wgt>
  <wgt id="139">3.36928e-12</wgt>
  <wgt id="140">3.48155e-12</wgt>
  <wgt id="141">3.52111e-12</wgt>
  <wgt id="142">3.50407e-12</wgt>
  <wgt id="143">3.50966e-12</wgt>
  <wgt id="144">3.39787e-12</wgt>
  <wgt id="145">3.60291e-12</wgt>
  <wgt id="146">3.53751e-12</wgt>
  <wgt id="147">3.4769e-12</wgt>
  <wgt id="148">3.51495e-12</wgt>
  <wgt id="149">3.50298e-12</wgt>
  <wgt id="150">3.53411e-12</wgt>
  <wgt id="151">3.48969e-12</wgt>
  <wgt id="152">3.50541e-12</wgt>
  <wgt id="153">3.50315e-12</wgt>
  <wgt id="154">3.52885e-12</wgt>
  <wgt id="155">3.47278e-12</wgt>
  <wgt id="156">3.58081e-12</wgt>
  <wgt id="157">3.42522e-12</wgt>
  <wgt id="158">4.2133e-12</wgt>
  <wgt id="159">4.23101e-12</wgt>
  <wgt id="160">4.19919e-12</wgt>
  <wgt id="161">4.20271e-12</wgt>
  <wgt id="162">4.22526e-12</wgt>
  <wgt id="163">4.20851e-12</wgt>
  <wgt id="164">4.22017e-12</wgt>
  <wgt id="165">4.21489e-12</wgt>
  <wgt id="166">4.21194e-12</wgt>
  <wgt id="167">4.21025e-12</wgt>
  <wgt id="168">4.21772e-12</wgt>
  <wgt id="169">4.1953e-12</wgt>
  <wgt id="170">4.22445e-12</wgt>
  <wgt id="171">4.20872e-12</wgt>
  <wgt id="172">4.21957e-12</wgt>
  <wgt id="173">4.21187e-12</wgt>
  <wgt id="174">4.21373e-12</wgt>
  <wgt id="175">4.09388e-12</wgt>
  <wgt id="176">4.36903e-12</wgt>
  <wgt id="177">4.23566e-12</wgt>
  <wgt id="178">4.19287e-12</wgt>
  <wgt id="179">4.39589e-12</wgt>
  <wgt id="180">3.9262e-12</wgt>
  <wgt id="181">4.08767e-12</wgt>
  <wgt id="182">4.29635e-12</wgt>
  <wgt id="183">4.13673e-12</wgt>
  <wgt id="184">4.25125e-12</wgt>
  <wgt id="185">4.17719e-12</wgt>
  <wgt id="186">4.25706e-12</wgt>
  <wgt id="187">4.17392e-12</wgt>
  <wgt id="188">4.28387e-12</wgt>
  <wgt id="189">4.18503e-12</wgt>
  <wgt id="190">4.22475e-12</wgt>
  <wgt id="191">4.22523e-12</wgt>
  <wgt id="192">4.20606e-12</wgt>
  <wgt id="193">4.27495e-12</wgt>
  <wgt id="194">4.18275e-12</wgt>
  <wgt id="195">4.10147e-12</wgt>
  <wgt id="196">4.4087e-12</wgt>
  <wgt id="197">4.2347e-12</wgt>
  <wgt id="198">4.20824e-12</wgt>
  <wgt id="199">4.2133e-12</wgt>
  <wgt id="200">4.25008e-12</wgt>
  <wgt id="201">4.23684e-12</wgt>
  <wgt id="202">4.22397e-12</wgt>
  <wgt id="203">4.20458e-12</wgt>
  <wgt id="204">4.19534e-12</wgt>
  <wgt id="205">4.18776e-12</wgt>
  <wgt id="206">4.09061e-12</wgt>
  <wgt id="207">4.11468e-12</wgt>
  <wgt id="208">4.06704e-12</wgt>
  <wgt id="209">4.10351e-12</wgt>
  <wgt id="210">4.08157e-12</wgt>
  <wgt id="211">4.08928e-12</wgt>
  <wgt id="212">4.0918e-12</wgt>
  <wgt id="213">4.0904e-12</wgt>
  <wgt id="214">4.09121e-12</wgt>
  <wgt id="215">4.09381e-12</wgt>
  <wgt id="216">4.08856e-12</wgt>
  <wgt id="217">4.10207e-12</wgt>
  <wgt id="218">4.08191e-12</wgt>
  <wgt id="219">4.08652e-12</wgt>
  <wgt id="220">4.09339e-12</wgt>
  <wgt id="221">4.08953e-12</wgt>
  <wgt id="222">4.09362e-12</wgt>
  <wgt id="223">3.87211e-12</wgt>
  <wgt id="224">4.29006e-12</wgt>
  <wgt id="225">4.04131e-12</wgt>
  <wgt id="226">4.15303e-12</wgt>
  <wgt id="227">4.05202e-12</wgt>
  <wgt id="228">4.10772e-12</wgt>
  <wgt id="229">4.03375e-12</wgt>
  <wgt id="230">4.11911e-12</wgt>
  <wgt id="231">4.21057e-12</wgt>
  <wgt id="232">3.99231e-12</wgt>
  <wgt id="233">4.06896e-12</wgt>
  <wgt id="234">4.12569e-12</wgt>
  <wgt id="235">3.995e-12</wgt>
  <wgt id="236">4.17679e-12</wgt>
  <wgt id="237">4.02818e-12</wgt>
  <wgt id="238">4.11193e-12</wgt>
  <wgt id="239">4.06414e-12</wgt>
  <wgt id="240">4.13894e-12</wgt>
  <wgt id="241">4.04798e-12</wgt>
  <wgt id="242">4.14212e-12</wgt>
  <wgt id="243">4.14435e-12</wgt>
  <wgt id="244">4.10886e-12</wgt>
  <wgt id="245">4.08807e-12</wgt>
  <wgt id="246">4.11972e-12</wgt>
  <wgt id="247">4.09061e-12</wgt>
  <wgt id="248">4.12734e-12</wgt>
  <wgt id="249">4.1136e-12</wgt>
  <wgt id="250">4.10052e-12</wgt>
  <wgt id="251">4.08137e-12</wgt>
  <wgt id="252">4.07215e-12</wgt>
  <wgt id="253">4.0657e-12</wgt>
  <wgt id="254">3.99772e-12</wgt>
  <wgt id="255">4.00153e-12</wgt>
  <wgt id="256">3.99365e-12</wgt>
  <wgt id="257">4.00073e-12</wgt>
  <wgt id="258">3.99558e-12</wgt>
  <wgt id="259">4.02441e-12</wgt>
  <wgt id="260">3.97196e-12</wgt>
  <wgt id="261">4.00357e-12</wgt>
  <wgt id="262">3.9907e-12</wgt>
  <wgt id="263">3.99565e-12</wgt>
  <wgt id="264">4e-12</wgt>
  <wgt id="265">3.99304e-12</wgt>
  <wgt id="266">4.00723e-12</wgt>
  <wgt id="267">3.99896e-12</wgt>
  <wgt id="268">3.99588e-12</wgt>
  <wgt id="269">4.01055e-12</wgt>
  <wgt id="270">3.989e-12</wgt>
  <wgt id="271">3.99045e-12</wgt>
  <wgt id="272">4.00597e-12</wgt>
  <wgt id="273">3.9856e-12</wgt>
  <wgt id="274">4.00699e-12</wgt>
  <wgt id="275">3.98022e-12</wgt>
  <wgt id="276">4.01586e-12</wgt>
  <wgt id="277">3.97479e-12</wgt>
  <wgt id="278">4.01882e-12</wgt>
  <wgt id="279">3.9214e-12</wgt>
  <wgt id="280">4.09363e-12</wgt>
  <wgt id="281">3.98013e-12</wgt>
  <wgt id="282">3.9991e-12</wgt>
  <wgt id="283">3.88161e-12</wgt>
  <wgt id="284">4.14079e-12</wgt>
  <wgt id="285">3.80533e-12</wgt>
  <wgt id="286">4.15715e-12</wgt>
  <wgt id="287">4.01049e-12</wgt>
  <wgt id="288">3.98151e-12</wgt>
  <wgt id="289">4.02621e-12</wgt>
  <wgt id="290">3.93203e-12</wgt>
  <wgt id="291">3.98613e-12</wgt>
  <wgt id="292">4.00012e-12</wgt>
  <wgt id="293">3.96663e-12</wgt>
  <wgt id="294">4.0287e-12</wgt>
  <wgt id="295">3.92147e-12</wgt>
  <wgt id="296">4.09081e-12</wgt>
  <wgt id="297">3.99622e-12</wgt>
  <wgt id="298">4.01328e-12</wgt>
  <wgt id="299">3.98488e-12</wgt>
  <wgt id="300">4.03188e-12</wgt>
  <wgt id="301">3.93937e-12</wgt>
  <wgt id="302">4.1428e-12</wgt>
  <wgt id="303">3.96579e-12</wgt>
  <wgt id="304">4.01597e-12</wgt>
  <wgt id="305">4.00422e-12</wgt>
  <wgt id="306">4.00825e-12</wgt>
  <wgt id="307">3.99975e-12</wgt>
  <wgt id="308">4.00763e-12</wgt>
  <wgt id="309">4.002e-12</wgt>
  <wgt id="310">4.03196e-12</wgt>
  <wgt id="311">3.97844e-12</wgt>
  <wgt id="312">4.00893e-12</wgt>
  <wgt id="313">3.9993e-12</wgt>
  <wgt id="314">4.0021e-12</wgt>
  <wgt id="315">4.00604e-12</wgt>
  <wgt id="316">3.99962e-12</wgt>
  <wgt id="317">4.01406e-12</wgt>
  <wgt id="318">4.00712e-12</wgt>
  <wgt id="319">3.99902e-12</wgt>
  <wgt id="320">4.01776e-12</wgt>
  <wgt id="321">3.99661e-12</wgt>
  <wgt id="322">3.99489e-12</wgt>
  <wgt id="323">4.01486e-12</wgt>
  <wgt id="324">3.99409e-12</wgt>
  <wgt id="325">4.01289e-12</wgt>
  <wgt id="326">3.99002e-12</wgt>
  <wgt id="327">4.02235e-12</wgt>
  <wgt id="328">3.98341e-12</wgt>
  <wgt id="329">4.01581e-12</wgt>
  <wgt id="330">4.12157e-12</wgt>
  <wgt id="331">3.8923e-12</wgt>
  <wgt id="332">3.98942e-12</wgt>
  <wgt id="333">4.00471e-12</wgt>
  <wgt id="334">3.91334e-12</wgt>
  <wgt id="335">4.11705e-12</wgt>
  <wgt id="336">3.86476e-12</wgt>
  <wgt id="337">4.17415e-12</wgt>
  <wgt id="338">4.04903e-12</wgt>
  <wgt id="339">3.96262e-12</wgt>
  <wgt id="340">4.03076e-12</wgt>
  <wgt id="341">3.93575e-12</wgt>
  <wgt id="342">3.99604e-12</wgt>
  <wgt id="343">3.99989e-12</wgt>
  <wgt id="344">3.97603e-12</wgt>
  <wgt id="345">4.03675e-12</wgt>
  <wgt id="346">3.92499e-12</wgt>
  <wgt id="347">4.09522e-12</wgt>
  <wgt id="348">4.00427e-12</wgt>
  <wgt id="349">4.01733e-12</wgt>
  <wgt id="350">3.98796e-12</wgt>
  <wgt id="351">4.0452e-12</wgt>
  <wgt id="352">3.94048e-12</wgt>
  <wgt id="353">4.15432e-12</wgt>
  <wgt id="354">3.95597e-12</wgt>
  <wgt id="355">4.0336e-12</wgt>
  <wgt id="356">3.99772e-12</wgt>
  <wgt id="357">4.01896e-12</wgt>
  <wgt id="358">4.00422e-12</wgt>
  <wgt id="359">4.01002e-12</wgt>
  <wgt id="360">4.0297e-12</wgt>
  <wgt id="361">4.01135e-12</wgt>
  <wgt id="362">4.08201e-12</wgt>
  <wgt id="363">4.07229e-12</wgt>
  <wgt id="364">4.05749e-12</wgt>
  <wgt id="365">4.04373e-12</wgt>
  <wgt id="366">4.02837e-12</wgt>
  <wgt id="367">3.99741e-12</wgt>
  <wgt id="368">3.97987e-12</wgt>
  <wgt id="369">3.96095e-12</wgt>
  <wgt id="370">4.01135e-12</wgt>
  <wgt id="371">4.02923e-12</wgt>
  <wgt id="372">4.01946e-12</wgt>
  <wgt id="373">4.00479e-12</wgt>
  <wgt id="374">4.00442e-12</wgt>
  <wgt id="375">4.31655e-12</wgt>
  <wgt id="376">4.31707e-12</wgt>
  <wgt id="377">4.31577e-12</wgt>
  <wgt id="378">4.33243e-12</wgt>
  <wgt id="379">4.30095e-12</wgt>
  <wgt id="380">4.32823e-12</wgt>
  <wgt id="381">4.31205e-12</wgt>
  <wgt id="382">4.33881e-12</wgt>
  <wgt id="383">4.29457e-12</wgt>
  <wgt id="384">4.3194e-12</wgt>
  <wgt id="385">4.31375e-12</wgt>
  <wgt id="386">4.33354e-12</wgt>
  <wgt id="387">4.30933e-12</wgt>
  <wgt id="388">4.31245e-12</wgt>
  <wgt id="389">4.32155e-12</wgt>
  <wgt id="390">4.32811e-12</wgt>
  <wgt id="391">4.30454e-12</wgt>
  <wgt id="392">4.28281e-12</wgt>
  <wgt id="393">4.33597e-12</wgt>
  <wgt id="394">4.32234e-12</wgt>
  <wgt id="395">4.30888e-12</wgt>
  <wgt id="396">4.32016e-12</wgt>
  <wgt id="397">4.31414e-12</wgt>
  <wgt id="398">4.2995e-12</wgt>
  <wgt id="399">4.33324e-12</wgt>
  <wgt id="400">4.30954e-12</wgt>
  <wgt id="401">4.33271e-12</wgt>
  <wgt id="402">4.28094e-12</wgt>
  <wgt id="403">4.33319e-12</wgt>
  <wgt id="404">4.41883e-12</wgt>
  <wgt id="405">4.07018e-12</wgt>
  <wgt id="406">4.24305e-12</wgt>
  <wgt id="407">4.47669e-12</wgt>
  <wgt id="408">4.35439e-12</wgt>
  <wgt id="409">4.24445e-12</wgt>
  <wgt id="410">4.19623e-12</wgt>
  <wgt id="411">4.37267e-12</wgt>
  <wgt id="412">4.30863e-12</wgt>
  <wgt id="413">4.3284e-12</wgt>
  <wgt id="414">4.26851e-12</wgt>
  <wgt id="415">4.35404e-12</wgt>
  <wgt id="416">4.43419e-12</wgt>
  <wgt id="417">4.15416e-12</wgt>
  <wgt id="418">4.3226e-12</wgt>
  <wgt id="419">4.28359e-12</wgt>
  <wgt id="420">4.3856e-12</wgt>
  <wgt id="421">4.27604e-12</wgt>
  <wgt id="422">4.30763e-12</wgt>
  <wgt id="423">4.32163e-12</wgt>
  <wgt id="424">4.40841e-12</wgt>
  <wgt id="425">4.25809e-12</wgt>
  <wgt id="426">4.31655e-12</wgt>
  <wgt id="427">4.27272e-12</wgt>
  <wgt id="428">4.43871e-12</wgt>
  <wgt id="429">4.35764e-12</wgt>
  <wgt id="430">4.48136e-12</wgt>
  <wgt id="431">4.45668e-12</wgt>
  <wgt id="432">4.43339e-12</wgt>
  <wgt id="433">4.41086e-12</wgt>
  <wgt id="434">4.38332e-12</wgt>
  <wgt id="435">4.32596e-12</wgt>
  <wgt id="436">4.29673e-12</wgt>
  <wgt id="437">4.26861e-12</wgt>
  <wgt id="438">4.35764e-12</wgt>
  <wgt id="439">4.37193e-12</wgt>
  <wgt id="440">4.36346e-12</wgt>
  <wgt id="441">4.35335e-12</wgt>
  <wgt id="442">4.34985e-12</wgt>
  <wgt id="443">4.18521e-12</wgt>
  <wgt id="444">4.21127e-12</wgt>
  <wgt id="445">4.17742e-12</wgt>
  <wgt id="446">4.15759e-12</wgt>
  <wgt id="447">4.17391e-12</wgt>
  <wgt id="448">4.0762e-12</wgt>
  <wgt id="449">4.25211e-12</wgt>
  <wgt id="450">4.18117e-12</wgt>
  <wgt id="451">4.17756e-12</wgt>
  <wgt id="452">4.2788e-12</wgt>
  <wgt id="453">4.22491e-12</wgt>
  <wgt id="454">4.01195e-12</wgt>
  <wgt id="455">4.19486e-12</wgt>
  <wgt id="456">4.16514e-12</wgt>
  <wgt id="457">4.20162e-12</wgt>
  <wgt id="458">4.23714e-12</wgt>
  <wgt id="459">4.21531e-12</wgt>
  <wgt id="460">4.21759e-12</wgt>
  <wgt id="461">4.10482e-12</wgt>
  <wgt id="462">4.15232e-12</wgt>
  <wgt id="463">4.13622e-12</wgt>
  <wgt id="464">4.16256e-12</wgt>
  <wgt id="465">4.22938e-12</wgt>
  <wgt id="466">4.13111e-12</wgt>
  <wgt id="467">4.1457e-12</wgt>
  <wgt id="468">4.17459e-12</wgt>
  <wgt id="469">4.17438e-12</wgt>
  <wgt id="470">4.14395e-12</wgt>
  <wgt id="471">4.14665e-12</wgt>
  <wgt id="472">4.20519e-12</wgt>
  <wgt id="473">4.05195e-12</wgt>
  <wgt id="474">3.0282e-12</wgt>
  <wgt id="475">3.16737e-12</wgt>
  <wgt id="476">2.97262e-12</wgt>
  <wgt id="477">2.94222e-12</wgt>
  <wgt id="478">3.04872e-12</wgt>
  <wgt id="479">2.96435e-12</wgt>
  <wgt id="480">3.14586e-12</wgt>
  <wgt id="481">2.99053e-12</wgt>
  <wgt id="482">2.94605e-12</wgt>
  <wgt id="483">2.95442e-12</wgt>
  <wgt id="484">3.17571e-12</wgt>
  <wgt id="485">2.98802e-12</wgt>
  <wgt id="486">3.13256e-12</wgt>
  <wgt id="487">3.06251e-12</wgt>
  <wgt id="488">3.07924e-12</wgt>
  <wgt id="489">2.89276e-12</wgt>
  <wgt id="490">2.91734e-12</wgt>
  <wgt id="491">3.00311e-12</wgt>
  <wgt id="492">2.95272e-12</wgt>
  <wgt id="493">2.90586e-12</wgt>
  <wgt id="494">2.92939e-12</wgt>
  <wgt id="495">3.0694e-12</wgt>
  <wgt id="496">2.9291e-12</wgt>
  <wgt id="497">2.9029e-12</wgt>
  <wgt id="498">3.09098e-12</wgt>
  <wgt id="499">2.97459e-12</wgt>
  <wgt id="500">2.97173e-12</wgt>
  <wgt id="501">3.16251e-12</wgt>
  <wgt id="502">2.98408e-12</wgt>
  <wgt id="503">3.02639e-12</wgt>
  <wgt id="504">3.07242e-12</wgt>
  <wgt id="505">3.01053e-12</wgt>
  <wgt id="506">3.03666e-12</wgt>
  <wgt id="507">3.01598e-12</wgt>
  <wgt id="508">3.10242e-12</wgt>
  <wgt id="509">2.89189e-12</wgt>
  <wgt id="510">3.10826e-12</wgt>
  <wgt id="511">2.95109e-12</wgt>
  <wgt id="512">3.10162e-12</wgt>
  <wgt id="513">3.15479e-12</wgt>
  <wgt id="514">3.03951e-12</wgt>
  <wgt id="515">3.00572e-12</wgt>
  <wgt id="516">3.15703e-12</wgt>
  <wgt id="517">3.0966e-12</wgt>
  <wgt id="518">3.10647e-12</wgt>
  <wgt id="519">2.93997e-12</wgt>
  <wgt id="520">3.07468e-12</wgt>
  <wgt id="521">3.11257e-12</wgt>
  <wgt id="522">3.15462e-12</wgt>
  <wgt id="523">3.04754e-12</wgt>
  <wgt id="524">3.0453e-12</wgt>
  <wgt id="525">3.11431e-12</wgt>
  <wgt id="526">3.06146e-12</wgt>
  <wgt id="527">3.06141e-12</wgt>
  <wgt id="528">3.04632e-12</wgt>
  <wgt id="529">2.97903e-12</wgt>
  <wgt id="530">3.08523e-12</wgt>
  <wgt id="531">2.98305e-12</wgt>
  <wgt id="532">3.21501e-12</wgt>
  <wgt id="533">2.87789e-12</wgt>
  <wgt id="534">3.02517e-12</wgt>
  <wgt id="535">3.05778e-12</wgt>
  <wgt id="536">3.01319e-12</wgt>
  <wgt id="537">3.02213e-12</wgt>
  <wgt id="538">3.05928e-12</wgt>
  <wgt id="539">2.9719e-12</wgt>
  <wgt id="540">3.00083e-12</wgt>
  <wgt id="541">2.93827e-12</wgt>
  <wgt id="542">2.98666e-12</wgt>
  <wgt id="543">3.01485e-12</wgt>
  <wgt id="544">3.16321e-12</wgt>
  <wgt id="545">2.97393e-12</wgt>
  <wgt id="546">2.9578e-12</wgt>
  <wgt id="547">2.94577e-12</wgt>
  <wgt id="548">2.90615e-12</wgt>
  <wgt id="549">2.977e-12</wgt>
  <wgt id="550">2.97703e-12</wgt>
  <wgt id="551">3.06536e-12</wgt>
  <wgt id="552">2.95675e-12</wgt>
  <wgt id="553">3.00072e-12</wgt>
  <wgt id="554">3.2444e-12</wgt>
  <wgt id="555">3.10954e-12</wgt>
  <wgt id="556">2.91734e-12</wgt>
  <wgt id="557">3.09434e-12</wgt>
  <wgt id="558">2.9467e-12</wgt>
  <wgt id="559">2.97235e-12</wgt>
  <wgt id="560">3.30743e-12</wgt>
  <wgt id="561">2.98782e-12</wgt>
  <wgt id="562">3.0979e-12</wgt>
  <wgt id="563">3.00231e-12</wgt>
  <wgt id="564">3.07264e-12</wgt>
  <wgt id="565">2.94313e-12</wgt>
  <wgt id="566">3.0676e-12</wgt>
  <wgt id="567">2.99652e-12</wgt>
  <wgt id="568">3.01142e-12</wgt>
  <wgt id="569">3.07452e-12</wgt>
  <wgt id="570">2.91508e-12</wgt>
  <wgt id="571">3.35567e-12</wgt>
  <wgt id="572">2.96559e-12</wgt>
  <wgt id="573">2.91066e-12</wgt>
  <wgt id="574">2.93021e-12</wgt>
  <wgt id="575">3.33926e-12</wgt>
  <wgt id="576">3.3619e-12</wgt>
  <wgt id="577">3.43292e-12</wgt>
  <wgt id="578">3.43284e-12</wgt>
  <wgt id="579">3.41455e-12</wgt>
  <wgt id="580">3.43543e-12</wgt>
  <wgt id="581">3.58155e-12</wgt>
  <wgt id="582">3.3526e-12</wgt>
  <wgt id="583">3.37317e-12</wgt>
  <wgt id="584">3.33444e-12</wgt>
  <wgt id="585">3.30621e-12</wgt>
  <wgt id="586">3.2426e-12</wgt>
  <wgt id="587">3.38855e-12</wgt>
  <wgt id="588">3.35232e-12</wgt>
  <wgt id="589">3.43855e-12</wgt>
  <wgt id="590">3.37054e-12</wgt>
  <wgt id="591">3.46108e-12</wgt>
  <wgt id="592">3.20894e-12</wgt>
  <wgt id="593">3.31277e-12</wgt>
  <wgt id="594">3.41843e-12</wgt>
  <wgt id="595">3.34978e-12</wgt>
  <wgt id="596">3.42659e-12</wgt>
  <wgt id="597">3.26664e-12</wgt>
  <wgt id="598">3.22697e-12</wgt>
  <wgt id="599">3.48606e-12</wgt>
  <wgt id="600">3.33505e-12</wgt>
  <wgt id="601">3.24022e-12</wgt>
  <wgt id="602">3.25015e-12</wgt>
  <wgt id="603">3.25633e-12</wgt>
  <wgt id="604">3.39145e-12</wgt>
  <wgt id="605">3.46233e-12</wgt>
  <wgt id="606">3.30146e-12</wgt>
  <wgt id="607">3.32668e-12</wgt>
  <wgt id="608">3.38587e-12</wgt>
  <wgt id="609">3.18485e-12</wgt>
  <wgt id="610">3.219e-12</wgt>
  <wgt id="611">3.34416e-12</wgt>
  <wgt id="612">3.57575e-12</wgt>
  <wgt id="613">3.30877e-12</wgt>
  <wgt id="614">3.36598e-12</wgt>
  <wgt id="615">3.29031e-12</wgt>
  <wgt id="616">3.48296e-12</wgt>
  <wgt id="617">3.45305e-12</wgt>
  <wgt id="618">3.49083e-12</wgt>
  <wgt id="619">3.29714e-12</wgt>
  <wgt id="620">3.47e-12</wgt>
  <wgt id="621">3.36004e-12</wgt>
  <wgt id="622">3.38855e-12</wgt>
  <wgt id="623">3.42369e-12</wgt>
  <wgt id="624">3.33749e-12</wgt>
  <wgt id="625">3.28012e-12</wgt>
  <wgt id="626">3.22159e-12</wgt>
  <wgt id="627">3.1851e-12</wgt>
  <wgt id="628">3.47892e-12</wgt>
  <wgt id="629">3.28255e-12</wgt>
  <wgt id="630">3.23428e-12</wgt>
  <wgt id="631">3.36249e-12</wgt>
  <wgt id="632">3.18885e-12</wgt>
  <wgt id="633">3.31094e-12</wgt>
  <wgt id="634">3.30634e-12</wgt>
  <wgt id="635">3.22281e-12</wgt>
  <wgt id="636">3.37003e-12</wgt>
  <wgt id="637">3.3421e-12</wgt>
  <wgt id="638">3.21676e-12</wgt>
  <wgt id="639">3.28463e-12</wgt>
  <wgt id="640">3.33388e-12</wgt>
  <wgt id="641">3.38786e-12</wgt>
  <wgt id="642">3.25066e-12</wgt>
  <wgt id="643">3.31328e-12</wgt>
  <wgt id="644">3.14535e-12</wgt>
  <wgt id="645">3.3622e-12</wgt>
  <wgt id="646">3.33676e-12</wgt>
  <wgt id="647">3.30348e-12</wgt>
  <wgt id="648">3.38077e-12</wgt>
  <wgt id="649">3.37884e-12</wgt>
  <wgt id="650">3.25601e-12</wgt>
  <wgt id="651">3.40152e-12</wgt>
  <wgt id="652">3.29923e-12</wgt>
  <wgt id="653">3.24151e-12</wgt>
  <wgt id="654">3.30513e-12</wgt>
  <wgt id="655">3.28154e-12</wgt>
  <wgt id="656">3.34708e-12</wgt>
  <wgt id="657">3.5036e-12</wgt>
  <wgt id="658">3.3543e-12</wgt>
  <wgt id="659">3.20705e-12</wgt>
  <wgt id="660">3.38024e-12</wgt>
  <wgt id="661">3.28511e-12</wgt>
  <wgt id="662">3.32286e-12</wgt>
  <wgt id="663">3.34931e-12</wgt>
  <wgt id="664">3.30382e-12</wgt>
  <wgt id="665">3.33153e-12</wgt>
  <wgt id="666">3.30574e-12</wgt>
  <wgt id="667">3.45765e-12</wgt>
  <wgt id="668">3.33397e-12</wgt>
  <wgt id="669">3.41062e-12</wgt>
  <wgt id="670">3.42346e-12</wgt>
  <wgt id="671">3.31792e-12</wgt>
  <wgt id="672">3.20093e-12</wgt>
  <wgt id="673">3.37723e-12</wgt>
  <wgt id="674">3.26782e-12</wgt>
  <wgt id="675">3.28766e-12</wgt>
  <wgt id="676">4.23039e-12</wgt>
  <wgt id="677">4.27949e-12</wgt>
  <wgt id="678">4.45957e-12</wgt>
  <wgt id="679">4.00409e-12</wgt>
  <wgt id="680">4.15511e-12</wgt>
  <wgt id="681">4.29204e-12</wgt>
  <wgt id="682">4.36018e-12</wgt>
  <wgt id="683">4.14449e-12</wgt>
  <wgt id="684">4.41786e-12</wgt>
  <wgt id="685">4.05416e-12</wgt>
  <wgt id="686">4.13229e-12</wgt>
  <wgt id="687">4.42477e-12</wgt>
  <wgt id="688">4.17599e-12</wgt>
  <wgt id="689">4.52559e-12</wgt>
  <wgt id="690">4.42221e-12</wgt>
  <wgt id="691">4.44336e-12</wgt>
  <wgt id="692">4.18175e-12</wgt>
  <wgt id="693">5.03767e-12</wgt>
  <wgt id="694">4.50666e-12</wgt>
  <wgt id="695">4.08765e-12</wgt>
  <wgt id="696">4.03715e-12</wgt>
  <wgt id="697">4.05933e-12</wgt>
  <wgt id="698">3.83041e-12</wgt>
  <wgt id="699">3.80717e-12</wgt>
  <wgt id="700">3.707e-12</wgt>
  <wgt id="701">4.23963e-12</wgt>
  <wgt id="702">4.12043e-12</wgt>
  <wgt id="703">4.892e-12</wgt>
  <wgt id="704">4.65152e-12</wgt>
  <wgt id="705">4.48854e-12</wgt>
  <wgt id="706">3.96798e-12</wgt>
  <wgt id="707">4.05015e-12</wgt>
  <wgt id="708">4.16159e-12</wgt>
  <wgt id="709">4.1481e-12</wgt>
  <wgt id="710">3.82425e-12</wgt>
  <wgt id="711">4.22066e-12</wgt>
  <wgt id="712">4.12359e-12</wgt>
  <wgt id="713">4.55774e-12</wgt>
  <wgt id="714">4.1099e-12</wgt>
  <wgt id="715">4.16601e-12</wgt>
  <wgt id="716">4.07822e-12</wgt>
  <wgt id="717">3.97857e-12</wgt>
  <wgt id="718">4.24365e-12</wgt>
  <wgt id="719">3.8418e-12</wgt>
  <wgt id="720">4.03653e-12</wgt>
  <wgt id="721">3.84289e-12</wgt>
  <wgt id="722">3.70395e-12</wgt>
  <wgt id="723">4.53724e-12</wgt>
  <wgt id="724">4.44969e-12</wgt>
  <wgt id="725">4.45174e-12</wgt>
  <wgt id="726">4.25796e-12</wgt>
  <wgt id="727">4.14967e-12</wgt>
  <wgt id="728">4.12605e-12</wgt>
  <wgt id="729">3.97752e-12</wgt>
  <wgt id="730">4.56835e-12</wgt>
  <wgt id="731">4.16934e-12</wgt>
  <wgt id="732">4.68437e-12</wgt>
  <wgt id="733">4.16843e-12</wgt>
  <wgt id="734">4.33505e-12</wgt>
  <wgt id="735">4.238e-12</wgt>
  <wgt id="736">4.11574e-12</wgt>
  <wgt id="737">4.27217e-12</wgt>
  <wgt id="738">4.03112e-12</wgt>
  <wgt id="739">4.35088e-12</wgt>
  <wgt id="740">4.73152e-12</wgt>
  <wgt id="741">3.84074e-12</wgt>
  <wgt id="742">4.17516e-12</wgt>
  <wgt id="743">4.00975e-12</wgt>
  <wgt id="744">4.14432e-12</wgt>
  <wgt id="745">4.44114e-12</wgt>
  <wgt id="746">4.52479e-12</wgt>
  <wgt id="747">3.78404e-12</wgt>
  <wgt id="748">4.16743e-12</wgt>
  <wgt id="749">4.4345e-12</wgt>
  <wgt id="750">4.37841e-12</wgt>
  <wgt id="751">4.33795e-12</wgt>
  <wgt id="752">3.87312e-12</wgt>
  <wgt id="753">3.98185e-12</wgt>
  <wgt id="754">4.40117e-12</wgt>
  <wgt id="755">4.22964e-12</wgt>
  <wgt id="756">4.22797e-12</wgt>
  <wgt id="757">3.86688e-12</wgt>
  <wgt id="758">4.23766e-12</wgt>
  <wgt id="759">4.41046e-12</wgt>
  <wgt id="760">4.24748e-12</wgt>
  <wgt id="761">4.48123e-12</wgt>
  <wgt id="762">4.50501e-12</wgt>
  <wgt id="763">4.21972e-12</wgt>
  <wgt id="764">4.40968e-12</wgt>
  <wgt id="765">4.27992e-12</wgt>
  <wgt id="766">4.23063e-12</wgt>
  <wgt id="767">4.32874e-12</wgt>
  <wgt id="768">3.97207e-12</wgt>
  <wgt id="769">4.48579e-12</wgt>
  <wgt id="770">4.12359e-12</wgt>
  <wgt id="771">5.01729e-12</wgt>
  <wgt id="772">4.01813e-12</wgt>
  <wgt id="773">4.19805e-12</wgt>
  <wgt id="774">3.68313e-12</wgt>
  <wgt id="775">4.43983e-12</wgt>
  <wgt id="776">4.62679e-12</wgt>
  <wgt id="777">3.9862e-12</wgt>
  <wgt id="778">3.07456e-12</wgt>
  <wgt id="779">2.45285e-12</wgt>
  <wgt id="780">1.92471e-12</wgt>
  <wgt id="781">3.32586e-12</wgt>
  <wgt id="782">3.31905e-12</wgt>
  <wgt id="783">2.46283e-12</wgt>
  <wgt id="784">2.6162e-12</wgt>
  <wgt id="785">3.8729e-12</wgt>
  <wgt id="786">2.30265e-12</wgt>
  <wgt id="787">3.56397e-12</wgt>
  <wgt id="788">1.75625e-12</wgt>
  <wgt id="789">2.47171e-12</wgt>
  <wgt id="790">2.26414e-12</wgt>
  <wgt id="791">2.99077e-12</wgt>
  <wgt id="792">4.06105e-12</wgt>
  <wgt id="793">3.02006e-12</wgt>
  <wgt id="794">2.23975e-12</wgt>
  <wgt id="795">3.69436e-12</wgt>
  <wgt id="796">4.07289e-12</wgt>
  <wgt id="797">3.66118e-12</wgt>
  <wgt id="798">2.75241e-12</wgt>
  <wgt id="799">3.54176e-12</wgt>
  <wgt id="800">2.50675e-12</wgt>
  <wgt id="801">2.84648e-12</wgt>
  <wgt id="802">2.23665e-12</wgt>
  <wgt id="803">4.25648e-12</wgt>
  <wgt id="804">3.66837e-12</wgt>
  <wgt id="805">3.70651e-12</wgt>
  <wgt id="806">3.39207e-12</wgt>
  <wgt id="807">2.92724e-12</wgt>
  <wgt id="808">2.96842e-12</wgt>
  <wgt id="809">2.8315e-12</wgt>
  <wgt id="810">3.45439e-12</wgt>
  <wgt id="811">3.33708e-12</wgt>
  <wgt id="812">2.25182e-12</wgt>
  <wgt id="813">2.33559e-12</wgt>
  <wgt id="814">2.53896e-12</wgt>
  <wgt id="815">2.44868e-12</wgt>
  <wgt id="816">2.21228e-12</wgt>
  <wgt id="817">3.19301e-12</wgt>
  <wgt id="818">3.19091e-12</wgt>
  <wgt id="819">2.45275e-12</wgt>
  <wgt id="820">3.05061e-12</wgt>
  <wgt id="821">3.56482e-12</wgt>
  <wgt id="822">2.49904e-12</wgt>
  <wgt id="823">3.61378e-12</wgt>
  <wgt id="824">4.22322e-12</wgt>
  <wgt id="825">2.16303e-12</wgt>
  <wgt id="826">3.33505e-12</wgt>
  <wgt id="827">1.78695e-12</wgt>
  <wgt id="828">3.93348e-12</wgt>
  <wgt id="829">3.19325e-12</wgt>
  <wgt id="830">2.0465e-12</wgt>
  <wgt id="831">3.35544e-12</wgt>
  <wgt id="832">5.11343e-12</wgt>
  <wgt id="833">2.78985e-12</wgt>
  <wgt id="834">4.83314e-12</wgt>
  <wgt id="835">2.46084e-12</wgt>
  <wgt id="836">2.96452e-12</wgt>
  <wgt id="837">3.51344e-12</wgt>
  <wgt id="838">2.85584e-12</wgt>
  <wgt id="839">3.33071e-12</wgt>
  <wgt id="840">2.82155e-12</wgt>
  <wgt id="841">3.88571e-12</wgt>
  <wgt id="842">2.80765e-12</wgt>
  <wgt id="843">3.08511e-12</wgt>
  <wgt id="844">3.23861e-12</wgt>
  <wgt id="845">4.51678e-12</wgt>
  <wgt id="846">3.03833e-12</wgt>
  <wgt id="847">3.13669e-12</wgt>
  <wgt id="848">2.53565e-12</wgt>
  <wgt id="849">3.17585e-12</wgt>
  <wgt id="850">4.12117e-12</wgt>
  <wgt id="851">3.41074e-12</wgt>
  <wgt id="852">2.46687e-12</wgt>
  <wgt id="853">3.44265e-12</wgt>
  <wgt id="854">3.82696e-12</wgt>
  <wgt id="855">3.60666e-12</wgt>
  <wgt id="856">2.08745e-12</wgt>
  <wgt id="857">3.01599e-12</wgt>
  <wgt id="858">2.96573e-12</wgt>
  <wgt id="859">2.87809e-12</wgt>
  <wgt id="860">3.42352e-12</wgt>
  <wgt id="861">2.67002e-12</wgt>
  <wgt id="862">3.12666e-12</wgt>
  <wgt id="863">3.30566e-12</wgt>
  <wgt id="864">3.25715e-12</wgt>
  <wgt id="865">4.50436e-12</wgt>
  <wgt id="866">4.94598e-12</wgt>
  <wgt id="867">3.1429e-12</wgt>
  <wgt id="868">3.06027e-12</wgt>
  <wgt id="869">2.29119e-12</wgt>
  <wgt id="870">2.4348e-12</wgt>
  <wgt id="871">2.36013e-12</wgt>
  <wgt id="872">3.78669e-12</wgt>
  <wgt id="873">2.53853e-12</wgt>
  <wgt id="874">3.26977e-12</wgt>
  <wgt id="875">2.63171e-12</wgt>
  <wgt id="876">3.76373e-12</wgt>
  <wgt id="877">3.53345e-12</wgt>
  <wgt id="878">2.57084e-12</wgt>
  <wgt id="879">4.23039e-12</wgt>
  <wgt id="880">4.27949e-12</wgt>
  <wgt id="881">4.45957e-12</wgt>
  <wgt id="882">4.00409e-12</wgt>
  <wgt id="883">4.15511e-12</wgt>
  <wgt id="884">4.29204e-12</wgt>
  <wgt id="885">4.36018e-12</wgt>
  <wgt id="886">4.14449e-12</wgt>
  <wgt id="887">4.41786e-12</wgt>
  <wgt id="888">4.05416e-12</wgt>
  <wgt id="889">4.13229e-12</wgt>
  <wgt id="890">4.42477e-12</wgt>
  <wgt id="891">4.17599e-12</wgt>
  <wgt id="892">4.52559e-12</wgt>
  <wgt id="893">4.42221e-12</wgt>
  <wgt id="894">4.44336e-12</wgt>
  <wgt id="895">4.18175e-12</wgt>
  <wgt id="896">5.03767e-12</wgt>
  <wgt id="897">4.50666e-12</wgt>
  <wgt id="898">4.08765e-12</wgt>
  <wgt id="899">4.03715e-12</wgt>
  <wgt id="900">4.05933e-12</wgt>
  <wgt id="901">3.83041e-12</wgt>
  <wgt id="902">3.80717e-12</wgt>
  <wgt id="903">3.707e-12</wgt>
  <wgt id="904">4.23963e-12</wgt>
  <wgt id="905">4.12043e-12</wgt>
  <wgt id="906">4.892e-12</wgt>
  <wgt id="907">4.65152e-12</wgt>
  <wgt id="908">4.48854e-12</wgt>
  <wgt id="909">3.96798e-12</wgt>
  <wgt id="910">4.05015e-12</wgt>
  <wgt id="911">4.16159e-12</wgt>
  <wgt id="912">4.1481e-12</wgt>
  <wgt id="913">3.82425e-12</wgt>
  <wgt id="914">4.22066e-12</wgt>
  <wgt id="915">4.12359e-12</wgt>
  <wgt id="916">4.55774e-12</wgt>
  <wgt id="917">4.1099e-12</wgt>
  <wgt id="918">4.16601e-12</wgt>
  <wgt id="919">4.07822e-12</wgt>
  <wgt id="920">3.97857e-12</wgt>
  <wgt id="921">4.24365e-12</wgt>
  <wgt id="922">3.8418e-12</wgt>
  <wgt id="923">4.03653e-12</wgt>
  <wgt id="924">3.84289e-12</wgt>
  <wgt id="925">3.70395e-12</wgt>
  <wgt id="926">4.53724e-12</wgt>
  <wgt id="927">4.44969e-12</wgt>
  <wgt id="928">4.45174e-12</wgt>
  <wgt id="929">4.25796e-12</wgt>
  <wgt id="930">4.14967e-12</wgt>
  <wgt id="931">4.12605e-12</wgt>
  <wgt id="932">3.97752e-12</wgt>
  <wgt id="933">4.56835e-12</wgt>
  <wgt id="934">4.16934e-12</wgt>
  <wgt id="935">4.68437e-12</wgt>
  <wgt id="936">4.16843e-12</wgt>
  <wgt id="937">4.33505e-12</wgt>
  <wgt id="938">4.238e-12</wgt>
  <wgt id="939">4.11574e-12</wgt>
  <wgt id="940">4.27217e-12</wgt>
  <wgt id="941">4.03112e-12</wgt>
  <wgt id="942">4.35088e-12</wgt>
  <wgt id="943">4.73152e-12</wgt>
  <wgt id="944">3.84074e-12</wgt>
  <wgt id="945">4.17516e-12</wgt>
  <wgt id="946">4.00975e-12</wgt>
  <wgt id="947">4.14432e-12</wgt>
  <wgt id="948">4.44114e-12</wgt>
  <wgt id="949">4.52479e-12</wgt>
  <wgt id="950">3.78404e-12</wgt>
  <wgt id="951">4.16743e-12</wgt>
  <wgt id="952">4.4345e-12</wgt>
  <wgt id="953">4.37841e-12</wgt>
  <wgt id="954">4.33795e-12</wgt>
  <wgt id="955">3.87312e-12</wgt>
  <wgt id="956">3.98185e-12</wgt>
  <wgt id="957">4.40117e-12</wgt>
  <wgt id="958">4.22964e-12</wgt>
  <wgt id="959">4.22797e-12</wgt>
  <wgt id="960">3.86688e-12</wgt>
  <wgt id="961">4.23766e-12</wgt>
  <wgt id="962">4.41046e-12</wgt>
  <wgt id="963">4.24748e-12</wgt>
  <wgt id="964">4.48123e-12</wgt>
  <wgt id="965">4.50501e-12</wgt>
  <wgt id="966">4.21972e-12</wgt>
  <wgt id="967">4.40968e-12</wgt>
  <wgt id="968">4.27992e-12</wgt>
  <wgt id="969">4.23063e-12</wgt>
  <wgt id="970">4.32874e-12</wgt>
  <wgt id="971">3.97207e-12</wgt>
  <wgt id="972">4.48579e-12</wgt>
  <wgt id="973">4.12359e-12</wgt>
  <wgt id="974">5.01729e-12</wgt>
  <wgt id="975">4.01813e-12</wgt>
  <wgt id="976">4.19805e-12</wgt>
  <wgt id="977">3.68313e-12</wgt>
  <wgt id="978">4.43983e-12</wgt>
  <wgt id="979">4.62679e-12</wgt>
  <wgt id="980">4.22385e-12</wgt>
  <wgt id="981">4.26015e-12</wgt>
  <wgt id="982">4.10423e-12</wgt>
</rwgt>
</event>
<event>
 5   1  0.3028200E-11  0.2293883E+04  0.7818608E-02  0.7714405E-01
       21   -1    0    0  502  501  0.00000000000E+00  0.00000000000E+00  0.10429700807E+04  0.10429700807E+04  0.00000000000E+00 0.  1.
       21   -1    0    0  501  502 -0.00000000000E+00 -0.00000000000E+00 -0.12612778306E+04  0.12612778306E+04  0.00000000000E+00 0. -1.
       39    2    1    2    0    0  0.00000000000E+00  0.00000000000E+00 -0.21830774989E+03  0.23042479113E+04  0.22938832061E+04 0.  0.
       25    1    3    3    0    0  0.80528653406E+03 -0.73944336924E+03 -0.43401448047E+03  0.11829017151E+04  0.12500000000E+03 0.  0.
       25    1    3    3    0    0 -0.80528653406E+03  0.73944336924E+03  0.21570673058E+03  0.11213461963E+04  0.12500000000E+03 0.  0.
<mgrwt>
<rscale>  0 0.22938832E+04</rscale>
<asrwt>0</asrwt>
<pdfrwt beam="1">  1       21 0.16045694E+00 0.22938832E+04</pdfrwt>
<pdfrwt beam="2">  1       21 0.19404274E+00 0.22938832E+04</pdfrwt>
<totfact> 0.14122692E+01</totfact>
</mgrwt>
<rwgt>
  <wgt id="1">3.0282e-12</wgt>
  <wgt id="2">2.63826e-12</wgt>
  <wgt id="3">3.51191e-12</wgt>
  <wgt id="4">3.0282e-12</wgt>
  <wgt id="5">2.63826e-12</wgt>
  <wgt id="6">3.51191e-12</wgt>
  <wgt id="7">3.0282e-12</wgt>
  <wgt id="8">2.63826e-12</wgt>
  <wgt id="9">3.51191e-12</wgt>
  <wgt id="10">3.12646e-12</wgt>
  <wgt id="11">3.12315e-12</wgt>
  <wgt id="12">3.12027e-12</wgt>
  <wgt id="13">3.11555e-12</wgt>
  <wgt id="14">3.13784e-12</wgt>
  <wgt id="15">3.131e-12</wgt>
  <wgt id="16">3.11973e-12</wgt>
  <wgt id="17">3.13118e-12</wgt>
  <wgt id="18">3.12128e-12</wgt>
  <wgt id="19">3.13335e-12</wgt>
  <wgt id="20">3.11674e-12</wgt>
  <wgt id="21">3.10954e-12</wgt>
  <wgt id="22">3.11702e-12</wgt>
  <wgt id="23">3.09994e-12</wgt>
  <wgt id="24">3.11314e-12</wgt>
  <wgt id="25">3.11919e-12</wgt>
  <wgt id="26">3.13997e-12</wgt>
  <wgt id="27">3.12657e-12</wgt>
  <wgt id="28">3.11218e-12</wgt>
  <wgt id="29">3.12963e-12</wgt>
  <wgt id="30">3.11993e-12</wgt>
  <wgt id="31">3.13414e-12</wgt>
  <wgt id="32">3.12177e-12</wgt>
  <wgt id="33">3.13403e-12</wgt>
  <wgt id="34">3.1176e-12</wgt>
  <wgt id="35">3.12476e-12</wgt>
  <wgt id="36">3.13525e-12</wgt>
  <wgt id="37">3.11853e-12</wgt>
  <wgt id="38">3.11792e-12</wgt>
  <wgt id="39">3.15711e-12</wgt>
  <wgt id="40">3.13402e-12</wgt>
  <wgt id="41">3.12593e-12</wgt>
  <wgt id="42">3.13493e-12</wgt>
  <wgt id="43">3.12826e-12</wgt>
  <wgt id="44">3.11449e-12</wgt>
  <wgt id="45">3.13271e-12</wgt>
  <wgt id="46">3.13173e-12</wgt>
  <wgt id="47">3.11227e-12</wgt>
  <wgt id="48">3.12636e-12</wgt>
  <wgt id="49">3.13671e-12</wgt>
  <wgt id="50">3.14718e-12</wgt>
  <wgt id="51">3.14151e-12</wgt>
  <wgt id="52">3.11866e-12</wgt>
  <wgt id="53">3.10386e-12</wgt>
  <wgt id="54">3.11914e-12</wgt>
  <wgt id="55">3.12594e-12</wgt>
  <wgt id="56">3.13664e-12</wgt>
  <wgt id="57">3.13746e-12</wgt>
  <wgt id="58">3.10392e-12</wgt>
  <wgt id="59">3.11518e-12</wgt>
  <wgt id="60">3.12723e-12</wgt>
  <wgt id="61">3.12179e-12</wgt>
  <wgt id="62">3.12644e-12</wgt>
  <wgt id="63">3.13064e-12</wgt>
  <wgt id="64">3.13023e-12</wgt>
  <wgt id="65">3.12947e-12</wgt>
  <wgt id="66">3.12235e-12</wgt>
  <wgt id="67">3.12246e-12</wgt>
  <wgt id="68">3.12301e-12</wgt>
  <wgt id="69">3.12567e-12</wgt>
  <wgt id="70">3.12391e-12</wgt>
  <wgt id="71">3.12543e-12</wgt>
  <wgt id="72">3.12331e-12</wgt>
  <wgt id="73">3.12856e-12</wgt>
  <wgt id="74">3.12841e-12</wgt>
  <wgt id="75">3.12534e-12</wgt>
  <wgt id="76">3.13471e-12</wgt>
  <wgt id="77">3.12603e-12</wgt>
  <wgt id="78">3.1274e-12</wgt>
  <wgt id="79">3.13172e-12</wgt>
  <wgt id="80">3.11378e-12</wgt>
  <wgt id="81">3.12246e-12</wgt>
  <wgt id="82">3.1265e-12</wgt>
  <wgt id="83">3.11505e-12</wgt>
  <wgt id="84">3.11987e-12</wgt>
  <wgt id="85">3.12134e-12</wgt>
  <wgt id="86">3.13294e-12</wgt>
  <wgt id="87">3.11188e-12</wgt>
  <wgt id="88">3.13e-12</wgt>
  <wgt id="89">3.1293e-12</wgt>
  <wgt id="90">3.1302e-12</wgt>
  <wgt id="91">3.12849e-12</wgt>
  <wgt id="92">3.13194e-12</wgt>
  <wgt id="93">3.12588e-12</wgt>
  <wgt id="94">3.12381e-12</wgt>
  <wgt id="95">3.12809e-12</wgt>
  <wgt id="96">3.12849e-12</wgt>
  <wgt id="97">3.12273e-12</wgt>
  <wgt id="98">3.12791e-12</wgt>
  <wgt id="99">3.12547e-12</wgt>
  <wgt id="100">3.12933e-12</wgt>
  <wgt id="101">3.12528e-12</wgt>
  <wgt id="102">3.12334e-12</wgt>
  <wgt id="103">3.13057e-12</wgt>
  <wgt id="104">3.12406e-12</wgt>
  <wgt id="105">3.12906e-12</wgt>
  <wgt id="106">3.12281e-12</wgt>
  <wgt id="107">3.13412e-12</wgt>
  <wgt id="108">3.12363e-12</wgt>
  <wgt id="109">3.12763e-12</wgt>
  <wgt id="110">3.12592e-12</wgt>
  <wgt id="111">3.16029e-12</wgt>
  <wgt id="112">3.12155e-12</wgt>
  <wgt id="113">4.17236e-12</wgt>
  <wgt id="114">4.32752e-12</wgt>
  <wgt id="115">4.26896e-12</wgt>
  <wgt id="116">5.94859e-12</wgt>
  <wgt id="117">3.47161e-12</wgt>
  <wgt id="118">3.48354e-12</wgt>
  <wgt id="119">3.465e-12</wgt>
  <wgt id="120">3.47201e-12</wgt>
  <wgt id="121">3.47145e-12</wgt>
  <wgt id="122">3.46554e-12</wgt>
  <wgt id="123">3.4801e-12</wgt>
  <wgt id="124">3.46664e-12</wgt>
  <wgt id="125">3.47495e-12</wgt>
  <wgt id="126">3.47791e-12</wgt>
  <wgt id="127">3.46753e-12</wgt>
  <wgt id="128">3.48255e-12</wgt>
  <wgt id="129">3.46087e-12</wgt>
  <wgt id="130">3.49191e-12</wgt>
  <wgt id="131">3.45092e-12</wgt>
  <wgt id="132">3.38247e-12</wgt>
  <wgt id="133">3.57707e-12</wgt>
  <wgt id="134">3.43485e-12</wgt>
  <wgt id="135">3.50038e-12</wgt>
  <wgt id="136">3.51507e-12</wgt>
  <wgt id="137">3.41913e-12</wgt>
  <wgt id="138">3.60318e-12</wgt>
  <wgt id="139">3.34436e-12</wgt>
  <wgt id="140">3.44821e-12</wgt>
  <wgt id="141">3.48996e-12</wgt>
  <wgt id="142">3.47219e-12</wgt>
  <wgt id="143">3.47615e-12</wgt>
  <wgt id="144">3.37961e-12</wgt>
  <wgt id="145">3.55668e-12</wgt>
  <wgt id="146">3.50101e-12</wgt>
  <wgt id="147">3.44855e-12</wgt>
  <wgt id="148">3.48204e-12</wgt>
  <wgt id="149">3.4709e-12</wgt>
  <wgt id="150">3.50153e-12</wgt>
  <wgt id="151">3.45766e-12</wgt>
  <wgt id="152">3.47321e-12</wgt>
  <wgt id="153">3.47114e-12</wgt>
  <wgt id="154">3.50107e-12</wgt>
  <wgt id="155">3.43697e-12</wgt>
  <wgt id="156">3.53531e-12</wgt>
  <wgt id="157">3.40297e-12</wgt>
  <wgt id="158">4.17704e-12</wgt>
  <wgt id="159">4.1944e-12</wgt>
  <wgt id="160">4.16296e-12</wgt>
  <wgt id="161">4.16661e-12</wgt>
  <wgt id="162">4.1885e-12</wgt>
  <wgt id="163">4.17264e-12</wgt>
  <wgt id="164">4.18362e-12</wgt>
  <wgt id="165">4.1786e-12</wgt>
  <wgt id="166">4.17584e-12</wgt>
  <wgt id="167">4.17398e-12</wgt>
  <wgt id="168">4.18129e-12</wgt>
  <wgt id="169">4.15919e-12</wgt>
  <wgt id="170">4.1883e-12</wgt>
  <wgt id="171">4.17246e-12</wgt>
  <wgt id="172">4.18351e-12</wgt>
  <wgt id="173">4.17729e-12</wgt>
  <wgt id="174">4.1768e-12</wgt>
  <wgt id="175">4.06116e-12</wgt>
  <wgt id="176">4.32792e-12</wgt>
  <wgt id="177">4.19904e-12</wgt>
  <wgt id="178">4.15665e-12</wgt>
  <wgt id="179">4.34725e-12</wgt>
  <wgt id="180">3.9077e-12</wgt>
  <wgt id="181">4.05812e-12</wgt>
  <wgt id="182">4.25546e-12</wgt>
  <wgt id="183">4.10428e-12</wgt>
  <wgt id="184">4.21313e-12</wgt>
  <wgt id="185">4.14428e-12</wgt>
  <wgt id="186">4.21644e-12</wgt>
  <wgt id="187">4.14033e-12</wgt>
  <wgt id="188">4.24348e-12</wgt>
  <wgt id="189">4.15103e-12</wgt>
  <wgt id="190">4.18778e-12</wgt>
  <wgt id="191">4.18812e-12</wgt>
  <wgt id="192">4.1705e-12</wgt>
  <wgt id="193">4.23499e-12</wgt>
  <wgt id="194">4.14842e-12</wgt>
  <wgt id="195">4.08068e-12</wgt>
  <wgt id="196">4.3521e-12</wgt>
  <wgt id="197">4.19749e-12</wgt>
  <wgt id="198">4.17218e-12</wgt>
  <wgt id="199">4.17704e-12</wgt>
  <wgt id="200">4.21212e-12</wgt>
  <wgt id="201">4.19916e-12</wgt>
  <wgt id="202">4.18667e-12</wgt>
  <wgt id="203">4.16772e-12</wgt>
  <wgt id="204">4.1588e-12</wgt>
  <wgt id="205">4.15147e-12</wgt>
  <wgt id="206">4.05472e-12</wgt>
  <wgt id="207">4.07832e-12</wgt>
  <wgt id="208">4.03133e-12</wgt>
  <wgt id="209">4.0668e-12</wgt>
  <wgt id="210">4.04578e-12</wgt>
  <wgt id="211">4.05333e-12</wgt>
  <wgt id="212">4.05584e-12</wgt>
  <wgt id="213">4.05436e-12</wgt>
  <wgt id="214">4.05531e-12</wgt>
  <wgt id="215">4.05753e-12</wgt>
  <wgt id="216">4.05259e-12</wgt>
  <wgt id="217">4.06626e-12</wgt>
  <wgt id="218">4.04574e-12</wgt>
  <wgt id="219">4.05035e-12</wgt>
  <wgt id="220">4.05734e-12</wgt>
  <wgt id="221">4.05268e-12</wgt>
  <wgt id="222">4.05932e-12</wgt>
  <wgt id="223">3.84419e-12</wgt>
  <wgt id="224">4.24613e-12</wgt>
  <wgt id="225">4.00714e-12</wgt>
  <wgt id="226">4.11431e-12</wgt>
  <wgt id="227">4.017e-12</wgt>
  <wgt id="228">4.07127e-12</wgt>
  <wgt id="229">3.9992e-12</wgt>
  <wgt id="230">4.08232e-12</wgt>
  <wgt id="231">4.16761e-12</wgt>
  <wgt id="232">3.96179e-12</wgt>
  <wgt id="233">4.03414e-12</wgt>
  <wgt id="234">4.08642e-12</wgt>
  <wgt id="235">3.9806e-12</wgt>
  <wgt id="236">4.12589e-12</wgt>
  <wgt id="237">4.00298e-12</wgt>
  <wgt id="238">4.07247e-12</wgt>
  <wgt id="239">4.03192e-12</wgt>
  <wgt id="240">4.09592e-12</wgt>
  <wgt id="241">4.01482e-12</wgt>
  <wgt id="242">4.10281e-12</wgt>
  <wgt id="243">4.10071e-12</wgt>
  <wgt id="244">4.07839e-12</wgt>
  <wgt id="245">4.05163e-12</wgt>
  <wgt id="246">4.08536e-12</wgt>
  <wgt id="247">4.05472e-12</wgt>
  <wgt id="248">4.08873e-12</wgt>
  <wgt id="249">4.07559e-12</wgt>
  <wgt id="250">4.06356e-12</wgt>
  <wgt id="251">4.0451e-12</wgt>
  <wgt id="252">4.0366e-12</wgt>
  <wgt id="253">4.03032e-12</wgt>
  <wgt id="254">3.9747e-12</wgt>
  <wgt id="255">3.97851e-12</wgt>
  <wgt id="256">3.97048e-12</wgt>
  <wgt id="257">3.9777e-12</wgt>
  <wgt id="258">3.97244e-12</wgt>
  <wgt id="259">4.00121e-12</wgt>
  <wgt id="260">3.94913e-12</wgt>
  <wgt id="261">3.97995e-12</wgt>
  <wgt id="262">3.96842e-12</wgt>
  <wgt id="263">3.97306e-12</wgt>
  <wgt id="264">3.97652e-12</wgt>
  <wgt id="265">3.97021e-12</wgt>
  <wgt id="266">3.98349e-12</wgt>
  <wgt id="267">3.97598e-12</wgt>
  <wgt id="268">3.97295e-12</wgt>
  <wgt id="269">3.98717e-12</wgt>
  <wgt id="270">3.96622e-12</wgt>
  <wgt id="271">3.96815e-12</wgt>
  <wgt id="272">3.98194e-12</wgt>
  <wgt id="273">3.96242e-12</wgt>
  <wgt id="274">3.98404e-12</wgt>
  <wgt id="275">3.95917e-12</wgt>
  <wgt id="276">3.99068e-12</wgt>
  <wgt id="277">3.95246e-12</wgt>
  <wgt id="278">3.99512e-12</wgt>
  <wgt id="279">3.8995e-12</wgt>
  <wgt id="280">4.06874e-12</wgt>
  <wgt id="281">3.95759e-12</wgt>
  <wgt id="282">3.97519e-12</wgt>
  <wgt id="283">3.86472e-12</wgt>
  <wgt id="284">4.10978e-12</wgt>
  <wgt id="285">3.79182e-12</wgt>
  <wgt id="286">4.12533e-12</wgt>
  <wgt id="287">3.98669e-12</wgt>
  <wgt id="288">3.9593e-12</wgt>
  <wgt id="289">4.0014e-12</wgt>
  <wgt id="290">3.9118e-12</wgt>
  <wgt id="291">3.96479e-12</wgt>
  <wgt id="292">3.97708e-12</wgt>
  <wgt id="293">3.94527e-12</wgt>
  <wgt id="294">4.00381e-12</wgt>
  <wgt id="295">3.90204e-12</wgt>
  <wgt id="296">4.06314e-12</wgt>
  <wgt id="297">3.97567e-12</wgt>
  <wgt id="298">3.98833e-12</wgt>
  <wgt id="299">3.96231e-12</wgt>
  <wgt id="300">4.00721e-12</wgt>
  <wgt id="301">3.92531e-12</wgt>
  <wgt id="302">4.10347e-12</wgt>
  <wgt id="303">3.94717e-12</wgt>
  <wgt id="304">3.9906e-12</wgt>
  <wgt id="305">3.99229e-12</wgt>
  <wgt id="306">3.99653e-12</wgt>
  <wgt id="307">3.98799e-12</wgt>
  <wgt id="308">3.99571e-12</wgt>
  <wgt id="309">3.99011e-12</wgt>
  <wgt id="310">4.01994e-12</wgt>
  <wgt id="311">3.96684e-12</wgt>
  <wgt id="312">3.99656e-12</wgt>
  <wgt id="313">3.98822e-12</wgt>
  <wgt id="314">3.9909e-12</wgt>
  <wgt id="315">3.99394e-12</wgt>
  <wgt id="316">3.98814e-12</wgt>
  <wgt id="317">4.00165e-12</wgt>
  <wgt id="318">3.99526e-12</wgt>
  <wgt id="319">3.98766e-12</wgt>
  <wgt id="320">4.00539e-12</wgt>
  <wgt id="321">3.98523e-12</wgt>
  <wgt id="322">3.98379e-12</wgt>
  <wgt id="323">4.00262e-12</wgt>
  <wgt id="324">3.98219e-12</wgt>
  <wgt id="325">4.00139e-12</wgt>
  <wgt id="326">3.97996e-12</wgt>
  <wgt id="327">4.0083e-12</wgt>
  <wgt id="328">3.97232e-12</wgt>
  <wgt id="329">4.00389e-12</wgt>
  <wgt id="330">4.10851e-12</wgt>
  <wgt id="331">3.88151e-12</wgt>
  <wgt id="332">3.97821e-12</wgt>
  <wgt id="333">3.99234e-12</wgt>
  <wgt id="334">3.90564e-12</wgt>
  <wgt id="335">4.09994e-12</wgt>
  <wgt id="336">3.85911e-12</wgt>
  <wgt id="337">4.15382e-12</wgt>
  <wgt id="338">4.03498e-12</wgt>
  <wgt id="339">3.95288e-12</wgt>
  <wgt id="340">4.01795e-12</wgt>
  <wgt id="341">3.92629e-12</wgt>
  <wgt id="342">3.98548e-12</wgt>
  <wgt id="343">3.98883e-12</wgt>
  <wgt id="344">3.96552e-12</wgt>
  <wgt id="345">4.02352e-12</wgt>
  <wgt id="346">3.91676e-12</wgt>
  <wgt id="347">4.07949e-12</wgt>
  <wgt id="348">3.99515e-12</wgt>
  <wgt id="349">4.00332e-12</wgt>
  <wgt id="350">3.97676e-12</wgt>
  <wgt id="351">4.03196e-12</wgt>
  <wgt id="352">3.93713e-12</wgt>
  <wgt id="353">4.12851e-12</wgt>
  <wgt id="354">3.9499e-12</wgt>
  <wgt id="355">4.01854e-12</wgt>
  <wgt id="356">3.9747e-12</wgt>
  <wgt id="357">4.01032e-12</wgt>
  <wgt id="358">3.99229e-12</wgt>
  <wgt id="359">3.99017e-12</wgt>
  <wgt id="360">3.9962e-12</wgt>
  <wgt id="361">3.98614e-12</wgt>
  <wgt id="362">4.05277e-12</wgt>
  <wgt id="363">4.04327e-12</wgt>
  <wgt id="364">4.03041e-12</wgt>
  <wgt id="365">4.01728e-12</wgt>
  <wgt id="366">4.0025e-12</wgt>
  <wgt id="367">3.97157e-12</wgt>
  <wgt id="368">3.95486e-12</wgt>
  <wgt id="369">3.93685e-12</wgt>
  <wgt id="370">3.98614e-12</wgt>
  <wgt id="371">4.00395e-12</wgt>
  <wgt id="372">3.99412e-12</wgt>
  <wgt id="373">3.97959e-12</wgt>
  <wgt id="374">3.97754e-12</wgt>
  <wgt id="375">4.22516e-12</wgt>
  <wgt id="376">4.2257e-12</wgt>
  <wgt id="377">4.22445e-12</wgt>
  <wgt id="378">4.24029e-12</wgt>
  <wgt id="379">4.20996e-12</wgt>
  <wgt id="380">4.23641e-12</wgt>
  <wgt id="381">4.22057e-12</wgt>
  <wgt id="382">4.24666e-12</wgt>
  <wgt id="383">4.2038e-12</wgt>
  <wgt id="384">4.22788e-12</wgt>
  <wgt id="385">4.22252e-12</wgt>
  <wgt id="386">4.24179e-12</wgt>
  <wgt id="387">4.21784e-12</wgt>
  <wgt id="388">4.22114e-12</wgt>
  <wgt id="389">4.22988e-12</wgt>
  <wgt id="390">4.2365e-12</wgt>
  <wgt id="391">4.21314e-12</wgt>
  <wgt id="392">4.19432e-12</wgt>
  <wgt id="393">4.24258e-12</wgt>
  <wgt id="394">4.23123e-12</wgt>
  <wgt id="395">4.21673e-12</wgt>
  <wgt id="396">4.2271e-12</wgt>
  <wgt id="397">4.22377e-12</wgt>
  <wgt id="398">4.20666e-12</wgt>
  <wgt id="399">4.24297e-12</wgt>
  <wgt id="400">4.21807e-12</wgt>
  <wgt id="401">4.24085e-12</wgt>
  <wgt id="402">4.19194e-12</wgt>
  <wgt id="403">4.23905e-12</wgt>
  <wgt id="404">4.31845e-12</wgt>
  <wgt id="405">3.99987e-12</wgt>
  <wgt id="406">4.1582e-12</wgt>
  <wgt id="407">4.36978e-12</wgt>
  <wgt id="408">4.25951e-12</wgt>
  <wgt id="409">4.15912e-12</wgt>
  <wgt id="410">4.11495e-12</wgt>
  <wgt id="411">4.27568e-12</wgt>
  <wgt id="412">4.21812e-12</wgt>
  <wgt id="413">4.23526e-12</wgt>
  <wgt id="414">4.1811e-12</wgt>
  <wgt id="415">4.25922e-12</wgt>
  <wgt id="416">4.3304e-12</wgt>
  <wgt id="417">4.07954e-12</wgt>
  <wgt id="418">4.23048e-12</wgt>
  <wgt id="419">4.19664e-12</wgt>
  <wgt id="420">4.2808e-12</wgt>
  <wgt id="421">4.19478e-12</wgt>
  <wgt id="422">4.22129e-12</wgt>
  <wgt id="423">4.22792e-12</wgt>
  <wgt id="424">4.30329e-12</wgt>
  <wgt id="425">4.17683e-12</wgt>
  <wgt id="426">4.22516e-12</wgt>
  <wgt id="427">4.19282e-12</wgt>
  <wgt id="428">4.32424e-12</wgt>
  <wgt id="429">4.26003e-12</wgt>
  <wgt id="430">4.37476e-12</wgt>
  <wgt id="431">4.35189e-12</wgt>
  <wgt id="432">4.33014e-12</wgt>
  <wgt id="433">4.30906e-12</wgt>
  <wgt id="434">4.28371e-12</wgt>
  <wgt id="435">4.23031e-12</wgt>
  <wgt id="436">4.20278e-12</wgt>
  <wgt id="437">4.17665e-12</wgt>
  <wgt id="438">4.26003e-12</wgt>
  <wgt id="439">4.27412e-12</wgt>
  <wgt id="440">4.26585e-12</wgt>
  <wgt id="441">4.25564e-12</wgt>
  <wgt id="442">4.25181e-12</wgt>
  <wgt id="443">4.15039e-12</wgt>
  <wgt id="444">4.17067e-12</wgt>
  <wgt id="445">4.13214e-12</wgt>
  <wgt id="446">4.12492e-12</wgt>
  <wgt id="447">4.13508e-12</wgt>
  <wgt id="448">4.0442e-12</wgt>
  <wgt id="449">4.21126e-12</wgt>
  <wgt id="450">4.13191e-12</wgt>
  <wgt id="451">4.14432e-12</wgt>
  <wgt id="452">4.23955e-12</wgt>
  <wgt id="453">4.18674e-12</wgt>
  <wgt id="454">3.9915e-12</wgt>
  <wgt id="455">4.1544e-12</wgt>
  <wgt id="456">4.09686e-12</wgt>
  <wgt id="457">4.16669e-12</wgt>
  <wgt id="458">4.19473e-12</wgt>
  <wgt id="459">4.17626e-12</wgt>
  <wgt id="460">4.1709e-12</wgt>
  <wgt id="461">4.07995e-12</wgt>
  <wgt id="462">4.11835e-12</wgt>
  <wgt id="463">4.10898e-12</wgt>
  <wgt id="464">4.12841e-12</wgt>
  <wgt id="465">4.19088e-12</wgt>
  <wgt id="466">4.10718e-12</wgt>
  <wgt id="467">4.11255e-12</wgt>
  <wgt id="468">4.1396e-12</wgt>
  <wgt id="469">4.1394e-12</wgt>
  <wgt id="470">4.11625e-12</wgt>
  <wgt id="471">4.11665e-12</wgt>
  <wgt id="472">4.16819e-12</wgt>
  <wgt id="473">4.02436e-12</wgt>
  <wgt id="474">3.0282e-12</wgt>
  <wgt id="475">3.22376e-12</wgt>
  <wgt id="476">2.96213e-12</wgt>
  <wgt id="477">2.94608e-12</wgt>
  <wgt id="478">3.04312e-12</wgt>
  <wgt id="479">2.98019e-12</wgt>
  <wgt id="480">3.12835e-12</wgt>
  <wgt id="481">2.95554e-12</wgt>
  <wgt id="482">2.9078e-12</wgt>
  <wgt id="483">2.94888e-12</wgt>
  <wgt id="484">3.24795e-12</wgt>
  <wgt id="485">3.03728e-12</wgt>
  <wgt id="486">3.08985e-12</wgt>
  <wgt id="487">3.08454e-12</wgt>
  <wgt id="488">3.06679e-12</wgt>
  <wgt id="489">2.93038e-12</wgt>
  <wgt id="490">2.938e-12</wgt>
  <wgt id="491">2.9933e-12</wgt>
  <wgt id="492">2.93239e-12</wgt>
  <wgt id="493">2.92153e-12</wgt>
  <wgt id="494">2.9386e-12</wgt>
  <wgt id="495">3.0928e-12</wgt>
  <wgt id="496">2.92666e-12</wgt>
  <wgt id="497">2.91585e-12</wgt>
  <wgt id="498">3.065e-12</wgt>
  <wgt id="499">2.94954e-12</wgt>
  <wgt id="500">2.97954e-12</wgt>
  <wgt id="501">3.16294e-12</wgt>
  <wgt id="502">2.94501e-12</wgt>
  <wgt id="503">3.02123e-12</wgt>
  <wgt id="504">3.03958e-12</wgt>
  <wgt id="505">3.04498e-12</wgt>
  <wgt id="506">3.09128e-12</wgt>
  <wgt id="507">2.99482e-12</wgt>
  <wgt id="508">3.06963e-12</wgt>
  <wgt id="509">2.99478e-12</wgt>
  <wgt id="510">3.10437e-12</wgt>
  <wgt id="511">2.96844e-12</wgt>
  <wgt id="512">3.06527e-12</wgt>
  <wgt id="513">3.15221e-12</wgt>
  <wgt id="514">3.00082e-12</wgt>
  <wgt id="515">2.98702e-12</wgt>
  <wgt id="516">3.10499e-12</wgt>
  <wgt id="517">3.09208e-12</wgt>
  <wgt id="518">3.10085e-12</wgt>
  <wgt id="519">2.94948e-12</wgt>
  <wgt id="520">3.04764e-12</wgt>
  <wgt id="521">3.13688e-12</wgt>
  <wgt id="522">3.14139e-12</wgt>
  <wgt id="523">3.10126e-12</wgt>
  <wgt id="524">3.08553e-12</wgt>
  <wgt id="525">3.11409e-12</wgt>
  <wgt id="526">3.02974e-12</wgt>
  <wgt id="527">3.07994e-12</wgt>
  <wgt id="528">3.03484e-12</wgt>
  <wgt id="529">2.98132e-12</wgt>
  <wgt id="530">3.04807e-12</wgt>
  <wgt id="531">2.99488e-12</wgt>
  <wgt id="532">3.18973e-12</wgt>
  <wgt id="533">2.84429e-12</wgt>
  <wgt id="534">3.03905e-12</wgt>
  <wgt id="535">3.0896e-12</wgt>
  <wgt id="536">3.02428e-12</wgt>
  <wgt id="537">3.04032e-12</wgt>
  <wgt id="538">3.07135e-12</wgt>
  <wgt id="539">2.96588e-12</wgt>
  <wgt id="540">2.9802e-12</wgt>
  <wgt id="541">2.96417e-12</wgt>
  <wgt id="542">2.96765e-12</wgt>
  <wgt id="543">3.02384e-12</wgt>
  <wgt id="544">3.17691e-12</wgt>
  <wgt id="545">2.99074e-12</wgt>
  <wgt id="546">2.99796e-12</wgt>
  <wgt id="547">2.93555e-12</wgt>
  <wgt id="548">2.90482e-12</wgt>
  <wgt id="549">2.97817e-12</wgt>
  <wgt id="550">3.03094e-12</wgt>
  <wgt id="551">3.05945e-12</wgt>
  <wgt id="552">3.00604e-12</wgt>
  <wgt id="553">3.02214e-12</wgt>
  <wgt id="554">3.25305e-12</wgt>
  <wgt id="555">3.1073e-12</wgt>
  <wgt id="556">2.938e-12</wgt>
  <wgt id="557">3.07343e-12</wgt>
  <wgt id="558">2.92792e-12</wgt>
  <wgt id="559">2.99224e-12</wgt>
  <wgt id="560">3.27051e-12</wgt>
  <wgt id="561">2.96119e-12</wgt>
  <wgt id="562">3.06894e-12</wgt>
  <wgt id="563">2.93987e-12</wgt>
  <wgt id="564">3.022e-12</wgt>
  <wgt id="565">2.91945e-12</wgt>
  <wgt id="566">3.06881e-12</wgt>
  <wgt id="567">2.98216e-12</wgt>
  <wgt id="568">3.02328e-12</wgt>
  <wgt id="569">3.07113e-12</wgt>
  <wgt id="570">2.94786e-12</wgt>
  <wgt id="571">3.35154e-12</wgt>
  <wgt id="572">2.95837e-12</wgt>
  <wgt id="573">2.89147e-12</wgt>
  <wgt id="574">2.91999e-12</wgt>
  <wgt id="575">3.32541e-12</wgt>
  <wgt id="576">3.27896e-12</wgt>
  <wgt id="577">3.42877e-12</wgt>
  <wgt id="578">3.39823e-12</wgt>
  <wgt id="579">3.36672e-12</wgt>
  <wgt id="580">3.37814e-12</wgt>
  <wgt id="581">3.52625e-12</wgt>
  <wgt id="582">3.26986e-12</wgt>
  <wgt id="583">3.35991e-12</wgt>
  <wgt id="584">3.33038e-12</wgt>
  <wgt id="585">3.35709e-12</wgt>
  <wgt id="586">3.25322e-12</wgt>
  <wgt id="587">3.36712e-12</wgt>
  <wgt id="588">3.30307e-12</wgt>
  <wgt id="589">3.37215e-12</wgt>
  <wgt id="590">3.38342e-12</wgt>
  <wgt id="591">3.45409e-12</wgt>
  <wgt id="592">3.26761e-12</wgt>
  <wgt id="593">3.31149e-12</wgt>
  <wgt id="594">3.44466e-12</wgt>
  <wgt id="595">3.30443e-12</wgt>
  <wgt id="596">3.35746e-12</wgt>
  <wgt id="597">3.21055e-12</wgt>
  <wgt id="598">3.26907e-12</wgt>
  <wgt id="599">3.5014e-12</wgt>
  <wgt id="600">3.28982e-12</wgt>
  <wgt id="601">3.23228e-12</wgt>
  <wgt id="602">3.26316e-12</wgt>
  <wgt id="603">3.27496e-12</wgt>
  <wgt id="604">3.37052e-12</wgt>
  <wgt id="605">3.46067e-12</wgt>
  <wgt id="606">3.24208e-12</wgt>
  <wgt id="607">3.27761e-12</wgt>
  <wgt id="608">3.32878e-12</wgt>
  <wgt id="609">3.13471e-12</wgt>
  <wgt id="610">3.19803e-12</wgt>
  <wgt id="611">3.37206e-12</wgt>
  <wgt id="612">3.56171e-12</wgt>
  <wgt id="613">3.32642e-12</wgt>
  <wgt id="614">3.37064e-12</wgt>
  <wgt id="615">3.25599e-12</wgt>
  <wgt id="616">3.53322e-12</wgt>
  <wgt id="617">3.44718e-12</wgt>
  <wgt id="618">3.34102e-12</wgt>
  <wgt id="619">3.29733e-12</wgt>
  <wgt id="620">3.45497e-12</wgt>
  <wgt id="621">3.37716e-12</wgt>
  <wgt id="622">3.36712e-12</wgt>
  <wgt id="623">3.41612e-12</wgt>
  <wgt id="624">3.30848e-12</wgt>
  <wgt id="625">3.28972e-12</wgt>
  <wgt id="626">3.25366e-12</wgt>
  <wgt id="627">3.20396e-12</wgt>
  <wgt id="628">3.51831e-12</wgt>
  <wgt id="629">3.24914e-12</wgt>
  <wgt id="630">3.21884e-12</wgt>
  <wgt id="631">3.3331e-12</wgt>
  <wgt id="632">3.22539e-12</wgt>
  <wgt id="633">3.28454e-12</wgt>
  <wgt id="634">3.33405e-12</wgt>
  <wgt id="635">3.2833e-12</wgt>
  <wgt id="636">3.34328e-12</wgt>
  <wgt id="637">3.32361e-12</wgt>
  <wgt id="638">3.20313e-12</wgt>
  <wgt id="639">3.28654e-12</wgt>
  <wgt id="640">3.33062e-12</wgt>
  <wgt id="641">3.3348e-12</wgt>
  <wgt id="642">3.22694e-12</wgt>
  <wgt id="643">3.31053e-12</wgt>
  <wgt id="644">3.21506e-12</wgt>
  <wgt id="645">3.35148e-12</wgt>
  <wgt id="646">3.38868e-12</wgt>
  <wgt id="647">3.27619e-12</wgt>
  <wgt id="648">3.33839e-12</wgt>
  <wgt id="649">3.37745e-12</wgt>
  <wgt id="650">3.26701e-12</wgt>
  <wgt id="651">3.34462e-12</wgt>
  <wgt id="652">3.31363e-12</wgt>
  <wgt id="653">3.23668e-12</wgt>
  <wgt id="654">3.3125e-12</wgt>
  <wgt id="655">3.26326e-12</wgt>
  <wgt id="656">3.33569e-12</wgt>
  <wgt id="657">3.41531e-12</wgt>
  <wgt id="658">3.36082e-12</wgt>
  <wgt id="659">3.20182e-12</wgt>
  <wgt id="660">3.39141e-12</wgt>
  <wgt id="661">3.27341e-12</wgt>
  <wgt id="662">3.32037e-12</wgt>
  <wgt id="663">3.31884e-12</wgt>
  <wgt id="664">3.27254e-12</wgt>
  <wgt id="665">3.31304e-12</wgt>
  <wgt id="666">3.30892e-12</wgt>
  <wgt id="667">3.42656e-12</wgt>
  <wgt id="668">3.31409e-12</wgt>
  <wgt id="669">3.40722e-12</wgt>
  <wgt id="670">3.37467e-12</wgt>
  <wgt id="671">3.28224e-12</wgt>
  <wgt id="672">3.18658e-12</wgt>
  <wgt id="673">3.31913e-12</wgt>
  <wgt id="674">3.26116e-12</wgt>
  <wgt id="675">3.267e-12</wgt>
  <wgt id="676">4.15931e-12</wgt>
  <wgt id="677">4.21113e-12</wgt>
  <wgt id="678">4.34828e-12</wgt>
  <wgt id="679">3.92376e-12</wgt>
  <wgt id="680">4.0329e-12</wgt>
  <wgt id="681">4.27083e-12</wgt>
  <wgt id="682">4.24992e-12</wgt>
  <wgt id="683">4.11879e-12</wgt>
  <wgt id="684">4.34399e-12</wgt>
  <wgt id="685">3.93437e-12</wgt>
  <wgt id="686">4.13729e-12</wgt>
  <wgt id="687">4.3561e-12</wgt>
  <wgt id="688">4.14877e-12</wgt>
  <wgt id="689">4.48509e-12</wgt>
  <wgt id="690">4.38665e-12</wgt>
  <wgt id="691">4.40599e-12</wgt>
  <wgt id="692">4.12978e-12</wgt>
  <wgt id="693">4.81846e-12</wgt>
  <wgt id="694">4.39486e-12</wgt>
  <wgt id="695">4.02883e-12</wgt>
  <wgt id="696">3.94529e-12</wgt>
  <wgt id="697">4.04988e-12</wgt>
  <wgt id="698">3.87312e-12</wgt>
  <wgt id="699">3.83395e-12</wgt>
  <wgt id="700">3.66908e-12</wgt>
  <wgt id="701">4.17244e-12</wgt>
  <wgt id="702">3.99483e-12</wgt>
  <wgt id="703">4.73093e-12</wgt>
  <wgt id="704">4.49524e-12</wgt>
  <wgt id="705">4.31491e-12</wgt>
  <wgt id="706">3.87629e-12</wgt>
  <wgt id="707">4.00051e-12</wgt>
  <wgt id="708">4.11024e-12</wgt>
  <wgt id="709">4.09083e-12</wgt>
  <wgt id="710">3.73145e-12</wgt>
  <wgt id="711">4.14519e-12</wgt>
  <wgt id="712">4.10351e-12</wgt>
  <wgt id="713">4.47324e-12</wgt>
  <wgt id="714">4.12726e-12</wgt>
  <wgt id="715">4.12033e-12</wgt>
  <wgt id="716">4.00382e-12</wgt>
  <wgt id="717">3.99261e-12</wgt>
  <wgt id="718">4.11142e-12</wgt>
  <wgt id="719">3.79579e-12</wgt>
  <wgt id="720">3.92384e-12</wgt>
  <wgt id="721">3.90282e-12</wgt>
  <wgt id="722">3.73956e-12</wgt>
  <wgt id="723">4.40895e-12</wgt>
  <wgt id="724">4.33496e-12</wgt>
  <wgt id="725">4.39428e-12</wgt>
  <wgt id="726">4.20544e-12</wgt>
  <wgt id="727">4.06175e-12</wgt>
  <wgt id="728">4.09922e-12</wgt>
  <wgt id="729">3.76391e-12</wgt>
  <wgt id="730">4.45368e-12</wgt>
  <wgt id="731">4.11647e-12</wgt>
  <wgt id="732">4.54223e-12</wgt>
  <wgt id="733">4.16532e-12</wgt>
  <wgt id="734">4.25802e-12</wgt>
  <wgt id="735">4.13362e-12</wgt>
  <wgt id="736">4.09906e-12</wgt>
  <wgt id="737">4.2318e-12</wgt>
  <wgt id="738">3.97425e-12</wgt>
  <wgt id="739">4.17369e-12</wgt>
  <wgt id="740">4.60132e-12</wgt>
  <wgt id="741">3.69954e-12</wgt>
  <wgt id="742">4.09447e-12</wgt>
  <wgt id="743">4.00947e-12</wgt>
  <wgt id="744">4.077e-12</wgt>
  <wgt id="745">4.32882e-12</wgt>
  <wgt id="746">4.38769e-12</wgt>
  <wgt id="747">3.81504e-12</wgt>
  <wgt id="748">4.10117e-12</wgt>
  <wgt id="749">4.38901e-12</wgt>
  <wgt id="750">4.16094e-12</wgt>
  <wgt id="751">4.30614e-12</wgt>
  <wgt id="752">3.83117e-12</wgt>
  <wgt id="753">3.96968e-12</wgt>
  <wgt id="754">4.32102e-12</wgt>
  <wgt id="755">4.18282e-12</wgt>
  <wgt id="756">4.18897e-12</wgt>
  <wgt id="757">3.85473e-12</wgt>
  <wgt id="758">4.20974e-12</wgt>
  <wgt id="759">4.17507e-12</wgt>
  <wgt id="760">4.22839e-12</wgt>
  <wgt id="761">4.37642e-12</wgt>
  <wgt id="762">4.39105e-12</wgt>
  <wgt id="763">4.15638e-12</wgt>
  <wgt id="764">4.3133e-12</wgt>
  <wgt id="765">4.2231e-12</wgt>
  <wgt id="766">4.14763e-12</wgt>
  <wgt id="767">4.26187e-12</wgt>
  <wgt id="768">3.94523e-12</wgt>
  <wgt id="769">4.4024e-12</wgt>
  <wgt id="770">4.03533e-12</wgt>
  <wgt id="771">4.88485e-12</wgt>
  <wgt id="772">3.91872e-12</wgt>
  <wgt id="773">4.13651e-12</wgt>
  <wgt id="774">3.74504e-12</wgt>
  <wgt id="775">4.37214e-12</wgt>
  <wgt id="776">4.54163e-12</wgt>
  <wgt id="777">4.00074e-12</wgt>
  <wgt id="778">3.09941e-12</wgt>
  <wgt id="779">2.62339e-12</wgt>
  <wgt id="780">2.18336e-12</wgt>
  <wgt id="781">3.10649e-12</wgt>
  <wgt id="782">3.27894e-12</wgt>
  <wgt id="783">2.66537e-12</wgt>
  <wgt id="784">2.74166e-12</wgt>
  <wgt id="785">3.72786e-12</wgt>
  <wgt id="786">2.41416e-12</wgt>
  <wgt id="787">3.49198e-12</wgt>
  <wgt id="788">2.02942e-12</wgt>
  <wgt id="789">2.48553e-12</wgt>
  <wgt id="790">2.39675e-12</wgt>
  <wgt id="791">2.87825e-12</wgt>
  <wgt id="792">3.97678e-12</wgt>
  <wgt id="793">3.00608e-12</wgt>
  <wgt id="794">2.42649e-12</wgt>
  <wgt id="795">3.57847e-12</wgt>
  <wgt id="796">4.04659e-12</wgt>
  <wgt id="797">3.54708e-12</wgt>
  <wgt id="798">2.88445e-12</wgt>
  <wgt id="799">3.50387e-12</wgt>
  <wgt id="800">2.51655e-12</wgt>
  <wgt id="801">2.91392e-12</wgt>
  <wgt id="802">2.44697e-12</wgt>
  <wgt id="803">3.99343e-12</wgt>
  <wgt id="804">3.55253e-12</wgt>
  <wgt id="805">3.62342e-12</wgt>
  <wgt id="806">3.49124e-12</wgt>
  <wgt id="807">2.96352e-12</wgt>
  <wgt id="808">3.02615e-12</wgt>
  <wgt id="809">2.85826e-12</wgt>
  <wgt id="810">3.5389e-12</wgt>
  <wgt id="811">3.37738e-12</wgt>
  <wgt id="812">2.40475e-12</wgt>
  <wgt id="813">2.4473e-12</wgt>
  <wgt id="814">2.65141e-12</wgt>
  <wgt id="815">2.63155e-12</wgt>
  <wgt id="816">2.31611e-12</wgt>
  <wgt id="817">3.26479e-12</wgt>
  <wgt id="818">3.03267e-12</wgt>
  <wgt id="819">2.62611e-12</wgt>
  <wgt id="820">3.11088e-12</wgt>
  <wgt id="821">3.54087e-12</wgt>
  <wgt id="822">2.62821e-12</wgt>
  <wgt id="823">3.55168e-12</wgt>
  <wgt id="824">4.13507e-12</wgt>
  <wgt id="825">2.33909e-12</wgt>
  <wgt id="826">3.24081e-12</wgt>
  <wgt id="827">1.9463e-12</wgt>
  <wgt id="828">3.97111e-12</wgt>
  <wgt id="829">3.21448e-12</wgt>
  <wgt id="830">2.22099e-12</wgt>
  <wgt id="831">3.3188e-12</wgt>
  <wgt id="832">5.02084e-12</wgt>
  <wgt id="833">2.91988e-12</wgt>
  <wgt id="834">4.68768e-12</wgt>
  <wgt id="835">2.52975e-12</wgt>
  <wgt id="836">3.111e-12</wgt>
  <wgt id="837">3.49632e-12</wgt>
  <wgt id="838">2.97585e-12</wgt>
  <wgt id="839">3.30043e-12</wgt>
  <wgt id="840">2.92326e-12</wgt>
  <wgt id="841">3.76211e-12</wgt>
  <wgt id="842">2.82458e-12</wgt>
  <wgt id="843">3.0255e-12</wgt>
  <wgt id="844">3.22142e-12</wgt>
  <wgt id="845">4.24865e-12</wgt>
  <wgt id="846">2.85602e-12</wgt>
  <wgt id="847">3.10168e-12</wgt>
  <wgt id="848">2.72487e-12</wgt>
  <wgt id="849">3.173e-12</wgt>
  <wgt id="850">3.984e-12</wgt>
  <wgt id="851">3.38368e-12</wgt>
  <wgt id="852">2.70564e-12</wgt>
  <wgt id="853">3.37319e-12</wgt>
  <wgt id="854">3.73926e-12</wgt>
  <wgt id="855">3.56195e-12</wgt>
  <wgt id="856">2.28052e-12</wgt>
  <wgt id="857">3.12521e-12</wgt>
  <wgt id="858">3.0887e-12</wgt>
  <wgt id="859">2.8832e-12</wgt>
  <wgt id="860">3.29213e-12</wgt>
  <wgt id="861">2.75829e-12</wgt>
  <wgt id="862">3.15824e-12</wgt>
  <wgt id="863">3.25909e-12</wgt>
  <wgt id="864">3.28261e-12</wgt>
  <wgt id="865">4.38489e-12</wgt>
  <wgt id="866">4.7924e-12</wgt>
  <wgt id="867">3.14918e-12</wgt>
  <wgt id="868">3.06561e-12</wgt>
  <wgt id="869">2.44563e-12</wgt>
  <wgt id="870">2.56914e-12</wgt>
  <wgt id="871">2.49573e-12</wgt>
  <wgt id="872">3.65044e-12</wgt>
  <wgt id="873">2.56432e-12</wgt>
  <wgt id="874">3.24669e-12</wgt>
  <wgt id="875">2.70773e-12</wgt>
  <wgt id="876">3.66238e-12</wgt>
  <wgt id="877">3.53201e-12</wgt>
  <wgt id="878">2.6988e-12</wgt>
  <wgt id="879">4.15931e-12</wgt>
  <wgt id="880">4.21113e-12</wgt>
  <wgt id="881">4.34828e-12</wgt>
  <wgt id="882">3.92376e-12</wgt>
  <wgt id="883">4.0329e-12</wgt>
  <wgt id="884">4.27083e-12</wgt>
  <wgt id="885">4.24992e-12</wgt>
  <wgt id="886">4.11879e-12</wgt>
  <wgt id="887">4.34399e-12</wgt>
  <wgt id="888">3.93437e-12</wgt>
  <wgt id="889">4.13729e-12</wgt>
  <wgt id="890">4.3561e-12</wgt>
  <wgt id="891">4.14877e-12</wgt>
  <wgt id="892">4.48509e-12</wgt>
  <wgt id="893">4.38665e-12</wgt>
  <wgt id="894">4.40599e-12</wgt>
  <wgt id="895">4.12978e-12</wgt>
  <wgt id="896">4.81846e-12</wgt>
  <wgt id="897">4.39486e-12</wgt>
  <wgt id="898">4.02883e-12</wgt>
  <wgt id="899">3.94529e-12</wgt>
  <wgt id="900">4.04988e-12</wgt>
  <wgt id="901">3.87312e-12</wgt>
  <wgt id="902">3.83395e-12</wgt>
  <wgt id="903">3.66908e-12</wgt>
  <wgt id="904">4.17244e-12</wgt>
  <wgt id="905">3.99483e-12</wgt>
  <wgt id="906">4.73093e-12</wgt>
  <wgt id="907">4.49524e-12</wgt>
  <wgt id="908">4.31491e-12</wgt>
  <wgt id="909">3.87629e-12</wgt>
  <wgt id="910">4.00051e-12</wgt>
  <wgt id="911">4.11024e-12</wgt>
  <wgt id="912">4.09083e-12</wgt>
  <wgt id="913">3.73145e-12</wgt>
  <wgt id="914">4.14519e-12</wgt>
  <wgt id="915">4.10351e-12</wgt>
  <wgt id="916">4.47324e-12</wgt>
  <wgt id="917">4.12726e-12</wgt>
  <wgt id="918">4.12033e-12</wgt>
  <wgt id="919">4.00382e-12</wgt>
  <wgt id="920">3.99261e-12</wgt>
  <wgt id="921">4.11142e-12</wgt>
  <wgt id="922">3.79579e-12</wgt>
  <wgt id="923">3.92384e-12</wgt>
  <wgt id="924">3.90282e-12</wgt>
  <wgt id="925">3.73956e-12</wgt>
  <wgt id="926">4.40895e-12</wgt>
  <wgt id="927">4.33496e-12</wgt>
  <wgt id="928">4.39428e-12</wgt>
  <wgt id="929">4.20544e-12</wgt>
  <wgt id="930">4.06175e-12</wgt>
  <wgt id="931">4.09922e-12</wgt>
  <wgt id="932">3.76391e-12</wgt>
  <wgt id="933">4.45368e-12</wgt>
  <wgt id="934">4.11647e-12</wgt>
  <wgt id="935">4.54223e-12</wgt>
  <wgt id="936">4.16532e-12</wgt>
  <wgt id="937">4.25802e-12</wgt>
  <wgt id="938">4.13362e-12</wgt>
  <wgt id="939">4.09906e-12</wgt>
  <wgt id="940">4.2318e-12</wgt>
  <wgt id="941">3.97425e-12</wgt>
  <wgt id="942">4.17369e-12</wgt>
  <wgt id="943">4.60132e-12</wgt>
  <wgt id="944">3.69954e-12</wgt>
  <wgt id="945">4.09447e-12</wgt>
  <wgt id="946">4.00947e-12</wgt>
  <wgt id="947">4.077e-12</wgt>
  <wgt id="948">4.32882e-12</wgt>
  <wgt id="949">4.38769e-12</wgt>
  <wgt id="950">3.81504e-12</wgt>
  <wgt id="951">4.10117e-12</wgt>
  <wgt id="952">4.38901e-12</wgt>
  <wgt id="953">4.16094e-12</wgt>
  <wgt id="954">4.30614e-12</wgt>
  <wgt id="955">3.83117e-12</wgt>
  <wgt id="956">3.96968e-12</wgt>
  <wgt id="957">4.32102e-12</wgt>
  <wgt id="958">4.18282e-12</wgt>
  <wgt id="959">4.18897e-12</wgt>
  <wgt id="960">3.85473e-12</wgt>
  <wgt id="961">4.20974e-12</wgt>
  <wgt id="962">4.17507e-12</wgt>
  <wgt id="963">4.22839e-12</wgt>
  <wgt id="964">4.37642e-12</wgt>
  <wgt id="965">4.39105e-12</wgt>
  <wgt id="966">4.15638e-12</wgt>
  <wgt id="967">4.3133e-12</wgt>
  <wgt id="968">4.2231e-12</wgt>
  <wgt id="969">4.14763e-12</wgt>
  <wgt id="970">4.26187e-12</wgt>
  <wgt id="971">3.94523e-12</wgt>
  <wgt id="972">4.4024e-12</wgt>
  <wgt id="973">4.03533e-12</wgt>
  <wgt id="974">4.88485e-12</wgt>
  <wgt id="975">3.91872e-12</wgt>
  <wgt id="976">4.13651e-12</wgt>
  <wgt id="977">3.74504e-12</wgt>
  <wgt id="978">4.37214e-12</wgt>
  <wgt id="979">4.54163e-12</wgt>
  <wgt id="980">4.16349e-12</wgt>
  <wgt id="981">4.17821e-12</wgt>
  <wgt id="982">4.04325e-12</wgt>
</rwgt>
</event>
<event>
 5   1  0.3028200E-11  0.2251199E+04  0.7818608E-02  0.7729855E-01
       21   -1    0    0  502  501  0.00000000000E+00  0.00000000000E+00  0.60944928138E+03  0.60944928138E+03  0.00000000000E+00 0. -1.
       21   -1    0    0  501  502 -0.00000000000E+00 -0.00000000000E+00 -0.20788840291E+04  0.20788840291E+04  0.00000000000E+00 0.  1.
       39    2    1    2    0    0  0.00000000000E+00  0.00000000000E+00 -0.14694347477E+04  0.26883333105E+04  0.22511991272E+04 0.  0.
       25    1    3    3    0    0 -0.11749733755E+03  0.10674977283E+04 -0.36089499628E+03  0.11398364894E+04  0.12500000000E+03 0.  0.
       25    1    3    3    0    0  0.11749733755E+03 -0.10674977283E+04 -0.11085397514E+04  0.15484968211E+04  0.12500000000E+03 0.  0.
<mgrwt>
<rscale>  0 0.22511991E+04</rscale>
<asrwt>0</asrwt>
<pdfrwt beam="1">  1       21 0.93761430E-01 0.22511991E+04</pdfrwt>
<pdfrwt beam="2">  1       21 0.31982831E+00 0.22511991E+04</pdfrwt>
<totfact> 0.88305024E+00</totfact>
</mgrwt>
<rwgt>
  <wgt id="1">3.0282e-12</wgt>
  <wgt id="2">2.61799e-12</wgt>
  <wgt id="3">3.54135e-12</wgt>
  <wgt id="4">3.0282e-12</wgt>
  <wgt id="5">2.61799e-12</wgt>
  <wgt id="6">3.54135e-12</wgt>
  <wgt id="7">3.0282e-12</wgt>
  <wgt id="8">2.61799e-12</wgt>
  <wgt id="9">3.54135e-12</wgt>
  <wgt id="10">3.18049e-12</wgt>
  <wgt id="11">3.17947e-12</wgt>
  <wgt id="12">3.17311e-12</wgt>
  <wgt id="13">3.17403e-12</wgt>
  <wgt id="14">3.19107e-12</wgt>
  <wgt id="15">3.1857e-12</wgt>
  <wgt id="16">3.17322e-12</wgt>
  <wgt id="17">3.19737e-12</wgt>
  <wgt id="18">3.17736e-12</wgt>
  <wgt id="19">3.19302e-12</wgt>
  <wgt id="20">3.17928e-12</wgt>
  <wgt id="21">3.15455e-12</wgt>
  <wgt id="22">3.15698e-12</wgt>
  <wgt id="23">3.13092e-12</wgt>
  <wgt id="24">3.15561e-12</wgt>
  <wgt id="25">3.16797e-12</wgt>
  <wgt id="26">3.1893e-12</wgt>
  <wgt id="27">3.17407e-12</wgt>
  <wgt id="28">3.15936e-12</wgt>
  <wgt id="29">3.18151e-12</wgt>
  <wgt id="30">3.15353e-12</wgt>
  <wgt id="31">3.1951e-12</wgt>
  <wgt id="32">3.15599e-12</wgt>
  <wgt id="33">3.1846e-12</wgt>
  <wgt id="34">3.15896e-12</wgt>
  <wgt id="35">3.15853e-12</wgt>
  <wgt id="36">3.19624e-12</wgt>
  <wgt id="37">3.16956e-12</wgt>
  <wgt id="38">3.16656e-12</wgt>
  <wgt id="39">3.23802e-12</wgt>
  <wgt id="40">3.18357e-12</wgt>
  <wgt id="41">3.17852e-12</wgt>
  <wgt id="42">3.18673e-12</wgt>
  <wgt id="43">3.18275e-12</wgt>
  <wgt id="44">3.19808e-12</wgt>
  <wgt id="45">3.18437e-12</wgt>
  <wgt id="46">3.16777e-12</wgt>
  <wgt id="47">3.21146e-12</wgt>
  <wgt id="48">3.19797e-12</wgt>
  <wgt id="49">3.16123e-12</wgt>
  <wgt id="50">3.15277e-12</wgt>
  <wgt id="51">3.16014e-12</wgt>
  <wgt id="52">3.18953e-12</wgt>
  <wgt id="53">3.20828e-12</wgt>
  <wgt id="54">3.1966e-12</wgt>
  <wgt id="55">3.17875e-12</wgt>
  <wgt id="56">3.16718e-12</wgt>
  <wgt id="57">3.16254e-12</wgt>
  <wgt id="58">3.17845e-12</wgt>
  <wgt id="59">3.18557e-12</wgt>
  <wgt id="60">3.15639e-12</wgt>
  <wgt id="61">3.16231e-12</wgt>
  <wgt id="62">3.17306e-12</wgt>
  <wgt id="63">3.17745e-12</wgt>
  <wgt id="64">3.17798e-12</wgt>
  <wgt id="65">3.16835e-12</wgt>
  <wgt id="66">3.18326e-12</wgt>
  <wgt id="67">3.17548e-12</wgt>
  <wgt id="68">3.17963e-12</wgt>
  <wgt id="69">3.17473e-12</wgt>
  <wgt id="70">3.17159e-12</wgt>
  <wgt id="71">3.179e-12</wgt>
  <wgt id="72">3.16305e-12</wgt>
  <wgt id="73">3.19286e-12</wgt>
  <wgt id="74">3.19221e-12</wgt>
  <wgt id="75">3.17969e-12</wgt>
  <wgt id="76">3.20127e-12</wgt>
  <wgt id="77">3.17478e-12</wgt>
  <wgt id="78">3.1776e-12</wgt>
  <wgt id="79">3.18869e-12</wgt>
  <wgt id="80">3.15422e-12</wgt>
  <wgt id="81">3.1796e-12</wgt>
  <wgt id="82">3.18349e-12</wgt>
  <wgt id="83">3.16077e-12</wgt>
  <wgt id="84">3.17006e-12</wgt>
  <wgt id="85">3.16814e-12</wgt>
  <wgt id="86">3.19282e-12</wgt>
  <wgt id="87">3.15128e-12</wgt>
  <wgt id="88">3.18945e-12</wgt>
  <wgt id="89">3.18608e-12</wgt>
  <wgt id="90">3.19159e-12</wgt>
  <wgt id="91">3.18447e-12</wgt>
  <wgt id="92">3.1893e-12</wgt>
  <wgt id="93">3.18436e-12</wgt>
  <wgt id="94">3.17198e-12</wgt>
  <wgt id="95">3.19115e-12</wgt>
  <wgt id="96">3.18856e-12</wgt>
  <wgt id="97">3.16818e-12</wgt>
  <wgt id="98">3.1803e-12</wgt>
  <wgt id="99">3.17583e-12</wgt>
  <wgt id="100">3.18811e-12</wgt>
  <wgt id="101">3.17659e-12</wgt>
  <wgt id="102">3.17501e-12</wgt>
  <wgt id="103">3.19193e-12</wgt>
  <wgt id="104">3.17424e-12</wgt>
  <wgt id="105">3.18721e-12</wgt>
  <wgt id="106">3.17232e-12</wgt>
  <wgt id="107">3.19917e-12</wgt>
  <wgt id="108">3.17428e-12</wgt>
  <wgt id="109">3.18374e-12</wgt>
  <wgt id="110">3.17905e-12</wgt>
  <wgt id="111">3.18339e-12</wgt>
  <wgt id="112">3.22001e-12</wgt>
  <wgt id="113">4.54023e-12</wgt>
  <wgt id="114">4.25262e-12</wgt>
  <wgt id="115">4.17261e-12</wgt>
  <wgt id="116">5.71641e-12</wgt>
  <wgt id="117">3.49667e-12</wgt>
  <wgt id="118">3.50932e-12</wgt>
  <wgt id="119">3.48944e-12</wgt>
  <wgt id="120">3.49678e-12</wgt>
  <wgt id="121">3.49658e-12</wgt>
  <wgt id="122">3.4911e-12</wgt>
  <wgt id="123">3.50439e-12</wgt>
  <wgt id="124">3.49197e-12</wgt>
  <wgt id="125">3.49972e-12</wgt>
  <wgt id="126">3.5016e-12</wgt>
  <wgt id="127">3.49339e-12</wgt>
  <wgt id="128">3.50733e-12</wgt>
  <wgt id="129">3.48606e-12</wgt>
  <wgt id="130">3.5139e-12</wgt>
  <wgt id="131">3.4788e-12</wgt>
  <wgt id="132">3.40083e-12</wgt>
  <wgt id="133">3.61071e-12</wgt>
  <wgt id="134">3.45948e-12</wgt>
  <wgt id="135">3.52584e-12</wgt>
  <wgt id="136">3.54929e-12</wgt>
  <wgt id="137">3.43344e-12</wgt>
  <wgt id="138">3.65296e-12</wgt>
  <wgt id="139">3.34814e-12</wgt>
  <wgt id="140">3.47952e-12</wgt>
  <wgt id="141">3.50964e-12</wgt>
  <wgt id="142">3.49586e-12</wgt>
  <wgt id="143">3.50713e-12</wgt>
  <wgt id="144">3.35644e-12</wgt>
  <wgt id="145">3.63242e-12</wgt>
  <wgt id="146">3.54148e-12</wgt>
  <wgt id="147">3.46003e-12</wgt>
  <wgt id="148">3.50926e-12</wgt>
  <wgt id="149">3.49577e-12</wgt>
  <wgt id="150">3.52594e-12</wgt>
  <wgt id="151">3.48293e-12</wgt>
  <wgt id="152">3.49761e-12</wgt>
  <wgt id="153">3.49633e-12</wgt>
  <wgt id="154">3.50616e-12</wgt>
  <wgt id="155">3.47906e-12</wgt>
  <wgt id="156">3.61021e-12</wgt>
  <wgt id="157">3.39206e-12</wgt>
  <wgt id="158">4.19188e-12</wgt>
  <wgt id="159">4.20978e-12</wgt>
  <wgt id="160">4.17751e-12</wgt>
  <wgt id="161">4.1815e-12</wgt>
  <wgt id="162">4.20354e-12</wgt>
  <wgt id="163">4.18726e-12</wgt>
  <wgt id="164">4.19875e-12</wgt>
  <wgt id="165">4.19348e-12</wgt>
  <wgt id="166">4.19072e-12</wgt>
  <wgt id="167">4.18894e-12</wgt>
  <wgt id="168">4.19602e-12</wgt>
  <wgt id="169">4.17458e-12</wgt>
  <wgt id="170">4.20266e-12</wgt>
  <wgt id="171">4.18889e-12</wgt>
  <wgt id="172">4.19617e-12</wgt>
  <wgt id="173">4.18478e-12</wgt>
  <wgt id="174">4.1944e-12</wgt>
  <wgt id="175">4.07137e-12</wgt>
  <wgt id="176">4.34979e-12</wgt>
  <wgt id="177">4.2112e-12</wgt>
  <wgt id="178">4.17435e-12</wgt>
  <wgt id="179">4.40111e-12</wgt>
  <wgt id="180">3.86885e-12</wgt>
  <wgt id="181">4.0542e-12</wgt>
  <wgt id="182">4.28372e-12</wgt>
  <wgt id="183">4.10833e-12</wgt>
  <wgt id="184">4.23343e-12</wgt>
  <wgt id="185">4.14615e-12</wgt>
  <wgt id="186">4.24697e-12</wgt>
  <wgt id="187">4.14525e-12</wgt>
  <wgt id="188">4.27427e-12</wgt>
  <wgt id="189">4.15967e-12</wgt>
  <wgt id="190">4.20504e-12</wgt>
  <wgt id="191">4.20666e-12</wgt>
  <wgt id="192">4.18318e-12</wgt>
  <wgt id="193">4.26097e-12</wgt>
  <wgt id="194">4.15715e-12</wgt>
  <wgt id="195">4.04635e-12</wgt>
  <wgt id="196">4.43127e-12</wgt>
  <wgt id="197">4.21413e-12</wgt>
  <wgt id="198">4.18654e-12</wgt>
  <wgt id="199">4.19188e-12</wgt>
  <wgt id="200">4.23218e-12</wgt>
  <wgt id="201">4.21845e-12</wgt>
  <wgt id="202">4.20513e-12</wgt>
  <wgt id="203">4.18607e-12</wgt>
  <wgt id="204">4.17645e-12</wgt>
  <wgt id="205">4.16845e-12</wgt>
  <wgt id="206">4.10221e-12</wgt>
  <wgt id="207">4.12658e-12</wgt>
  <wgt id="208">4.07791e-12</wgt>
  <wgt id="209">4.11407e-12</wgt>
  <wgt id="210">4.09351e-12</wgt>
  <wgt id="211">4.10086e-12</wgt>
  <wgt id="212">4.10322e-12</wgt>
  <wgt id="213">4.10177e-12</wgt>
  <wgt id="214">4.10267e-12</wgt>
  <wgt id="215">4.10514e-12</wgt>
  <wgt id="216">4.10012e-12</wgt>
  <wgt id="217">4.11149e-12</wgt>
  <wgt id="218">4.09486e-12</wgt>
  <wgt id="219">4.09672e-12</wgt>
  <wgt id="220">4.1055e-12</wgt>
  <wgt id="221">4.10353e-12</wgt>
  <wgt id="222">4.09797e-12</wgt>
  <wgt id="223">3.87126e-12</wgt>
  <wgt id="224">4.31375e-12</wgt>
  <wgt id="225">4.05184e-12</wgt>
  <wgt id="226">4.16613e-12</wgt>
  <wgt id="227">4.0631e-12</wgt>
  <wgt id="228">4.11935e-12</wgt>
  <wgt id="229">4.04379e-12</wgt>
  <wgt id="230">4.13111e-12</wgt>
  <wgt id="231">4.23949e-12</wgt>
  <wgt id="232">3.98981e-12</wgt>
  <wgt id="233">4.07663e-12</wgt>
  <wgt id="234">4.14477e-12</wgt>
  <wgt id="235">3.94025e-12</wgt>
  <wgt id="236">4.23518e-12</wgt>
  <wgt id="237">4.00726e-12</wgt>
  <wgt id="238">4.13376e-12</wgt>
  <wgt id="239">4.06373e-12</wgt>
  <wgt id="240">4.17119e-12</wgt>
  <wgt id="241">4.05294e-12</wgt>
  <wgt id="242">4.16031e-12</wgt>
  <wgt id="243">4.17079e-12</wgt>
  <wgt id="244">4.10398e-12</wgt>
  <wgt id="245">4.10048e-12</wgt>
  <wgt id="246">4.12522e-12</wgt>
  <wgt id="247">4.10221e-12</wgt>
  <wgt id="248">4.14553e-12</wgt>
  <wgt id="249">4.13065e-12</wgt>
  <wgt id="250">4.11501e-12</wgt>
  <wgt id="251">4.09389e-12</wgt>
  <wgt id="252">4.08306e-12</wgt>
  <wgt id="253">4.0757e-12</wgt>
  <wgt id="254">3.95796e-12</wgt>
  <wgt id="255">3.96137e-12</wgt>
  <wgt id="256">3.95413e-12</wgt>
  <wgt id="257">3.96111e-12</wgt>
  <wgt id="258">3.95567e-12</wgt>
  <wgt id="259">3.98445e-12</wgt>
  <wgt id="260">3.93243e-12</wgt>
  <wgt id="261">3.96392e-12</wgt>
  <wgt id="262">3.95104e-12</wgt>
  <wgt id="263">3.95516e-12</wgt>
  <wgt id="264">3.96115e-12</wgt>
  <wgt id="265">3.9533e-12</wgt>
  <wgt id="266">3.96733e-12</wgt>
  <wgt id="267">3.95935e-12</wgt>
  <wgt id="268">3.95611e-12</wgt>
  <wgt id="269">3.97001e-12</wgt>
  <wgt id="270">3.94977e-12</wgt>
  <wgt id="271">3.94739e-12</wgt>
  <wgt id="272">3.9698e-12</wgt>
  <wgt id="273">3.9475e-12</wgt>
  <wgt id="274">3.96588e-12</wgt>
  <wgt id="275">3.93457e-12</wgt>
  <wgt id="276">3.98232e-12</wgt>
  <wgt id="277">3.93502e-12</wgt>
  <wgt id="278">3.97897e-12</wgt>
  <wgt id="279">3.88515e-12</wgt>
  <wgt id="280">4.04961e-12</wgt>
  <wgt id="281">3.93959e-12</wgt>
  <wgt id="282">3.96304e-12</wgt>
  <wgt id="283">3.83045e-12</wgt>
  <wgt id="284">4.11702e-12</wgt>
  <wgt id="285">3.74709e-12</wgt>
  <wgt id="286">4.13613e-12</wgt>
  <wgt id="287">3.97191e-12</wgt>
  <wgt id="288">3.94011e-12</wgt>
  <wgt id="289">3.98969e-12</wgt>
  <wgt id="290">3.88794e-12</wgt>
  <wgt id="291">3.94306e-12</wgt>
  <wgt id="292">3.95838e-12</wgt>
  <wgt id="293">3.9236e-12</wgt>
  <wgt id="294">3.99221e-12</wgt>
  <wgt id="295">3.8745e-12</wgt>
  <wgt id="296">4.06021e-12</wgt>
  <wgt id="297">3.94908e-12</wgt>
  <wgt id="298">3.97744e-12</wgt>
  <wgt id="299">3.94461e-12</wgt>
  <wgt id="300">3.99341e-12</wgt>
  <wgt id="301">3.8803e-12</wgt>
  <wgt id="302">4.13804e-12</wgt>
  <wgt id="303">3.91546e-12</wgt>
  <wgt id="304">3.9818e-12</wgt>
  <wgt id="305">3.92565e-12</wgt>
  <wgt id="306">3.92935e-12</wgt>
  <wgt id="307">3.9218e-12</wgt>
  <wgt id="308">3.92912e-12</wgt>
  <wgt id="309">3.92348e-12</wgt>
  <wgt id="310">3.95279e-12</wgt>
  <wgt id="311">3.90086e-12</wgt>
  <wgt id="312">3.93095e-12</wgt>
  <wgt id="313">3.92018e-12</wgt>
  <wgt id="314">3.92284e-12</wgt>
  <wgt id="315">3.92849e-12</wgt>
  <wgt id="316">3.92108e-12</wgt>
  <wgt id="317">3.9359e-12</wgt>
  <wgt id="318">3.92868e-12</wgt>
  <wgt id="319">3.92061e-12</wgt>
  <wgt id="320">3.93861e-12</wgt>
  <wgt id="321">3.91859e-12</wgt>
  <wgt id="322">3.91407e-12</wgt>
  <wgt id="323">3.93935e-12</wgt>
  <wgt id="324">3.91803e-12</wgt>
  <wgt id="325">3.93236e-12</wgt>
  <wgt id="326">3.90641e-12</wgt>
  <wgt id="327">3.9505e-12</wgt>
  <wgt id="328">3.90518e-12</wgt>
  <wgt id="329">3.93712e-12</wgt>
  <wgt id="330">4.03699e-12</wgt>
  <wgt id="331">3.82006e-12</wgt>
  <wgt id="332">3.91055e-12</wgt>
  <wgt id="333">3.92896e-12</wgt>
  <wgt id="334">3.82856e-12</wgt>
  <wgt id="335">4.04764e-12</wgt>
  <wgt id="336">3.7761e-12</wgt>
  <wgt id="337">4.11101e-12</wgt>
  <wgt id="338">3.97403e-12</wgt>
  <wgt id="339">3.88129e-12</wgt>
  <wgt id="340">3.95436e-12</wgt>
  <wgt id="341">3.85518e-12</wgt>
  <wgt id="342">3.91519e-12</wgt>
  <wgt id="343">3.9183e-12</wgt>
  <wgt id="344">3.89558e-12</wgt>
  <wgt id="345">3.96082e-12</wgt>
  <wgt id="346">3.84057e-12</wgt>
  <wgt id="347">4.02345e-12</wgt>
  <wgt id="348">3.91774e-12</wgt>
  <wgt id="349">3.94312e-12</wgt>
  <wgt id="350">3.90917e-12</wgt>
  <wgt id="351">3.9677e-12</wgt>
  <wgt id="352">3.84682e-12</wgt>
  <wgt id="353">4.10174e-12</wgt>
  <wgt id="354">3.86535e-12</wgt>
  <wgt id="355">3.96154e-12</wgt>
  <wgt id="356">3.95796e-12</wgt>
  <wgt id="357">3.92955e-12</wgt>
  <wgt id="358">3.92565e-12</wgt>
  <wgt id="359">3.9583e-12</wgt>
  <wgt id="360">4.02386e-12</wgt>
  <wgt id="361">3.97811e-12</wgt>
  <wgt id="362">4.05645e-12</wgt>
  <wgt id="363">4.04625e-12</wgt>
  <wgt id="364">4.02675e-12</wgt>
  <wgt id="365">4.01158e-12</wgt>
  <wgt id="366">3.99617e-12</wgt>
  <wgt id="367">3.96647e-12</wgt>
  <wgt id="368">3.94768e-12</wgt>
  <wgt id="369">3.92739e-12</wgt>
  <wgt id="370">3.97811e-12</wgt>
  <wgt id="371">3.99451e-12</wgt>
  <wgt id="372">3.98518e-12</wgt>
  <wgt id="373">3.97219e-12</wgt>
  <wgt id="374">3.97686e-12</wgt>
  <wgt id="375">4.52715e-12</wgt>
  <wgt id="376">4.52737e-12</wgt>
  <wgt id="377">4.52677e-12</wgt>
  <wgt id="378">4.54435e-12</wgt>
  <wgt id="379">4.51008e-12</wgt>
  <wgt id="380">4.54013e-12</wgt>
  <wgt id="381">4.52195e-12</wgt>
  <wgt id="382">4.54788e-12</wgt>
  <wgt id="383">4.50663e-12</wgt>
  <wgt id="384">4.53003e-12</wgt>
  <wgt id="385">4.52437e-12</wgt>
  <wgt id="386">4.54158e-12</wgt>
  <wgt id="387">4.52095e-12</wgt>
  <wgt id="388">4.52327e-12</wgt>
  <wgt id="389">4.53187e-12</wgt>
  <wgt id="390">4.53739e-12</wgt>
  <wgt id="391">4.51634e-12</wgt>
  <wgt id="392">4.48752e-12</wgt>
  <wgt id="393">4.54952e-12</wgt>
  <wgt id="394">4.53041e-12</wgt>
  <wgt id="395">4.52248e-12</wgt>
  <wgt id="396">4.53479e-12</wgt>
  <wgt id="397">4.52173e-12</wgt>
  <wgt id="398">4.51921e-12</wgt>
  <wgt id="399">4.53475e-12</wgt>
  <wgt id="400">4.52036e-12</wgt>
  <wgt id="401">4.54192e-12</wgt>
  <wgt id="402">4.48584e-12</wgt>
  <wgt id="403">4.55296e-12</wgt>
  <wgt id="404">4.65645e-12</wgt>
  <wgt id="405">4.21957e-12</wgt>
  <wgt id="406">4.43365e-12</wgt>
  <wgt id="407">4.7346e-12</wgt>
  <wgt id="408">4.57578e-12</wgt>
  <wgt id="409">4.43719e-12</wgt>
  <wgt id="410">4.37586e-12</wgt>
  <wgt id="411">4.59984e-12</wgt>
  <wgt id="412">4.51659e-12</wgt>
  <wgt id="413">4.5424e-12</wgt>
  <wgt id="414">4.46679e-12</wgt>
  <wgt id="415">4.574e-12</wgt>
  <wgt id="416">4.67988e-12</wgt>
  <wgt id="417">4.31735e-12</wgt>
  <wgt id="418">4.53632e-12</wgt>
  <wgt id="419">4.47786e-12</wgt>
  <wgt id="420">4.63447e-12</wgt>
  <wgt id="421">4.45583e-12</wgt>
  <wgt id="422">4.50074e-12</wgt>
  <wgt id="423">4.5395e-12</wgt>
  <wgt id="424">4.65961e-12</wgt>
  <wgt id="425">4.43716e-12</wgt>
  <wgt id="426">4.52715e-12</wgt>
  <wgt id="427">4.43932e-12</wgt>
  <wgt id="428">4.7289e-12</wgt>
  <wgt id="429">4.58775e-12</wgt>
  <wgt id="430">4.73748e-12</wgt>
  <wgt id="431">4.7071e-12</wgt>
  <wgt id="432">4.67951e-12</wgt>
  <wgt id="433">4.65236e-12</wgt>
  <wgt id="434">4.61774e-12</wgt>
  <wgt id="435">4.5502e-12</wgt>
  <wgt id="436">4.51609e-12</wgt>
  <wgt id="437">4.4828e-12</wgt>
  <wgt id="438">4.58775e-12</wgt>
  <wgt id="439">4.60171e-12</wgt>
  <wgt id="440">4.59293e-12</wgt>
  <wgt id="441">4.58406e-12</wgt>
  <wgt id="442">4.5812e-12</wgt>
  <wgt id="443">4.1443e-12</wgt>
  <wgt id="444">4.18785e-12</wgt>
  <wgt id="445">4.18702e-12</wgt>
  <wgt id="446">4.11326e-12</wgt>
  <wgt id="447">4.14559e-12</wgt>
  <wgt id="448">4.04356e-12</wgt>
  <wgt id="449">4.23083e-12</wgt>
  <wgt id="450">4.19767e-12</wgt>
  <wgt id="451">4.1325e-12</wgt>
  <wgt id="452">4.23559e-12</wgt>
  <wgt id="453">4.19673e-12</wgt>
  <wgt id="454">3.92977e-12</wgt>
  <wgt id="455">4.17868e-12</wgt>
  <wgt id="456">4.21895e-12</wgt>
  <wgt id="457">4.15774e-12</wgt>
  <wgt id="458">4.21955e-12</wgt>
  <wgt id="459">4.18262e-12</wgt>
  <wgt id="460">4.22844e-12</wgt>
  <wgt id="461">4.04392e-12</wgt>
  <wgt id="462">4.1151e-12</wgt>
  <wgt id="463">4.07724e-12</wgt>
  <wgt id="464">4.12394e-12</wgt>
  <wgt id="465">4.18928e-12</wgt>
  <wgt id="466">4.04495e-12</wgt>
  <wgt id="467">4.11141e-12</wgt>
  <wgt id="468">4.1408e-12</wgt>
  <wgt id="469">4.13405e-12</wgt>
  <wgt id="470">4.07917e-12</wgt>
  <wgt id="471">4.09202e-12</wgt>
  <wgt id="472">4.17314e-12</wgt>
  <wgt id="473">4.00825e-12</wgt>
  <wgt id="474">3.0282e-12</wgt>
  <wgt id="475">3.02531e-12</wgt>
  <wgt id="476">3.00823e-12</wgt>
  <wgt id="477">3.06603e-12</wgt>
  <wgt id="478">3.07003e-12</wgt>
  <wgt id="479">2.8794e-12</wgt>
  <wgt id="480">3.19332e-12</wgt>
  <wgt id="481">3.05182e-12</wgt>
  <wgt id="482">3.03721e-12</wgt>
  <wgt id="483">3.0396e-12</wgt>
  <wgt id="484">3.15291e-12</wgt>
  <wgt id="485">2.77729e-12</wgt>
  <wgt id="486">3.18971e-12</wgt>
  <wgt id="487">2.94677e-12</wgt>
  <wgt id="488">3.06068e-12</wgt>
  <wgt id="489">2.72762e-12</wgt>
  <wgt id="490">2.97656e-12</wgt>
  <wgt id="491">2.99164e-12</wgt>
  <wgt id="492">2.9828e-12</wgt>
  <wgt id="493">2.79842e-12</wgt>
  <wgt id="494">2.8132e-12</wgt>
  <wgt id="495">3.03813e-12</wgt>
  <wgt id="496">2.87253e-12</wgt>
  <wgt id="497">2.82924e-12</wgt>
  <wgt id="498">3.11849e-12</wgt>
  <wgt id="499">3.05421e-12</wgt>
  <wgt id="500">2.98625e-12</wgt>
  <wgt id="501">3.14145e-12</wgt>
  <wgt id="502">3.1513e-12</wgt>
  <wgt id="503">2.97833e-12</wgt>
  <wgt id="504">3.13289e-12</wgt>
  <wgt id="505">3.13964e-12</wgt>
  <wgt id="506">2.83013e-12</wgt>
  <wgt id="507">2.97925e-12</wgt>
  <wgt id="508">3.19431e-12</wgt>
  <wgt id="509">2.89909e-12</wgt>
  <wgt id="510">3.05275e-12</wgt>
  <wgt id="511">2.8683e-12</wgt>
  <wgt id="512">3.23499e-12</wgt>
  <wgt id="513">3.15808e-12</wgt>
  <wgt id="514">3.19754e-12</wgt>
  <wgt id="515">3.11068e-12</wgt>
  <wgt id="516">3.34909e-12</wgt>
  <wgt id="517">3.10116e-12</wgt>
  <wgt id="518">3.14185e-12</wgt>
  <wgt id="519">2.90645e-12</wgt>
  <wgt id="520">3.07822e-12</wgt>
  <wgt id="521">2.96097e-12</wgt>
  <wgt id="522">3.15057e-12</wgt>
  <wgt id="523">2.87633e-12</wgt>
  <wgt id="524">3.0817e-12</wgt>
  <wgt id="525">2.97192e-12</wgt>
  <wgt id="526">3.18195e-12</wgt>
  <wgt id="527">2.9875e-12</wgt>
  <wgt id="528">3.02044e-12</wgt>
  <wgt id="529">2.89394e-12</wgt>
  <wgt id="530">3.18466e-12</wgt>
  <wgt id="531">2.90306e-12</wgt>
  <wgt id="532">3.28126e-12</wgt>
  <wgt id="533">3.01594e-12</wgt>
  <wgt id="534">2.91204e-12</wgt>
  <wgt id="535">3.06819e-12</wgt>
  <wgt id="536">3.12769e-12</wgt>
  <wgt id="537">2.87836e-12</wgt>
  <wgt id="538">3.00564e-12</wgt>
  <wgt id="539">2.95891e-12</wgt>
  <wgt id="540">3.20221e-12</wgt>
  <wgt id="541">3.01295e-12</wgt>
  <wgt id="542">2.96683e-12</wgt>
  <wgt id="543">2.92757e-12</wgt>
  <wgt id="544">3.05694e-12</wgt>
  <wgt id="545">2.86405e-12</wgt>
  <wgt id="546">2.7831e-12</wgt>
  <wgt id="547">2.9252e-12</wgt>
  <wgt id="548">2.92391e-12</wgt>
  <wgt id="549">2.97203e-12</wgt>
  <wgt id="550">2.93971e-12</wgt>
  <wgt id="551">3.04049e-12</wgt>
  <wgt id="552">2.785e-12</wgt>
  <wgt id="553">2.84298e-12</wgt>
  <wgt id="554">3.18171e-12</wgt>
  <wgt id="555">3.10033e-12</wgt>
  <wgt id="556">2.97656e-12</wgt>
  <wgt id="557">3.09601e-12</wgt>
  <wgt id="558">2.99883e-12</wgt>
  <wgt id="559">3.04386e-12</wgt>
  <wgt id="560">3.35039e-12</wgt>
  <wgt id="561">3.10586e-12</wgt>
  <wgt id="562">3.14886e-12</wgt>
  <wgt id="563">3.3417e-12</wgt>
  <wgt id="564">3.21392e-12</wgt>
  <wgt id="565">3.13371e-12</wgt>
  <wgt id="566">2.93766e-12</wgt>
  <wgt id="567">3.02873e-12</wgt>
  <wgt id="568">2.92007e-12</wgt>
  <wgt id="569">3.06737e-12</wgt>
  <wgt id="570">3.01756e-12</wgt>
  <wgt id="571">3.34765e-12</wgt>
  <wgt id="572">2.93004e-12</wgt>
  <wgt id="573">2.944e-12</wgt>
  <wgt id="574">2.96028e-12</wgt>
  <wgt id="575">3.341e-12</wgt>
  <wgt id="576">3.64477e-12</wgt>
  <wgt id="577">3.48877e-12</wgt>
  <wgt id="578">3.39286e-12</wgt>
  <wgt id="579">3.47779e-12</wgt>
  <wgt id="580">3.56515e-12</wgt>
  <wgt id="581">3.69227e-12</wgt>
  <wgt id="582">3.58181e-12</wgt>
  <wgt id="583">3.41084e-12</wgt>
  <wgt id="584">3.30224e-12</wgt>
  <wgt id="585">3.0927e-12</wgt>
  <wgt id="586">3.14048e-12</wgt>
  <wgt id="587">3.41009e-12</wgt>
  <wgt id="588">3.65741e-12</wgt>
  <wgt id="589">3.65572e-12</wgt>
  <wgt id="590">3.31194e-12</wgt>
  <wgt id="591">3.4363e-12</wgt>
  <wgt id="592">3.10571e-12</wgt>
  <wgt id="593">3.23569e-12</wgt>
  <wgt id="594">3.26547e-12</wgt>
  <wgt id="595">3.51496e-12</wgt>
  <wgt id="596">3.94315e-12</wgt>
  <wgt id="597">3.39446e-12</wgt>
  <wgt id="598">3.39117e-12</wgt>
  <wgt id="599">3.57021e-12</wgt>
  <wgt id="600">3.57625e-12</wgt>
  <wgt id="601">3.20231e-12</wgt>
  <wgt id="602">3.22937e-12</wgt>
  <wgt id="603">3.1219e-12</wgt>
  <wgt id="604">3.42974e-12</wgt>
  <wgt id="605">3.36977e-12</wgt>
  <wgt id="606">3.4101e-12</wgt>
  <wgt id="607">3.4987e-12</wgt>
  <wgt id="608">3.47353e-12</wgt>
  <wgt id="609">3.30759e-12</wgt>
  <wgt id="610">3.18709e-12</wgt>
  <wgt id="611">3.17285e-12</wgt>
  <wgt id="612">3.43211e-12</wgt>
  <wgt id="613">3.18589e-12</wgt>
  <wgt id="614">3.31051e-12</wgt>
  <wgt id="615">3.40473e-12</wgt>
  <wgt id="616">3.19781e-12</wgt>
  <wgt id="617">3.47567e-12</wgt>
  <wgt id="618">3.68788e-12</wgt>
  <wgt id="619">3.27382e-12</wgt>
  <wgt id="620">3.45198e-12</wgt>
  <wgt id="621">3.29627e-12</wgt>
  <wgt id="622">3.41009e-12</wgt>
  <wgt id="623">3.35301e-12</wgt>
  <wgt id="624">3.3633e-12</wgt>
  <wgt id="625">3.18187e-12</wgt>
  <wgt id="626">2.96054e-12</wgt>
  <wgt id="627">3.01706e-12</wgt>
  <wgt id="628">3.31825e-12</wgt>
  <wgt id="629">3.42002e-12</wgt>
  <wgt id="630">3.22107e-12</wgt>
  <wgt id="631">3.43136e-12</wgt>
  <wgt id="632">3.04569e-12</wgt>
  <wgt id="633">3.32377e-12</wgt>
  <wgt id="634">3.18533e-12</wgt>
  <wgt id="635">3.07212e-12</wgt>
  <wgt id="636">3.3812e-12</wgt>
  <wgt id="637">3.3087e-12</wgt>
  <wgt id="638">3.18405e-12</wgt>
  <wgt id="639">3.19228e-12</wgt>
  <wgt id="640">3.25663e-12</wgt>
  <wgt id="641">3.51018e-12</wgt>
  <wgt id="642">3.01017e-12</wgt>
  <wgt id="643">3.24908e-12</wgt>
  <wgt id="644">2.98803e-12</wgt>
  <wgt id="645">3.33391e-12</wgt>
  <wgt id="646">3.04564e-12</wgt>
  <wgt id="647">3.38905e-12</wgt>
  <wgt id="648">3.50716e-12</wgt>
  <wgt id="649">3.35315e-12</wgt>
  <wgt id="650">3.18918e-12</wgt>
  <wgt id="651">3.58656e-12</wgt>
  <wgt id="652">3.19059e-12</wgt>
  <wgt id="653">3.19904e-12</wgt>
  <wgt id="654">3.37588e-12</wgt>
  <wgt id="655">3.2068e-12</wgt>
  <wgt id="656">3.35737e-12</wgt>
  <wgt id="657">3.68057e-12</wgt>
  <wgt id="658">3.32833e-12</wgt>
  <wgt id="659">3.19754e-12</wgt>
  <wgt id="660">3.22816e-12</wgt>
  <wgt id="661">3.25307e-12</wgt>
  <wgt id="662">3.28939e-12</wgt>
  <wgt id="663">3.40814e-12</wgt>
  <wgt id="664">3.39192e-12</wgt>
  <wgt id="665">3.3019e-12</wgt>
  <wgt id="666">3.2581e-12</wgt>
  <wgt id="667">3.52761e-12</wgt>
  <wgt id="668">3.29176e-12</wgt>
  <wgt id="669">3.32991e-12</wgt>
  <wgt id="670">3.51227e-12</wgt>
  <wgt id="671">3.38628e-12</wgt>
  <wgt id="672">3.26085e-12</wgt>
  <wgt id="673">3.56278e-12</wgt>
  <wgt id="674">3.23271e-12</wgt>
  <wgt id="675">3.22066e-12</wgt>
  <wgt id="676">4.32829e-12</wgt>
  <wgt id="677">4.37675e-12</wgt>
  <wgt id="678">4.75217e-12</wgt>
  <wgt id="679">4.45281e-12</wgt>
  <wgt id="680">4.36923e-12</wgt>
  <wgt id="681">4.2216e-12</wgt>
  <wgt id="682">4.55855e-12</wgt>
  <wgt id="683">3.97122e-12</wgt>
  <wgt id="684">4.56302e-12</wgt>
  <wgt id="685">4.32953e-12</wgt>
  <wgt id="686">4.40993e-12</wgt>
  <wgt id="687">4.44995e-12</wgt>
  <wgt id="688">4.19704e-12</wgt>
  <wgt id="689">4.52528e-12</wgt>
  <wgt id="690">4.43274e-12</wgt>
  <wgt id="691">4.44152e-12</wgt>
  <wgt id="692">4.21935e-12</wgt>
  <wgt id="693">5.74962e-12</wgt>
  <wgt id="694">4.77448e-12</wgt>
  <wgt id="695">4.05105e-12</wgt>
  <wgt id="696">4.15086e-12</wgt>
  <wgt id="697">3.90583e-12</wgt>
  <wgt id="698">3.55363e-12</wgt>
  <wgt id="699">3.65615e-12</wgt>
  <wgt id="700">3.8254e-12</wgt>
  <wgt id="701">4.32073e-12</wgt>
  <wgt id="702">4.16612e-12</wgt>
  <wgt id="703">5.38144e-12</wgt>
  <wgt id="704">4.87939e-12</wgt>
  <wgt id="705">4.87628e-12</wgt>
  <wgt id="706">4.04511e-12</wgt>
  <wgt id="707">4.04611e-12</wgt>
  <wgt id="708">4.12067e-12</wgt>
  <wgt id="709">4.17954e-12</wgt>
  <wgt id="710">3.62611e-12</wgt>
  <wgt id="711">4.61663e-12</wgt>
  <wgt id="712">4.04847e-12</wgt>
  <wgt id="713">4.6702e-12</wgt>
  <wgt id="714">3.87762e-12</wgt>
  <wgt id="715">4.1284e-12</wgt>
  <wgt id="716">4.15675e-12</wgt>
  <wgt id="717">3.75606e-12</wgt>
  <wgt id="718">4.43867e-12</wgt>
  <wgt id="719">3.94546e-12</wgt>
  <wgt id="720">4.43878e-12</wgt>
  <wgt id="721">3.68141e-12</wgt>
  <wgt id="722">3.39732e-12</wgt>
  <wgt id="723">4.88009e-12</wgt>
  <wgt id="724">4.70436e-12</wgt>
  <wgt id="725">4.52253e-12</wgt>
  <wgt id="726">4.29814e-12</wgt>
  <wgt id="727">4.34759e-12</wgt>
  <wgt id="728">4.23755e-12</wgt>
  <wgt id="729">3.96593e-12</wgt>
  <wgt id="730">4.80494e-12</wgt>
  <wgt id="731">4.25279e-12</wgt>
  <wgt id="732">5.04802e-12</wgt>
  <wgt id="733">4.01563e-12</wgt>
  <wgt id="734">4.47495e-12</wgt>
  <wgt id="735">4.33862e-12</wgt>
  <wgt id="736">4.00118e-12</wgt>
  <wgt id="737">4.0148e-12</wgt>
  <wgt id="738">4.11603e-12</wgt>
  <wgt id="739">4.61084e-12</wgt>
  <wgt id="740">5.13211e-12</wgt>
  <wgt id="741">4.52842e-12</wgt>
  <wgt id="742">4.14109e-12</wgt>
  <wgt id="743">3.94665e-12</wgt>
  <wgt id="744">4.23987e-12</wgt>
  <wgt id="745">4.73568e-12</wgt>
  <wgt id="746">4.87087e-12</wgt>
  <wgt id="747">3.58051e-12</wgt>
  <wgt id="748">4.17557e-12</wgt>
  <wgt id="749">4.49474e-12</wgt>
  <wgt id="750">4.69495e-12</wgt>
  <wgt id="751">4.35562e-12</wgt>
  <wgt id="752">3.88676e-12</wgt>
  <wgt id="753">3.86763e-12</wgt>
  <wgt id="754">4.53513e-12</wgt>
  <wgt id="755">4.22269e-12</wgt>
  <wgt id="756">4.1919e-12</wgt>
  <wgt id="757">3.72655e-12</wgt>
  <wgt id="758">4.19946e-12</wgt>
  <wgt id="759">4.77431e-12</wgt>
  <wgt id="760">4.13497e-12</wgt>
  <wgt id="761">4.80698e-12</wgt>
  <wgt id="762">4.82858e-12</wgt>
  <wgt id="763">4.4365e-12</wgt>
  <wgt id="764">4.63336e-12</wgt>
  <wgt id="765">4.40173e-12</wgt>
  <wgt id="766">4.38795e-12</wgt>
  <wgt id="767">4.41732e-12</wgt>
  <wgt id="768">3.92498e-12</wgt>
  <wgt id="769">4.55744e-12</wgt>
  <wgt id="770">4.05751e-12</wgt>
  <wgt id="771">5.32305e-12</wgt>
  <wgt id="772">4.21601e-12</wgt>
  <wgt id="773">4.34754e-12</wgt>
  <wgt id="774">3.41628e-12</wgt>
  <wgt id="775">4.54208e-12</wgt>
  <wgt id="776">4.99974e-12</wgt>
  <wgt id="777">3.81717e-12</wgt>
  <wgt id="778">2.8209e-12</wgt>
  <wgt id="779">1.70737e-12</wgt>
  <wgt id="780">9.8639e-13</wgt>
  <wgt id="781">3.22201e-12</wgt>
  <wgt id="782">3.4555e-12</wgt>
  <wgt id="783">1.50922e-12</wgt>
  <wgt id="784">1.94717e-12</wgt>
  <wgt id="785">4.24773e-12</wgt>
  <wgt id="786">1.50368e-12</wgt>
  <wgt id="787">3.69474e-12</wgt>
  <wgt id="788">4.59279e-13</wgt>
  <wgt id="789">1.94348e-12</wgt>
  <wgt id="790">1.53348e-12</wgt>
  <wgt id="791">3.30211e-12</wgt>
  <wgt id="792">3.85469e-12</wgt>
  <wgt id="793">2.6395e-12</wgt>
  <wgt id="794">1.37809e-12</wgt>
  <wgt id="795">3.95187e-12</wgt>
  <wgt id="796">4.05988e-12</wgt>
  <wgt id="797">3.69487e-12</wgt>
  <wgt id="798">2.11375e-12</wgt>
  <wgt id="799">3.62104e-12</wgt>
  <wgt id="800">2.14387e-12</wgt>
  <wgt id="801">2.76046e-12</wgt>
  <wgt id="802">1.32596e-12</wgt>
  <wgt id="803">4.57905e-12</wgt>
  <wgt id="804">3.98343e-12</wgt>
  <wgt id="805">3.8427e-12</wgt>
  <wgt id="806">3.13026e-12</wgt>
  <wgt id="807">2.78036e-12</wgt>
  <wgt id="808">2.70747e-12</wgt>
  <wgt id="809">2.53219e-12</wgt>
  <wgt id="810">3.44574e-12</wgt>
  <wgt id="811">2.96602e-12</wgt>
  <wgt id="812">1.57085e-12</wgt>
  <wgt id="813">1.69513e-12</wgt>
  <wgt id="814">1.9169e-12</wgt>
  <wgt id="815">1.55675e-12</wgt>
  <wgt id="816">1.77376e-12</wgt>
  <wgt id="817">2.86388e-12</wgt>
  <wgt id="818">3.85036e-12</wgt>
  <wgt id="819">1.67486e-12</wgt>
  <wgt id="820">2.64154e-12</wgt>
  <wgt id="821">3.4672e-12</wgt>
  <wgt id="822">2.25967e-12</wgt>
  <wgt id="823">3.68063e-12</wgt>
  <wgt id="824">4.3172e-12</wgt>
  <wgt id="825">1.23387e-12</wgt>
  <wgt id="826">3.63172e-12</wgt>
  <wgt id="827">1.14272e-12</wgt>
  <wgt id="828">3.6825e-12</wgt>
  <wgt id="829">2.91859e-12</wgt>
  <wgt id="830">1.17842e-12</wgt>
  <wgt id="831">3.39359e-12</wgt>
  <wgt id="832">5.1976e-12</wgt>
  <wgt id="833">2.21291e-12</wgt>
  <wgt id="834">5.10088e-12</wgt>
  <wgt id="835">1.9147e-12</wgt>
  <wgt id="836">2.26406e-12</wgt>
  <wgt id="837">3.3785e-12</wgt>
  <wgt id="838">2.20673e-12</wgt>
  <wgt id="839">3.39303e-12</wgt>
  <wgt id="840">2.38116e-12</wgt>
  <wgt id="841">4.07334e-12</wgt>
  <wgt id="842">2.85424e-12</wgt>
  <wgt id="843">3.0796e-12</wgt>
  <wgt id="844">3.19375e-12</wgt>
  <wgt id="845">5.22336e-12</wgt>
  <wgt id="846">2.8153e-12</wgt>
  <wgt id="847">3.06908e-12</wgt>
  <wgt id="848">1.62407e-12</wgt>
  <wgt id="849">3.13373e-12</wgt>
  <wgt id="850">4.4789e-12</wgt>
  <wgt id="851">3.40935e-12</wgt>
  <wgt id="852">1.32926e-12</wgt>
  <wgt id="853">3.57697e-12</wgt>
  <wgt id="854">4.07141e-12</wgt>
  <wgt id="855">3.54286e-12</wgt>
  <wgt id="856">1.15902e-12</wgt>
  <wgt id="857">2.4164e-12</wgt>
  <wgt id="858">2.66877e-12</wgt>
  <wgt id="859">2.72851e-12</wgt>
  <wgt id="860">3.71891e-12</wgt>
  <wgt id="861">2.29546e-12</wgt>
  <wgt id="862">2.912e-12</wgt>
  <wgt id="863">3.33302e-12</wgt>
  <wgt id="864">2.92024e-12</wgt>
  <wgt id="865">4.70045e-12</wgt>
  <wgt id="866">5.22087e-12</wgt>
  <wgt id="867">2.87193e-12</wgt>
  <wgt id="868">2.97167e-12</wgt>
  <wgt id="869">1.50791e-12</wgt>
  <wgt id="870">1.86941e-12</wgt>
  <wgt id="871">1.91228e-12</wgt>
  <wgt id="872">4.20803e-12</wgt>
  <wgt id="873">2.20275e-12</wgt>
  <wgt id="874">3.18599e-12</wgt>
  <wgt id="875">2.12557e-12</wgt>
  <wgt id="876">4.00083e-12</wgt>
  <wgt id="877">3.26399e-12</wgt>
  <wgt id="878">2.2549e-12</wgt>
  <wgt id="879">4.32829e-12</wgt>
  <wgt id="880">4.37675e-12</wgt>
  <wgt id="881">4.75217e-12</wgt>
  <wgt id="882">4.45281e-12</wgt>
  <wgt id="883">4.36923e-12</wgt>
  <wgt id="884">4.2216e-12</wgt>
  <wgt id="885">4.55855e-12</wgt>
  <wgt id="886">3.97122e-12</wgt>
  <wgt id="887">4.56302e-12</wgt>
  <wgt id="888">4.32953e-12</wgt>
  <wgt id="889">4.40993e-12</wgt>
  <wgt id="890">4.44995e-12</wgt>
  <wgt id="891">4.19704e-12</wgt>
  <wgt id="892">4.52528e-12</wgt>
  <wgt id="893">4.43274e-12</wgt>
  <wgt id="894">4.44152e-12</wgt>
  <wgt id="895">4.21935e-12</wgt>
  <wgt id="896">5.74962e-12</wgt>
  <wgt id="897">4.77448e-12</wgt>
  <wgt id="898">4.05105e-12</wgt>
  <wgt id="899">4.15086e-12</wgt>
  <wgt id="900">3.90583e-12</wgt>
  <wgt id="901">3.55363e-12</wgt>
  <wgt id="902">3.65615e-12</wgt>
  <wgt id="903">3.8254e-12</wgt>
  <wgt id="904">4.32073e-12</wgt>
  <wgt id="905">4.16612e-12</wgt>
  <wgt id="906">5.38144e-12</wgt>
  <wgt id="907">4.87939e-12</wgt>
  <wgt id="908">4.87628e-12</wgt>
  <wgt id="909">4.04511e-12</wgt>
  <wgt id="910">4.04611e-12</wgt>
  <wgt id="911">4.12067e-12</wgt>
  <wgt id="912">4.17954e-12</wgt>
  <wgt id="913">3.62611e-12</wgt>
  <wgt id="914">4.61663e-12</wgt>
  <wgt id="915">4.04847e-12</wgt>
  <wgt id="916">4.6702e-12</wgt>
  <wgt id="917">3.87762e-12</wgt>
  <wgt id="918">4.1284e-12</wgt>
  <wgt id="919">4.15675e-12</wgt>
  <wgt id="920">3.75606e-12</wgt>
  <wgt id="921">4.43867e-12</wgt>
  <wgt id="922">3.94546e-12</wgt>
  <wgt id="923">4.43878e-12</wgt>
  <wgt id="924">3.68141e-12</wgt>
  <wgt id="925">3.39732e-12</wgt>
  <wgt id="926">4.88009e-12</wgt>
  <wgt id="927">4.70436e-12</wgt>
  <wgt id="928">4.52253e-12</wgt>
  <wgt id="929">4.29814e-12</wgt>
  <wgt id="930">4.34759e-12</wgt>
  <wgt id="931">4.23755e-12</wgt>
  <wgt id="932">3.96593e-12</wgt>
  <wgt id="933">4.80494e-12</wgt>
  <wgt id="934">4.25279e-12</wgt>
  <wgt id="935">5.04802e-12</wgt>
  <wgt id="936">4.01563e-12</wgt>
  <wgt id="937">4.47495e-12</wgt>
  <wgt id="938">4.33862e-12</wgt>
  <wgt id="939">4.00118e-12</wgt>
  <wgt id="940">4.0148e-12</wgt>
  <wgt id="941">4.11603e-12</wgt>
  <wgt id="942">4.61084e-12</wgt>
  <wgt id="943">5.13211e-12</wgt>
  <wgt id="944">4.52842e-12</wgt>
  <wgt id="945">4.14109e-12</wgt>
  <wgt id="946">3.94665e-12</wgt>
  <wgt id="947">4.23987e-12</wgt>
  <wgt id="948">4.73568e-12</wgt>
  <wgt id="949">4.87087e-12</wgt>
  <wgt id="950">3.58051e-12</wgt>
  <wgt id="951">4.17557e-12</wgt>
  <wgt id="952">4.49474e-12</wgt>
  <wgt id="953">4.69495e-12</wgt>
  <wgt id="954">4.35562e-12</wgt>
  <wgt id="955">3.88676e-12</wgt>
  <wgt id="956">3.86763e-12</wgt>
  <wgt id="957">4.53513e-12</wgt>
  <wgt id="958">4.22269e-12</wgt>
  <wgt id="959">4.1919e-12</wgt>
  <wgt id="960">3.72655e-12</wgt>
  <wgt id="961">4.19946e-12</wgt>
  <wgt id="962">4.77431e-12</wgt>
  <wgt id="963">4.13497e-12</wgt>
  <wgt id="964">4.80698e-12</wgt>
  <wgt id="965">4.82858e-12</wgt>
  <wgt id="966">4.4365e-12</wgt>
  <wgt id="967">4.63336e-12</wgt>
  <wgt id="968">4.40173e-12</wgt>
  <wgt id="969">4.38795e-12</wgt>
  <wgt id="970">4.41732e-12</wgt>
  <wgt id="971">3.92498e-12</wgt>
  <wgt id="972">4.55744e-12</wgt>
  <wgt id="973">4.05751e-12</wgt>
  <wgt id="974">5.32305e-12</wgt>
  <wgt id="975">4.21601e-12</wgt>
  <wgt id="976">4.34754e-12</wgt>
  <wgt id="977">3.41628e-12</wgt>
  <wgt id="978">4.54208e-12</wgt>
  <wgt id="979">4.99974e-12</wgt>
  <wgt id="980">4.29658e-12</wgt>
  <wgt id="981">4.42751e-12</wgt>
  <wgt id="982">4.19436e-12</wgt>
</rwgt>
</event>
<event>
 5   1  0.3028200E-11  0.2464616E+04  0.7818608E-02  0.7655947E-01
       21   -1    0    0  502  501  0.00000000000E+00  0.00000000000E+00  0.36959577268E+04  0.36959577268E+04  0.00000000000E+00 0. -1.
       21   -1    0    0  501  502 -0.00000000000E+00 -0.00000000000E+00 -0.41087670199E+03  0.41087670199E+03  0.00000000000E+00 0.  1.
       39    2    1    2    0    0  0.00000000000E+00  0.00000000000E+00  0.32850810248E+04  0.41068344288E+04  0.24646159307E+04 0.  0.
       25    1    3    3    0    0 -0.15228551341E+03 -0.99702103748E+03  0.48122777327E+03  0.11244763210E+04  0.12500000000E+03 0.  0.
       25    1    3    3    0    0  0.15228551341E+03  0.99702103748E+03  0.28038532515E+04  0.29823581077E+04  0.12500000000E+03 0.  0.
<mgrwt>
<rscale>  0 0.24646159E+04</rscale>
<asrwt>0</asrwt>
<pdfrwt beam="1">  1       21 0.56860886E+00 0.24646159E+04</pdfrwt>
<pdfrwt beam="2">  1       21 0.63211803E-01 0.24646159E+04</pdfrwt>
<totfact> 0.41817488E-01</totfact>
</mgrwt>
<rwgt>
  <wgt id="1">3.0282e-12</wgt>
  <wgt id="2">2.52699e-12</wgt>
  <wgt id="3">3.69907e-12</wgt>
  <wgt id="4">3.0282e-12</wgt>
  <wgt id="5">2.52699e-12</wgt>
  <wgt id="6">3.69907e-12</wgt>
  <wgt id="7">3.0282e-12</wgt>
  <wgt id="8">2.52699e-12</wgt>
  <wgt id="9">3.69907e-12</wgt>
  <wgt id="10">3.36633e-12</wgt>
  <wgt id="11">3.35338e-12</wgt>
  <wgt id="12">3.42475e-12</wgt>
  <wgt id="13">3.42017e-12</wgt>
  <wgt id="14">3.29077e-12</wgt>
  <wgt id="15">3.30344e-12</wgt>
  <wgt id="16">3.42662e-12</wgt>
  <wgt id="17">3.44189e-12</wgt>
  <wgt id="18">3.39666e-12</wgt>
  <wgt id="19">3.35598e-12</wgt>
  <wgt id="20">3.36485e-12</wgt>
  <wgt id="21">3.24083e-12</wgt>
  <wgt id="22">3.33329e-12</wgt>
  <wgt id="23">3.29956e-12</wgt>
  <wgt id="24">3.36688e-12</wgt>
  <wgt id="25">3.41622e-12</wgt>
  <wgt id="26">3.33388e-12</wgt>
  <wgt id="27">3.39997e-12</wgt>
  <wgt id="28">3.36875e-12</wgt>
  <wgt id="29">3.38691e-12</wgt>
  <wgt id="30">3.41623e-12</wgt>
  <wgt id="31">3.39594e-12</wgt>
  <wgt id="32">3.34869e-12</wgt>
  <wgt id="33">3.36763e-12</wgt>
  <wgt id="34">3.35835e-12</wgt>
  <wgt id="35">3.32717e-12</wgt>
  <wgt id="36">3.34233e-12</wgt>
  <wgt id="37">3.3416e-12</wgt>
  <wgt id="38">3.30456e-12</wgt>
  <wgt id="39">3.44129e-12</wgt>
  <wgt id="40">3.44274e-12</wgt>
  <wgt id="41">3.34285e-12</wgt>
  <wgt id="42">3.28021e-12</wgt>
  <wgt id="43">3.30614e-12</wgt>
  <wgt id="44">3.44584e-12</wgt>
  <wgt id="45">3.41891e-12</wgt>
  <wgt id="46">3.33818e-12</wgt>
  <wgt id="47">3.47013e-12</wgt>
  <wgt id="48">3.45305e-12</wgt>
  <wgt id="49">3.41969e-12</wgt>
  <wgt id="50">3.36395e-12</wgt>
  <wgt id="51">3.31185e-12</wgt>
  <wgt id="52">3.4006e-12</wgt>
  <wgt id="53">3.53097e-12</wgt>
  <wgt id="54">3.38967e-12</wgt>
  <wgt id="55">3.37656e-12</wgt>
  <wgt id="56">3.2073e-12</wgt>
  <wgt id="57">3.27658e-12</wgt>
  <wgt id="58">3.42253e-12</wgt>
  <wgt id="59">3.4704e-12</wgt>
  <wgt id="60">3.2955e-12</wgt>
  <wgt id="61">3.41599e-12</wgt>
  <wgt id="62">3.41406e-12</wgt>
  <wgt id="63">3.31929e-12</wgt>
  <wgt id="64">3.38209e-12</wgt>
  <wgt id="65">3.38919e-12</wgt>
  <wgt id="66">3.50865e-12</wgt>
  <wgt id="67">3.56434e-12</wgt>
  <wgt id="68">3.3955e-12</wgt>
  <wgt id="69">3.42211e-12</wgt>
  <wgt id="70">3.28617e-12</wgt>
  <wgt id="71">3.4334e-12</wgt>
  <wgt id="72">3.53929e-12</wgt>
  <wgt id="73">3.27475e-12</wgt>
  <wgt id="74">3.48026e-12</wgt>
  <wgt id="75">3.15627e-12</wgt>
  <wgt id="76">3.28716e-12</wgt>
  <wgt id="77">3.23659e-12</wgt>
  <wgt id="78">3.32993e-12</wgt>
  <wgt id="79">3.21209e-12</wgt>
  <wgt id="80">3.49754e-12</wgt>
  <wgt id="81">3.49276e-12</wgt>
  <wgt id="82">3.28937e-12</wgt>
  <wgt id="83">3.42753e-12</wgt>
  <wgt id="84">3.2946e-12</wgt>
  <wgt id="85">3.36608e-12</wgt>
  <wgt id="86">3.3673e-12</wgt>
  <wgt id="87">3.40508e-12</wgt>
  <wgt id="88">3.36114e-12</wgt>
  <wgt id="89">3.3648e-12</wgt>
  <wgt id="90">3.47294e-12</wgt>
  <wgt id="91">3.3563e-12</wgt>
  <wgt id="92">3.31754e-12</wgt>
  <wgt id="93">3.53406e-12</wgt>
  <wgt id="94">3.19997e-12</wgt>
  <wgt id="95">3.68594e-12</wgt>
  <wgt id="96">3.69274e-12</wgt>
  <wgt id="97">3.15537e-12</wgt>
  <wgt id="98">3.32732e-12</wgt>
  <wgt id="99">3.4136e-12</wgt>
  <wgt id="100">3.48611e-12</wgt>
  <wgt id="101">3.08848e-12</wgt>
  <wgt id="102">3.30721e-12</wgt>
  <wgt id="103">3.66672e-12</wgt>
  <wgt id="104">3.2155e-12</wgt>
  <wgt id="105">3.58438e-12</wgt>
  <wgt id="106">3.16518e-12</wgt>
  <wgt id="107">3.78855e-12</wgt>
  <wgt id="108">3.33935e-12</wgt>
  <wgt id="109">3.27517e-12</wgt>
  <wgt id="110">3.34498e-12</wgt>
  <wgt id="111">3.16297e-12</wgt>
  <wgt id="112">3.43394e-12</wgt>
  <wgt id="113">7.90419e-12</wgt>
  <wgt id="114">4.4589e-12</wgt>
  <wgt id="115">4.42275e-12</wgt>
  <wgt id="116">6.00965e-12</wgt>
  <wgt id="117">4.51003e-12</wgt>
  <wgt id="118">4.53105e-12</wgt>
  <wgt id="119">4.49807e-12</wgt>
  <wgt id="120">4.50927e-12</wgt>
  <wgt id="121">4.51021e-12</wgt>
  <wgt id="122">4.50548e-12</wgt>
  <wgt id="123">4.51661e-12</wgt>
  <wgt id="124">4.50535e-12</wgt>
  <wgt id="125">4.51283e-12</wgt>
  <wgt id="126">4.51131e-12</wgt>
  <wgt id="127">4.50909e-12</wgt>
  <wgt id="128">4.52254e-12</wgt>
  <wgt id="129">4.49748e-12</wgt>
  <wgt id="130">4.51642e-12</wgt>
  <wgt id="131">4.5026e-12</wgt>
  <wgt id="132">4.34939e-12</wgt>
  <wgt id="133">4.70551e-12</wgt>
  <wgt id="134">4.4671e-12</wgt>
  <wgt id="135">4.54412e-12</wgt>
  <wgt id="136">4.63325e-12</wgt>
  <wgt id="137">4.36503e-12</wgt>
  <wgt id="138">4.86134e-12</wgt>
  <wgt id="139">4.19928e-12</wgt>
  <wgt id="140">4.52675e-12</wgt>
  <wgt id="141">4.49442e-12</wgt>
  <wgt id="142">4.5065e-12</wgt>
  <wgt id="143">4.53881e-12</wgt>
  <wgt id="144">4.08549e-12</wgt>
  <wgt id="145">4.99455e-12</wgt>
  <wgt id="146">4.6856e-12</wgt>
  <wgt id="147">4.36218e-12</wgt>
  <wgt id="148">4.52291e-12</wgt>
  <wgt id="149">4.5094e-12</wgt>
  <wgt id="150">4.54279e-12</wgt>
  <wgt id="151">4.49442e-12</wgt>
  <wgt id="152">4.5052e-12</wgt>
  <wgt id="153">4.51159e-12</wgt>
  <wgt id="154">4.4062e-12</wgt>
  <wgt id="155">4.5945e-12</wgt>
  <wgt id="156">4.97512e-12</wgt>
  <wgt id="157">4.17578e-12</wgt>
  <wgt id="158">5.20492e-12</wgt>
  <wgt id="159">5.22857e-12</wgt>
  <wgt id="160">5.18564e-12</wgt>
  <wgt id="161">5.18925e-12</wgt>
  <wgt id="162">5.22195e-12</wgt>
  <wgt id="163">5.1977e-12</wgt>
  <wgt id="164">5.21535e-12</wgt>
  <wgt id="165">5.20625e-12</wgt>
  <wgt id="166">5.2037e-12</wgt>
  <wgt id="167">5.20205e-12</wgt>
  <wgt id="168">5.20823e-12</wgt>
  <wgt id="169">5.18848e-12</wgt>
  <wgt id="170">5.21499e-12</wgt>
  <wgt id="171">5.20667e-12</wgt>
  <wgt id="172">5.20273e-12</wgt>
  <wgt id="173">5.16121e-12</wgt>
  <wgt id="174">5.22046e-12</wgt>
  <wgt id="175">5.0228e-12</wgt>
  <wgt id="176">5.44671e-12</wgt>
  <wgt id="177">5.20319e-12</wgt>
  <wgt id="178">5.20763e-12</wgt>
  <wgt id="179">5.69191e-12</wgt>
  <wgt id="180">4.52513e-12</wgt>
  <wgt id="181">4.93456e-12</wgt>
  <wgt id="182">5.39308e-12</wgt>
  <wgt id="183">5.0393e-12</wgt>
  <wgt id="184">5.28808e-12</wgt>
  <wgt id="185">5.11069e-12</wgt>
  <wgt id="186">5.32059e-12</wgt>
  <wgt id="187">5.08746e-12</wgt>
  <wgt id="188">5.40586e-12</wgt>
  <wgt id="189">5.13731e-12</wgt>
  <wgt id="190">5.2323e-12</wgt>
  <wgt id="191">5.24291e-12</wgt>
  <wgt id="192">5.18188e-12</wgt>
  <wgt id="193">5.34168e-12</wgt>
  <wgt id="194">5.13493e-12</wgt>
  <wgt id="195">4.76016e-12</wgt>
  <wgt id="196">5.91667e-12</wgt>
  <wgt id="197">5.231e-12</wgt>
  <wgt id="198">5.19847e-12</wgt>
  <wgt id="199">5.20492e-12</wgt>
  <wgt id="200">5.27654e-12</wgt>
  <wgt id="201">5.25704e-12</wgt>
  <wgt id="202">5.23571e-12</wgt>
  <wgt id="203">5.21252e-12</wgt>
  <wgt id="204">5.19695e-12</wgt>
  <wgt id="205">5.18558e-12</wgt>
  <wgt id="206">5.29037e-12</wgt>
  <wgt id="207">5.32521e-12</wgt>
  <wgt id="208">5.25553e-12</wgt>
  <wgt id="209">5.30588e-12</wgt>
  <wgt id="210">5.27889e-12</wgt>
  <wgt id="211">5.28842e-12</wgt>
  <wgt id="212">5.29194e-12</wgt>
  <wgt id="213">5.28968e-12</wgt>
  <wgt id="214">5.29036e-12</wgt>
  <wgt id="215">5.29452e-12</wgt>
  <wgt id="216">5.28719e-12</wgt>
  <wgt id="217">5.29325e-12</wgt>
  <wgt id="218">5.28786e-12</wgt>
  <wgt id="219">5.28231e-12</wgt>
  <wgt id="220">5.29526e-12</wgt>
  <wgt id="221">5.30592e-12</wgt>
  <wgt id="222">5.24927e-12</wgt>
  <wgt id="223">4.85792e-12</wgt>
  <wgt id="224">5.69423e-12</wgt>
  <wgt id="225">5.21936e-12</wgt>
  <wgt id="226">5.38232e-12</wgt>
  <wgt id="227">5.23352e-12</wgt>
  <wgt id="228">5.31513e-12</wgt>
  <wgt id="229">5.19146e-12</wgt>
  <wgt id="230">5.33921e-12</wgt>
  <wgt id="231">5.61089e-12</wgt>
  <wgt id="232">5.03641e-12</wgt>
  <wgt id="233">5.2004e-12</wgt>
  <wgt id="234">5.43959e-12</wgt>
  <wgt id="235">4.58683e-12</wgt>
  <wgt id="236">5.89084e-12</wgt>
  <wgt id="237">4.91609e-12</wgt>
  <wgt id="238">5.41834e-12</wgt>
  <wgt id="239">5.14503e-12</wgt>
  <wgt id="240">5.55633e-12</wgt>
  <wgt id="241">5.17624e-12</wgt>
  <wgt id="242">5.419e-12</wgt>
  <wgt id="243">5.52297e-12</wgt>
  <wgt id="244">5.19893e-12</wgt>
  <wgt id="245">5.29638e-12</wgt>
  <wgt id="246">5.27952e-12</wgt>
  <wgt id="247">5.29037e-12</wgt>
  <wgt id="248">5.38322e-12</wgt>
  <wgt id="249">5.35476e-12</wgt>
  <wgt id="250">5.31095e-12</wgt>
  <wgt id="251">5.27425e-12</wgt>
  <wgt id="252">5.24484e-12</wgt>
  <wgt id="253">5.228e-12</wgt>
  <wgt id="254">4.86508e-12</wgt>
  <wgt id="255">4.8689e-12</wgt>
  <wgt id="256">4.86092e-12</wgt>
  <wgt id="257">4.86891e-12</wgt>
  <wgt id="258">4.86221e-12</wgt>
  <wgt id="259">4.89848e-12</wgt>
  <wgt id="260">4.83281e-12</wgt>
  <wgt id="261">4.87528e-12</wgt>
  <wgt id="262">4.85274e-12</wgt>
  <wgt id="263">4.85769e-12</wgt>
  <wgt id="264">4.8743e-12</wgt>
  <wgt id="265">4.85908e-12</wgt>
  <wgt id="266">4.87712e-12</wgt>
  <wgt id="267">4.86584e-12</wgt>
  <wgt id="268">4.86401e-12</wgt>
  <wgt id="269">4.875e-12</wgt>
  <wgt id="270">4.85821e-12</wgt>
  <wgt id="271">4.82953e-12</wgt>
  <wgt id="272">4.90492e-12</wgt>
  <wgt id="273">4.85831e-12</wgt>
  <wgt id="274">4.87012e-12</wgt>
  <wgt id="275">4.79978e-12</wgt>
  <wgt id="276">4.9333e-12</wgt>
  <wgt id="277">4.85868e-12</wgt>
  <wgt id="278">4.87061e-12</wgt>
  <wgt id="279">4.76332e-12</wgt>
  <wgt id="280">4.99485e-12</wgt>
  <wgt id="281">4.77959e-12</wgt>
  <wgt id="282">4.97211e-12</wgt>
  <wgt id="283">4.60638e-12</wgt>
  <wgt id="284">5.20978e-12</wgt>
  <wgt id="285">4.43166e-12</wgt>
  <wgt id="286">5.26112e-12</wgt>
  <wgt id="287">4.88826e-12</wgt>
  <wgt id="288">4.83667e-12</wgt>
  <wgt id="289">4.92542e-12</wgt>
  <wgt id="290">4.74019e-12</wgt>
  <wgt id="291">4.83353e-12</wgt>
  <wgt id="292">4.84537e-12</wgt>
  <wgt id="293">4.79567e-12</wgt>
  <wgt id="294">4.93489e-12</wgt>
  <wgt id="295">4.69144e-12</wgt>
  <wgt id="296">5.07682e-12</wgt>
  <wgt id="297">4.78576e-12</wgt>
  <wgt id="298">4.91941e-12</wgt>
  <wgt id="299">4.84306e-12</wgt>
  <wgt id="300">4.92363e-12</wgt>
  <wgt id="301">4.59754e-12</wgt>
  <wgt id="302">5.44297e-12</wgt>
  <wgt id="303">4.72349e-12</wgt>
  <wgt id="304">4.94267e-12</wgt>
  <wgt id="305">4.55299e-12</wgt>
  <wgt id="306">4.55644e-12</wgt>
  <wgt id="307">4.54946e-12</wgt>
  <wgt id="308">4.5569e-12</wgt>
  <wgt id="309">4.55032e-12</wgt>
  <wgt id="310">4.58435e-12</wgt>
  <wgt id="311">4.52423e-12</wgt>
  <wgt id="312">4.56587e-12</wgt>
  <wgt id="313">4.53927e-12</wgt>
  <wgt id="314">4.54408e-12</wgt>
  <wgt id="315">4.56212e-12</wgt>
  <wgt id="316">4.54604e-12</wgt>
  <wgt id="317">4.56844e-12</wgt>
  <wgt id="318">4.55531e-12</wgt>
  <wgt id="319">4.54897e-12</wgt>
  <wgt id="320">4.56499e-12</wgt>
  <wgt id="321">4.54677e-12</wgt>
  <wgt id="322">4.52128e-12</wgt>
  <wgt id="323">4.59039e-12</wgt>
  <wgt id="324">4.55476e-12</wgt>
  <wgt id="325">4.55166e-12</wgt>
  <wgt id="326">4.49811e-12</wgt>
  <wgt id="327">4.62434e-12</wgt>
  <wgt id="328">4.56503e-12</wgt>
  <wgt id="329">4.54381e-12</wgt>
  <wgt id="330">4.68649e-12</wgt>
  <wgt id="331">4.42787e-12</wgt>
  <wgt id="332">4.47584e-12</wgt>
  <wgt id="333">4.63592e-12</wgt>
  <wgt id="334">4.38386e-12</wgt>
  <wgt id="335">4.777e-12</wgt>
  <wgt id="336">4.28024e-12</wgt>
  <wgt id="337">4.91414e-12</wgt>
  <wgt id="338">4.63003e-12</wgt>
  <wgt id="339">4.48617e-12</wgt>
  <wgt id="340">4.59628e-12</wgt>
  <wgt id="341">4.45335e-12</wgt>
  <wgt id="342">4.54033e-12</wgt>
  <wgt id="343">4.51217e-12</wgt>
  <wgt id="344">4.50099e-12</wgt>
  <wgt id="345">4.61399e-12</wgt>
  <wgt id="346">4.39107e-12</wgt>
  <wgt id="347">4.73205e-12</wgt>
  <wgt id="348">4.47142e-12</wgt>
  <wgt id="349">4.60594e-12</wgt>
  <wgt id="350">4.52903e-12</wgt>
  <wgt id="351">4.6154e-12</wgt>
  <wgt id="352">4.32387e-12</wgt>
  <wgt id="353">5.0173e-12</wgt>
  <wgt id="354">4.38284e-12</wgt>
  <wgt id="355">4.65077e-12</wgt>
  <wgt id="356">4.86508e-12</wgt>
  <wgt id="357">4.49035e-12</wgt>
  <wgt id="358">4.55299e-12</wgt>
  <wgt id="359">4.77146e-12</wgt>
  <wgt id="360">5.21816e-12</wgt>
  <wgt id="361">4.93665e-12</wgt>
  <wgt id="362">5.12353e-12</wgt>
  <wgt id="363">5.10116e-12</wgt>
  <wgt id="364">5.03458e-12</wgt>
  <wgt id="365">5.00071e-12</wgt>
  <wgt id="366">4.97237e-12</wgt>
  <wgt id="367">4.93208e-12</wgt>
  <wgt id="368">4.89301e-12</wgt>
  <wgt id="369">4.85059e-12</wgt>
  <wgt id="370">4.93665e-12</wgt>
  <wgt id="371">4.94972e-12</wgt>
  <wgt id="372">4.94151e-12</wgt>
  <wgt id="373">4.93412e-12</wgt>
  <wgt id="374">4.97494e-12</wgt>
  <wgt id="375">8.597e-12</wgt>
  <wgt id="376">8.59716e-12</wgt>
  <wgt id="377">8.59757e-12</wgt>
  <wgt id="378">8.63866e-12</wgt>
  <wgt id="379">8.55624e-12</wgt>
  <wgt id="380">8.6275e-12</wgt>
  <wgt id="381">8.58503e-12</wgt>
  <wgt id="382">8.61307e-12</wgt>
  <wgt id="383">8.5818e-12</wgt>
  <wgt id="384">8.60488e-12</wgt>
  <wgt id="385">8.58994e-12</wgt>
  <wgt id="386">8.58605e-12</wgt>
  <wgt id="387">8.60224e-12</wgt>
  <wgt id="388">8.59345e-12</wgt>
  <wgt id="389">8.6017e-12</wgt>
  <wgt id="390">8.59697e-12</wgt>
  <wgt id="391">8.5976e-12</wgt>
  <wgt id="392">8.49089e-12</wgt>
  <wgt id="393">8.65758e-12</wgt>
  <wgt id="394">8.58167e-12</wgt>
  <wgt id="395">8.61839e-12</wgt>
  <wgt id="396">8.62574e-12</wgt>
  <wgt id="397">8.57714e-12</wgt>
  <wgt id="398">8.62689e-12</wgt>
  <wgt id="399">8.56969e-12</wgt>
  <wgt id="400">8.57313e-12</wgt>
  <wgt id="401">8.65701e-12</wgt>
  <wgt id="402">8.40051e-12</wgt>
  <wgt id="403">8.81479e-12</wgt>
  <wgt id="404">9.16792e-12</wgt>
  <wgt id="405">7.32177e-12</wgt>
  <wgt id="406">8.1829e-12</wgt>
  <wgt id="407">9.56462e-12</wgt>
  <wgt id="408">8.81506e-12</wgt>
  <wgt id="409">8.2117e-12</wgt>
  <wgt id="410">7.93835e-12</wgt>
  <wgt id="411">8.93284e-12</wgt>
  <wgt id="412">8.54289e-12</wgt>
  <wgt id="413">8.68022e-12</wgt>
  <wgt id="414">8.35007e-12</wgt>
  <wgt id="415">8.79053e-12</wgt>
  <wgt id="416">9.32932e-12</wgt>
  <wgt id="417">7.6451e-12</wgt>
  <wgt id="418">8.64042e-12</wgt>
  <wgt id="419">8.36641e-12</wgt>
  <wgt id="420">9.33651e-12</wgt>
  <wgt id="421">8.07415e-12</wgt>
  <wgt id="422">8.30355e-12</wgt>
  <wgt id="423">8.72548e-12</wgt>
  <wgt id="424">9.40598e-12</wgt>
  <wgt id="425">8.02965e-12</wgt>
  <wgt id="426">8.597e-12</wgt>
  <wgt id="427">7.86129e-12</wgt>
  <wgt id="428">1.00569e-11</wgt>
  <wgt id="429">8.96204e-12</wgt>
  <wgt id="430">9.67022e-12</wgt>
  <wgt id="431">9.4998e-12</wgt>
  <wgt id="432">9.37473e-12</wgt>
  <wgt id="433">9.25259e-12</wgt>
  <wgt id="434">9.08025e-12</wgt>
  <wgt id="435">8.8197e-12</wgt>
  <wgt id="436">8.69825e-12</wgt>
  <wgt id="437">8.57004e-12</wgt>
  <wgt id="438">8.96204e-12</wgt>
  <wgt id="439">8.98221e-12</wgt>
  <wgt id="440">8.96416e-12</wgt>
  <wgt id="441">8.9645e-12</wgt>
  <wgt id="442">8.96823e-12</wgt>
  <wgt id="443">4.44091e-12</wgt>
  <wgt id="444">4.52125e-12</wgt>
  <wgt id="445">4.61343e-12</wgt>
  <wgt id="446">4.42321e-12</wgt>
  <wgt id="447">4.34669e-12</wgt>
  <wgt id="448">4.379e-12</wgt>
  <wgt id="449">4.68408e-12</wgt>
  <wgt id="450">4.5412e-12</wgt>
  <wgt id="451">4.43977e-12</wgt>
  <wgt id="452">4.50156e-12</wgt>
  <wgt id="453">4.97027e-12</wgt>
  <wgt id="454">4.05925e-12</wgt>
  <wgt id="455">4.57611e-12</wgt>
  <wgt id="456">4.64919e-12</wgt>
  <wgt id="457">4.44782e-12</wgt>
  <wgt id="458">4.55854e-12</wgt>
  <wgt id="459">4.471e-12</wgt>
  <wgt id="460">4.70369e-12</wgt>
  <wgt id="461">4.24721e-12</wgt>
  <wgt id="462">4.40022e-12</wgt>
  <wgt id="463">4.31127e-12</wgt>
  <wgt id="464">4.52319e-12</wgt>
  <wgt id="465">4.4683e-12</wgt>
  <wgt id="466">4.13161e-12</wgt>
  <wgt id="467">4.43404e-12</wgt>
  <wgt id="468">4.49876e-12</wgt>
  <wgt id="469">4.42654e-12</wgt>
  <wgt id="470">4.30438e-12</wgt>
  <wgt id="471">4.34211e-12</wgt>
  <wgt id="472">4.43057e-12</wgt>
  <wgt id="473">4.22423e-12</wgt>
  <wgt id="474">3.0282e-12</wgt>
  <wgt id="475">3.00606e-12</wgt>
  <wgt id="476">3.63686e-12</wgt>
  <wgt id="477">4.74002e-12</wgt>
  <wgt id="478">3.6928e-12</wgt>
  <wgt id="479">2.77151e-12</wgt>
  <wgt id="480">3.6247e-12</wgt>
  <wgt id="481">3.76812e-12</wgt>
  <wgt id="482">5.39442e-12</wgt>
  <wgt id="483">2.14809e-12</wgt>
  <wgt id="484">4.68066e-12</wgt>
  <wgt id="485">3.01717e-12</wgt>
  <wgt id="486">3.8628e-12</wgt>
  <wgt id="487">3.14021e-12</wgt>
  <wgt id="488">3.76951e-13</wgt>
  <wgt id="489">9.78888e-13</wgt>
  <wgt id="490">4.13674e-12</wgt>
  <wgt id="491">3.52645e-12</wgt>
  <wgt id="492">3.66899e-12</wgt>
  <wgt id="493">1.03519e-12</wgt>
  <wgt id="494">1.57387e-12</wgt>
  <wgt id="495">4.02253e-12</wgt>
  <wgt id="496">2.89969e-13</wgt>
  <wgt id="497">3.31071e-12</wgt>
  <wgt id="498">3.18523e-12</wgt>
  <wgt id="499">3.20836e-12</wgt>
  <wgt id="500">4.70752e-12</wgt>
  <wgt id="501">3.75767e-12</wgt>
  <wgt id="502">4.11092e-12</wgt>
  <wgt id="503">3.3409e-12</wgt>
  <wgt id="504">3.12165e-12</wgt>
  <wgt id="505">4.14721e-12</wgt>
  <wgt id="506">2.73767e-12</wgt>
  <wgt id="507">2.99428e-12</wgt>
  <wgt id="508">2.81036e-12</wgt>
  <wgt id="509">4.16752e-12</wgt>
  <wgt id="510">1.54228e-12</wgt>
  <wgt id="511">3.4879e-12</wgt>
  <wgt id="512">3.3952e-12</wgt>
  <wgt id="513">4.44429e-12</wgt>
  <wgt id="514">3.28804e-12</wgt>
  <wgt id="515">3.85588e-12</wgt>
  <wgt id="516">3.66152e-12</wgt>
  <wgt id="517">3.26963e-12</wgt>
  <wgt id="518">3.95918e-12</wgt>
  <wgt id="519">3.77944e-12</wgt>
  <wgt id="520">7.52978e-13</wgt>
  <wgt id="521">3.14266e-12</wgt>
  <wgt id="522">3.18017e-12</wgt>
  <wgt id="523">3.79222e-12</wgt>
  <wgt id="524">7.50202e-13</wgt>
  <wgt id="525">3.18926e-12</wgt>
  <wgt id="526">3.69721e-12</wgt>
  <wgt id="527">3.3256e-12</wgt>
  <wgt id="528">1.54101e-12</wgt>
  <wgt id="529">6.8248e-13</wgt>
  <wgt id="530">4.04768e-12</wgt>
  <wgt id="531">3.20895e-12</wgt>
  <wgt id="532">3.50831e-12</wgt>
  <wgt id="533">3.87538e-12</wgt>
  <wgt id="534">2.31613e-12</wgt>
  <wgt id="535">4.42448e-12</wgt>
  <wgt id="536">4.44132e-12</wgt>
  <wgt id="537">1.17721e-12</wgt>
  <wgt id="538">2.93824e-12</wgt>
  <wgt id="539">3.55434e-12</wgt>
  <wgt id="540">2.78016e-12</wgt>
  <wgt id="541">3.15599e-12</wgt>
  <wgt id="542">1.20533e-12</wgt>
  <wgt id="543">1.89205e-12</wgt>
  <wgt id="544">2.66592e-12</wgt>
  <wgt id="545">2.68277e-12</wgt>
  <wgt id="546">3.14441e-12</wgt>
  <wgt id="547">2.813e-12</wgt>
  <wgt id="548">4.60977e-12</wgt>
  <wgt id="549">2.40138e-12</wgt>
  <wgt id="550">1.63346e-12</wgt>
  <wgt id="551">8.06542e-13</wgt>
  <wgt id="552">2.17861e-12</wgt>
  <wgt id="553">3.07098e-12</wgt>
  <wgt id="554">1.3357e-12</wgt>
  <wgt id="555">3.05998e-12</wgt>
  <wgt id="556">4.13674e-12</wgt>
  <wgt id="557">2.77717e-12</wgt>
  <wgt id="558">3.15666e-12</wgt>
  <wgt id="559">3.27817e-12</wgt>
  <wgt id="560">1.95383e-12</wgt>
  <wgt id="561">3.90342e-12</wgt>
  <wgt id="562">2.94016e-12</wgt>
  <wgt id="563">3.63506e-12</wgt>
  <wgt id="564">4.35337e-12</wgt>
  <wgt id="565">4.37929e-12</wgt>
  <wgt id="566">2.07867e-12</wgt>
  <wgt id="567">3.03554e-12</wgt>
  <wgt id="568">1.16018e-12</wgt>
  <wgt id="569">3.47878e-12</wgt>
  <wgt id="570">2.01844e-12</wgt>
  <wgt id="571">4.13045e-12</wgt>
  <wgt id="572">1.2077e-12</wgt>
  <wgt id="573">3.03288e-12</wgt>
  <wgt id="574">3.7992e-12</wgt>
  <wgt id="575">2.4777e-12</wgt>
  <wgt id="576">2.85237e-12</wgt>
  <wgt id="577">3.37272e-12</wgt>
  <wgt id="578">-8.24934e-13</wgt>
  <wgt id="579">2.31307e-12</wgt>
  <wgt id="580">2.79242e-12</wgt>
  <wgt id="581">4.13925e-12</wgt>
  <wgt id="582">1.60954e-12</wgt>
  <wgt id="583">3.7124e-12</wgt>
  <wgt id="584">3.35201e-12</wgt>
  <wgt id="585">3.14945e-12</wgt>
  <wgt id="586">1.22848e-12</wgt>
  <wgt id="587">2.02272e-12</wgt>
  <wgt id="588">4.96892e-12</wgt>
  <wgt id="589">4.16069e-12</wgt>
  <wgt id="590">3.49895e-12</wgt>
  <wgt id="591">2.83189e-12</wgt>
  <wgt id="592">4.23043e-12</wgt>
  <wgt id="593">3.56219e-12</wgt>
  <wgt id="594">3.31672e-12</wgt>
  <wgt id="595">3.71243e-12</wgt>
  <wgt id="596">3.25192e-12</wgt>
  <wgt id="597">2.47917e-12</wgt>
  <wgt id="598">5.06602e-12</wgt>
  <wgt id="599">2.96053e-12</wgt>
  <wgt id="600">2.17787e-12</wgt>
  <wgt id="601">2.09488e-12</wgt>
  <wgt id="602">8.11779e-13</wgt>
  <wgt id="603">-7.90737e-13</wgt>
  <wgt id="604">4.08444e-12</wgt>
  <wgt id="605">2.27482e-12</wgt>
  <wgt id="606">-2.77431e-12</wgt>
  <wgt id="607">3.54436e-12</wgt>
  <wgt id="608">2.64726e-12</wgt>
  <wgt id="609">3.19627e-12</wgt>
  <wgt id="610">6.65464e-13</wgt>
  <wgt id="611">1.74254e-12</wgt>
  <wgt id="612">1.91588e-12</wgt>
  <wgt id="613">1.55786e-12</wgt>
  <wgt id="614">2.4338e-12</wgt>
  <wgt id="615">-5.70912e-15</wgt>
  <wgt id="616">3.54637e-12</wgt>
  <wgt id="617">1.64527e-12</wgt>
  <wgt id="618">3.53193e-12</wgt>
  <wgt id="619">1.46613e-12</wgt>
  <wgt id="620">3.71872e-12</wgt>
  <wgt id="621">4.0403e-12</wgt>
  <wgt id="622">2.02272e-12</wgt>
  <wgt id="623">3.05317e-12</wgt>
  <wgt id="624">1.40531e-12</wgt>
  <wgt id="625">1.41166e-12</wgt>
  <wgt id="626">-3.18979e-12</wgt>
  <wgt id="627">2.93163e-12</wgt>
  <wgt id="628">3.41503e-12</wgt>
  <wgt id="629">6.0188e-13</wgt>
  <wgt id="630">4.41958e-12</wgt>
  <wgt id="631">3.89851e-12</wgt>
  <wgt id="632">2.01641e-12</wgt>
  <wgt id="633">2.51438e-12</wgt>
  <wgt id="634">2.60131e-12</wgt>
  <wgt id="635">2.35779e-12</wgt>
  <wgt id="636">2.51866e-13</wgt>
  <wgt id="637">1.00257e-12</wgt>
  <wgt id="638">2.33814e-12</wgt>
  <wgt id="639">9.74893e-13</wgt>
  <wgt id="640">4.22802e-14</wgt>
  <wgt id="641">4.13341e-12</wgt>
  <wgt id="642">2.72758e-12</wgt>
  <wgt id="643">2.6409e-12</wgt>
  <wgt id="644">3.16671e-12</wgt>
  <wgt id="645">4.38095e-12</wgt>
  <wgt id="646">1.22371e-12</wgt>
  <wgt id="647">3.90173e-12</wgt>
  <wgt id="648">2.62134e-12</wgt>
  <wgt id="649">4.45439e-12</wgt>
  <wgt id="650">3.40801e-12</wgt>
  <wgt id="651">1.52953e-12</wgt>
  <wgt id="652">6.42243e-13</wgt>
  <wgt id="653">3.3404e-12</wgt>
  <wgt id="654">3.35784e-12</wgt>
  <wgt id="655">1.31489e-12</wgt>
  <wgt id="656">4.21882e-12</wgt>
  <wgt id="657">3.35188e-12</wgt>
  <wgt id="658">1.37943e-12</wgt>
  <wgt id="659">3.86972e-12</wgt>
  <wgt id="660">1.48016e-12</wgt>
  <wgt id="661">1.92155e-12</wgt>
  <wgt id="662">2.75163e-12</wgt>
  <wgt id="663">2.81084e-12</wgt>
  <wgt id="664">1.67985e-12</wgt>
  <wgt id="665">1.37055e-12</wgt>
  <wgt id="666">1.90585e-12</wgt>
  <wgt id="667">3.11518e-12</wgt>
  <wgt id="668">2.99868e-12</wgt>
  <wgt id="669">1.22245e-12</wgt>
  <wgt id="670">3.75969e-12</wgt>
  <wgt id="671">2.18862e-12</wgt>
  <wgt id="672">4.00172e-12</wgt>
  <wgt id="673">3.73531e-12</wgt>
  <wgt id="674">3.49311e-12</wgt>
  <wgt id="675">2.3081e-12</wgt>
  <wgt id="676">4.05803e-12</wgt>
  <wgt id="677">4.52718e-12</wgt>
  <wgt id="678">6.09874e-12</wgt>
  <wgt id="679">2.56499e-12</wgt>
  <wgt id="680">5.26251e-12</wgt>
  <wgt id="681">4.44328e-12</wgt>
  <wgt id="682">5.73871e-12</wgt>
  <wgt id="683">4.27293e-12</wgt>
  <wgt id="684">4.5974e-12</wgt>
  <wgt id="685">4.49715e-12</wgt>
  <wgt id="686">4.82534e-12</wgt>
  <wgt id="687">2.35913e-12</wgt>
  <wgt id="688">5.66861e-12</wgt>
  <wgt id="689">7.20121e-12</wgt>
  <wgt id="690">5.65391e-12</wgt>
  <wgt id="691">6.51113e-12</wgt>
  <wgt id="692">2.37693e-12</wgt>
  <wgt id="693">7.82552e-12</wgt>
  <wgt id="694">7.00259e-12</wgt>
  <wgt id="695">1.49378e-12</wgt>
  <wgt id="696">2.0028e-13</wgt>
  <wgt id="697">2.86118e-12</wgt>
  <wgt id="698">5.26198e-13</wgt>
  <wgt id="699">4.01745e-12</wgt>
  <wgt id="700">-2.6772e-13</wgt>
  <wgt id="701">5.29366e-12</wgt>
  <wgt id="702">4.14564e-12</wgt>
  <wgt id="703">7.02276e-12</wgt>
  <wgt id="704">6.87665e-12</wgt>
  <wgt id="705">3.68977e-12</wgt>
  <wgt id="706">-4.192e-13</wgt>
  <wgt id="707">2.74642e-12</wgt>
  <wgt id="708">4.2995e-12</wgt>
  <wgt id="709">3.56142e-12</wgt>
  <wgt id="710">-2.12916e-12</wgt>
  <wgt id="711">5.77135e-12</wgt>
  <wgt id="712">4.5988e-12</wgt>
  <wgt id="713">5.15755e-12</wgt>
  <wgt id="714">1.95822e-12</wgt>
  <wgt id="715">-1.78628e-13</wgt>
  <wgt id="716">2.58644e-12</wgt>
  <wgt id="717">5.20386e-13</wgt>
  <wgt id="718">3.0002e-12</wgt>
  <wgt id="719">5.56018e-13</wgt>
  <wgt id="720">-3.18448e-14</wgt>
  <wgt id="721">-1.67249e-12</wgt>
  <wgt id="722">-4.48147e-12</wgt>
  <wgt id="723">7.57928e-12</wgt>
  <wgt id="724">5.45545e-12</wgt>
  <wgt id="725">5.08247e-12</wgt>
  <wgt id="726">4.96545e-12</wgt>
  <wgt id="727">3.91598e-12</wgt>
  <wgt id="728">7.72864e-12</wgt>
  <wgt id="729">1.60426e-12</wgt>
  <wgt id="730">6.94884e-12</wgt>
  <wgt id="731">4.45178e-12</wgt>
  <wgt id="732">5.57273e-12</wgt>
  <wgt id="733">4.07207e-12</wgt>
  <wgt id="734">5.14584e-12</wgt>
  <wgt id="735">2.21079e-12</wgt>
  <wgt id="736">1.88212e-12</wgt>
  <wgt id="737">5.57486e-14</wgt>
  <wgt id="738">1.56899e-12</wgt>
  <wgt id="739">5.37144e-12</wgt>
  <wgt id="740">5.7091e-12</wgt>
  <wgt id="741">5.88976e-12</wgt>
  <wgt id="742">3.68166e-12</wgt>
  <wgt id="743">4.31105e-12</wgt>
  <wgt id="744">4.33267e-12</wgt>
  <wgt id="745">6.65893e-12</wgt>
  <wgt id="746">7.01847e-12</wgt>
  <wgt id="747">3.49734e-12</wgt>
  <wgt id="748">5.04263e-12</wgt>
  <wgt id="749">6.89027e-12</wgt>
  <wgt id="750">6.92268e-12</wgt>
  <wgt id="751">5.45071e-12</wgt>
  <wgt id="752">2.77636e-12</wgt>
  <wgt id="753">3.13111e-12</wgt>
  <wgt id="754">3.22214e-12</wgt>
  <wgt id="755">1.5271e-12</wgt>
  <wgt id="756">2.05634e-12</wgt>
  <wgt id="757">3.92045e-12</wgt>
  <wgt id="758">5.44751e-12</wgt>
  <wgt id="759">4.46932e-12</wgt>
  <wgt id="760">1.40852e-12</wgt>
  <wgt id="761">7.2952e-12</wgt>
  <wgt id="762">4.50762e-12</wgt>
  <wgt id="763">7.48448e-12</wgt>
  <wgt id="764">6.24156e-12</wgt>
  <wgt id="765">6.06768e-12</wgt>
  <wgt id="766">6.99035e-12</wgt>
  <wgt id="767">6.50689e-12</wgt>
  <wgt id="768">3.89647e-12</wgt>
  <wgt id="769">5.42363e-12</wgt>
  <wgt id="770">-4.50341e-12</wgt>
  <wgt id="771">9.54826e-12</wgt>
  <wgt id="772">4.10686e-12</wgt>
  <wgt id="773">5.02751e-12</wgt>
  <wgt id="774">3.5755e-12</wgt>
  <wgt id="775">6.46661e-12</wgt>
  <wgt id="776">7.38888e-12</wgt>
  <wgt id="777">2.06472e-12</wgt>
  <wgt id="778">1.83621e-12</wgt>
  <wgt id="779">2.56033e-19</wgt>
  <wgt id="780">2.54539e-19</wgt>
  <wgt id="781">2.6988e-19</wgt>
  <wgt id="782">2.65212e-19</wgt>
  <wgt id="783">2.56488e-19</wgt>
  <wgt id="784">2.57571e-19</wgt>
  <wgt id="785">5.14096e-12</wgt>
  <wgt id="786">2.53562e-19</wgt>
  <wgt id="787">4.0895e-12</wgt>
  <wgt id="788">2.47685e-19</wgt>
  <wgt id="789">2.69817e-19</wgt>
  <wgt id="790">2.53564e-19</wgt>
  <wgt id="791">2.62122e-19</wgt>
  <wgt id="792">2.92158e-19</wgt>
  <wgt id="793">2.59477e-19</wgt>
  <wgt id="794">2.52433e-19</wgt>
  <wgt id="795">3.86192e-12</wgt>
  <wgt id="796">5.28869e-12</wgt>
  <wgt id="797">3.69115e-12</wgt>
  <wgt id="798">2.53355e-19</wgt>
  <wgt id="799">3.77312e-12</wgt>
  <wgt id="800">2.60394e-19</wgt>
  <wgt id="801">2.72235e-12</wgt>
  <wgt id="802">2.57976e-19</wgt>
  <wgt id="803">3.22512e-13</wgt>
  <wgt id="804">4.26529e-12</wgt>
  <wgt id="805">4.16476e-12</wgt>
  <wgt id="806">2.77781e-19</wgt>
  <wgt id="807">2.62979e-19</wgt>
  <wgt id="808">3.40959e-12</wgt>
  <wgt id="809">2.65561e-19</wgt>
  <wgt id="810">7.96688e-12</wgt>
  <wgt id="811">2.97864e-12</wgt>
  <wgt id="812">2.56832e-19</wgt>
  <wgt id="813">2.54747e-19</wgt>
  <wgt id="814">2.49187e-19</wgt>
  <wgt id="815">2.5557e-19</wgt>
  <wgt id="816">2.59176e-19</wgt>
  <wgt id="817">2.47515e-12</wgt>
  <wgt id="818">3.89332e-12</wgt>
  <wgt id="819">2.58264e-19</wgt>
  <wgt id="820">2.61993e-19</wgt>
  <wgt id="821">3.45891e-12</wgt>
  <wgt id="822">2.61792e-19</wgt>
  <wgt id="823">5.04939e-12</wgt>
  <wgt id="824">8.06579e-13</wgt>
  <wgt id="825">2.52631e-19</wgt>
  <wgt id="826">3.59106e-12</wgt>
  <wgt id="827">2.55705e-19</wgt>
  <wgt id="828">1.31337e-12</wgt>
  <wgt id="829">2.45888e-12</wgt>
  <wgt id="830">2.54216e-19</wgt>
  <wgt id="831">3.82362e-12</wgt>
  <wgt id="832">7.39318e-12</wgt>
  <wgt id="833">2.62096e-19</wgt>
  <wgt id="834">8.5835e-12</wgt>
  <wgt id="835">2.58124e-19</wgt>
  <wgt id="836">2.71403e-19</wgt>
  <wgt id="837">3.6222e-12</wgt>
  <wgt id="838">2.58185e-19</wgt>
  <wgt id="839">5.18442e-12</wgt>
  <wgt id="840">2.63897e-19</wgt>
  <wgt id="841">3.98142e-12</wgt>
  <wgt id="842">2.6477e-19</wgt>
  <wgt id="843">2.6092e-19</wgt>
  <wgt id="844">3.66711e-12</wgt>
  <wgt id="845">6.2057e-12</wgt>
  <wgt id="846">2.686e-19</wgt>
  <wgt id="847">3.28429e-12</wgt>
  <wgt id="848">2.60179e-19</wgt>
  <wgt id="849">3.61301e-12</wgt>
  <wgt id="850">4.38594e-12</wgt>
  <wgt id="851">3.65049e-12</wgt>
  <wgt id="852">2.58507e-19</wgt>
  <wgt id="853">3.71103e-12</wgt>
  <wgt id="854">4.18019e-12</wgt>
  <wgt id="855">2.5152e-19</wgt>
  <wgt id="856">2.53338e-19</wgt>
  <wgt id="857">2.61626e-19</wgt>
  <wgt id="858">3.26088e-12</wgt>
  <wgt id="859">2.62437e-19</wgt>
  <wgt id="860">2.59729e-19</wgt>
  <wgt id="861">2.64088e-19</wgt>
  <wgt id="862">2.69488e-12</wgt>
  <wgt id="863">4.22992e-12</wgt>
  <wgt id="864">2.63617e-19</wgt>
  <wgt id="865">3.58998e-12</wgt>
  <wgt id="866">6.59944e-12</wgt>
  <wgt id="867">3.15972e-12</wgt>
  <wgt id="868">3.8629e-12</wgt>
  <wgt id="869">2.54994e-19</wgt>
  <wgt id="870">2.57477e-19</wgt>
  <wgt id="871">2.58041e-19</wgt>
  <wgt id="872">6.58163e-12</wgt>
  <wgt id="873">2.59695e-19</wgt>
  <wgt id="874">3.52418e-12</wgt>
  <wgt id="875">2.55388e-19</wgt>
  <wgt id="876">6.15405e-12</wgt>
  <wgt id="877">3.54789e-12</wgt>
  <wgt id="878">2.6036e-19</wgt>
  <wgt id="879">4.05803e-12</wgt>
  <wgt id="880">4.52718e-12</wgt>
  <wgt id="881">6.09874e-12</wgt>
  <wgt id="882">2.56499e-12</wgt>
  <wgt id="883">5.26251e-12</wgt>
  <wgt id="884">4.44328e-12</wgt>
  <wgt id="885">5.73871e-12</wgt>
  <wgt id="886">4.27293e-12</wgt>
  <wgt id="887">4.5974e-12</wgt>
  <wgt id="888">4.49715e-12</wgt>
  <wgt id="889">4.82534e-12</wgt>
  <wgt id="890">2.35913e-12</wgt>
  <wgt id="891">5.66861e-12</wgt>
  <wgt id="892">7.20121e-12</wgt>
  <wgt id="893">5.65391e-12</wgt>
  <wgt id="894">6.51113e-12</wgt>
  <wgt id="895">2.37693e-12</wgt>
  <wgt id="896">7.82552e-12</wgt>
  <wgt id="897">7.00259e-12</wgt>
  <wgt id="898">1.49378e-12</wgt>
  <wgt id="899">2.0028e-13</wgt>
  <wgt id="900">2.86118e-12</wgt>
  <wgt id="901">5.26198e-13</wgt>
  <wgt id="902">4.01745e-12</wgt>
  <wgt id="903">-2.6772e-13</wgt>
  <wgt id="904">5.29366e-12</wgt>
  <wgt id="905">4.14564e-12</wgt>
  <wgt id="906">7.02276e-12</wgt>
  <wgt id="907">6.87665e-12</wgt>
  <wgt id="908">3.68977e-12</wgt>
  <wgt id="909">-4.192e-13</wgt>
  <wgt id="910">2.74642e-12</wgt>
  <wgt id="911">4.2995e-12</wgt>
  <wgt id="912">3.56142e-12</wgt>
  <wgt id="913">-2.12916e-12</wgt>
  <wgt id="914">5.77135e-12</wgt>
  <wgt id="915">4.5988e-12</wgt>
  <wgt id="916">5.15755e-12</wgt>
  <wgt id="917">1.95822e-12</wgt>
  <wgt id="918">-1.78628e-13</wgt>
  <wgt id="919">2.58644e-12</wgt>
  <wgt id="920">5.20386e-13</wgt>
  <wgt id="921">3.0002e-12</wgt>
  <wgt id="922">5.56018e-13</wgt>
  <wgt id="923">-3.18448e-14</wgt>
  <wgt id="924">-1.67249e-12</wgt>
  <wgt id="925">-4.48147e-12</wgt>
  <wgt id="926">7.57928e-12</wgt>
  <wgt id="927">5.45545e-12</wgt>
  <wgt id="928">5.08247e-12</wgt>
  <wgt id="929">4.96545e-12</wgt>
  <wgt id="930">3.91598e-12</wgt>
  <wgt id="931">7.72864e-12</wgt>
  <wgt id="932">1.60426e-12</wgt>
  <wgt id="933">6.94884e-12</wgt>
  <wgt id="934">4.45178e-12</wgt>
  <wgt id="935">5.57273e-12</wgt>
  <wgt id="936">4.07207e-12</wgt>
  <wgt id="937">5.14584e-12</wgt>
  <wgt id="938">2.21079e-12</wgt>
  <wgt id="939">1.88212e-12</wgt>
  <wgt id="940">5.57486e-14</wgt>
  <wgt id="941">1.56899e-12</wgt>
  <wgt id="942">5.37144e-12</wgt>
  <wgt id="943">5.7091e-12</wgt>
  <wgt id="944">5.88976e-12</wgt>
  <wgt id="945">3.68166e-12</wgt>
  <wgt id="946">4.31105e-12</wgt>
  <wgt id="947">4.33267e-12</wgt>
  <wgt id="948">6.65893e-12</wgt>
  <wgt id="949">7.01847e-12</wgt>
  <wgt id="950">3.49734e-12</wgt>
  <wgt id="951">5.04263e-12</wgt>
  <wgt id="952">6.89027e-12</wgt>
  <wgt id="953">6.92268e-12</wgt>
  <wgt id="954">5.45071e-12</wgt>
  <wgt id="955">2.77636e-12</wgt>
  <wgt id="956">3.13111e-12</wgt>
  <wgt id="957">3.22214e-12</wgt>
  <wgt id="958">1.5271e-12</wgt>
  <wgt id="959">2.05634e-12</wgt>
  <wgt id="960">3.92045e-12</wgt>
  <wgt id="961">5.44751e-12</wgt>
  <wgt id="962">4.46932e-12</wgt>
  <wgt id="963">1.40852e-12</wgt>
  <wgt id="964">7.2952e-12</wgt>
  <wgt id="965">4.50762e-12</wgt>
  <wgt id="966">7.48448e-12</wgt>
  <wgt id="967">6.24156e-12</wgt>
  <wgt id="968">6.06768e-12</wgt>
  <wgt id="969">6.99035e-12</wgt>
  <wgt id="970">6.50689e-12</wgt>
  <wgt id="971">3.89647e-12</wgt>
  <wgt id="972">5.42363e-12</wgt>
  <wgt id="973">-4.50341e-12</wgt>
  <wgt id="974">9.54826e-12</wgt>
  <wgt id="975">4.10686e-12</wgt>
  <wgt id="976">5.02751e-12</wgt>
  <wgt id="977">3.5755e-12</wgt>
  <wgt id="978">6.46661e-12</wgt>
  <wgt id="979">7.38888e-12</wgt>
  <wgt id="980">3.91389e-12</wgt>
  <wgt id="981">5.29963e-12</wgt>
  <wgt id="982">5.17044e-12</wgt>
</rwgt>
</event>
<event>
 5   1  0.3028200E-11  0.2467504E+04  0.7818608E-02  0.7655002E-01
       21   -1    0    0  502  501  0.00000000000E+00  0.00000000000E+00  0.91979529482E+03  0.91979529482E+03  0.00000000000E+00 0.  1.
       21   -1    0    0  501  502 -0.00000000000E+00 -0.00000000000E+00 -0.16548720269E+04  0.16548720269E+04  0.00000000000E+00 0. -1.
       39    2    1    2    0    0  0.00000000000E+00  0.00000000000E+00 -0.73507673210E+03  0.25746673217E+04  0.24675035999E+04 0.  0.
       25    1    3    3    0    0 -0.48824670653E+03  0.10975875028E+04 -0.63034052682E+03  0.13623646180E+04  0.12500000000E+03 0.  0.
       25    1    3    3    0    0  0.48824670653E+03 -0.10975875028E+04 -0.10473620528E+03  0.12123027037E+04  0.12500000000E+03 0.  0.
<mgrwt>
<rscale>  0 0.24675036E+04</rscale>
<asrwt>0</asrwt>
<pdfrwt beam="1">  1       21 0.14150697E+00 0.24675036E+04</pdfrwt>
<pdfrwt beam="2">  1       21 0.25459569E+00 0.24675036E+04</pdfrwt>
<totfact> 0.73767082E+00</totfact>
</mgrwt>
<rwgt>
  <wgt id="1">3.0282e-12</wgt>
  <wgt id="2">2.62403e-12</wgt>
  <wgt id="3">3.53225e-12</wgt>
  <wgt id="4">3.0282e-12</wgt>
  <wgt id="5">2.62403e-12</wgt>
  <wgt id="6">3.53225e-12</wgt>
  <wgt id="7">3.0282e-12</wgt>
  <wgt id="8">2.62403e-12</wgt>
  <wgt id="9">3.53225e-12</wgt>
  <wgt id="10">3.16376e-12</wgt>
  <wgt id="11">3.16134e-12</wgt>
  <wgt id="12">3.15772e-12</wgt>
  <wgt id="13">3.1538e-12</wgt>
  <wgt id="14">3.17541e-12</wgt>
  <wgt id="15">3.16901e-12</wgt>
  <wgt id="16">3.15831e-12</wgt>
  <wgt id="17">3.17254e-12</wgt>
  <wgt id="18">3.15736e-12</wgt>
  <wgt id="19">3.17228e-12</wgt>
  <wgt id="20">3.15636e-12</wgt>
  <wgt id="21">3.14158e-12</wgt>
  <wgt id="22">3.1477e-12</wgt>
  <wgt id="23">3.12877e-12</wgt>
  <wgt id="24">3.14646e-12</wgt>
  <wgt id="25">3.15464e-12</wgt>
  <wgt id="26">3.17542e-12</wgt>
  <wgt id="27">3.16205e-12</wgt>
  <wgt id="28">3.14786e-12</wgt>
  <wgt id="29">3.16602e-12</wgt>
  <wgt id="30">3.15057e-12</wgt>
  <wgt id="31">3.17523e-12</wgt>
  <wgt id="32">3.15515e-12</wgt>
  <wgt id="33">3.17126e-12</wgt>
  <wgt id="34">3.14991e-12</wgt>
  <wgt id="35">3.15804e-12</wgt>
  <wgt id="36">3.17664e-12</wgt>
  <wgt id="37">3.15501e-12</wgt>
  <wgt id="38">3.15298e-12</wgt>
  <wgt id="39">3.20338e-12</wgt>
  <wgt id="40">3.16793e-12</wgt>
  <wgt id="41">3.16221e-12</wgt>
  <wgt id="42">3.1687e-12</wgt>
  <wgt id="43">3.16308e-12</wgt>
  <wgt id="44">3.16131e-12</wgt>
  <wgt id="45">3.17142e-12</wgt>
  <wgt id="46">3.16441e-12</wgt>
  <wgt id="47">3.16326e-12</wgt>
  <wgt id="48">3.16682e-12</wgt>
  <wgt id="49">3.15853e-12</wgt>
  <wgt id="50">3.16713e-12</wgt>
  <wgt id="51">3.16761e-12</wgt>
  <wgt id="52">3.16849e-12</wgt>
  <wgt id="53">3.15102e-12</wgt>
  <wgt id="54">3.16219e-12</wgt>
  <wgt id="55">3.1639e-12</wgt>
  <wgt id="56">3.17272e-12</wgt>
  <wgt id="57">3.16772e-12</wgt>
  <wgt id="58">3.1486e-12</wgt>
  <wgt id="59">3.15605e-12</wgt>
  <wgt id="60">3.16131e-12</wgt>
  <wgt id="61">3.14647e-12</wgt>
  <wgt id="62">3.15585e-12</wgt>
  <wgt id="63">3.16154e-12</wgt>
  <wgt id="64">3.16466e-12</wgt>
  <wgt id="65">3.16598e-12</wgt>
  <wgt id="66">3.16002e-12</wgt>
  <wgt id="67">3.15069e-12</wgt>
  <wgt id="68">3.16193e-12</wgt>
  <wgt id="69">3.16326e-12</wgt>
  <wgt id="70">3.16279e-12</wgt>
  <wgt id="71">3.16133e-12</wgt>
  <wgt id="72">3.15385e-12</wgt>
  <wgt id="73">3.16996e-12</wgt>
  <wgt id="74">3.16667e-12</wgt>
  <wgt id="75">3.16172e-12</wgt>
  <wgt id="76">3.17483e-12</wgt>
  <wgt id="77">3.16163e-12</wgt>
  <wgt id="78">3.16208e-12</wgt>
  <wgt id="79">3.17248e-12</wgt>
  <wgt id="80">3.14763e-12</wgt>
  <wgt id="81">3.16266e-12</wgt>
  <wgt id="82">3.1643e-12</wgt>
  <wgt id="83">3.14984e-12</wgt>
  <wgt id="84">3.15871e-12</wgt>
  <wgt id="85">3.15553e-12</wgt>
  <wgt id="86">3.17403e-12</wgt>
  <wgt id="87">3.14399e-12</wgt>
  <wgt id="88">3.1678e-12</wgt>
  <wgt id="89">3.1664e-12</wgt>
  <wgt id="90">3.17244e-12</wgt>
  <wgt id="91">3.16724e-12</wgt>
  <wgt id="92">3.17072e-12</wgt>
  <wgt id="93">3.16682e-12</wgt>
  <wgt id="94">3.16012e-12</wgt>
  <wgt id="95">3.17143e-12</wgt>
  <wgt id="96">3.16739e-12</wgt>
  <wgt id="97">3.15591e-12</wgt>
  <wgt id="98">3.16523e-12</wgt>
  <wgt id="99">3.15678e-12</wgt>
  <wgt id="100">3.16967e-12</wgt>
  <wgt id="101">3.16483e-12</wgt>
  <wgt id="102">3.16162e-12</wgt>
  <wgt id="103">3.16969e-12</wgt>
  <wgt id="104">3.16139e-12</wgt>
  <wgt id="105">3.169e-12</wgt>
  <wgt id="106">3.15796e-12</wgt>
  <wgt id="107">3.17572e-12</wgt>
  <wgt id="108">3.15903e-12</wgt>
  <wgt id="109">3.16588e-12</wgt>
  <wgt id="110">3.16336e-12</wgt>
  <wgt id="111">3.18728e-12</wgt>
  <wgt id="112">3.17659e-12</wgt>
  <wgt id="113">4.39884e-12</wgt>
  <wgt id="114">4.4078e-12</wgt>
  <wgt id="115">4.34039e-12</wgt>
  <wgt id="116">6.184e-12</wgt>
  <wgt id="117">3.55155e-12</wgt>
  <wgt id="118">3.56499e-12</wgt>
  <wgt id="119">3.54389e-12</wgt>
  <wgt id="120">3.55178e-12</wgt>
  <wgt id="121">3.55139e-12</wgt>
  <wgt id="122">3.54554e-12</wgt>
  <wgt id="123">3.55975e-12</wgt>
  <wgt id="124">3.54667e-12</wgt>
  <wgt id="125">3.55467e-12</wgt>
  <wgt id="126">3.55813e-12</wgt>
  <wgt id="127">3.54719e-12</wgt>
  <wgt id="128">3.56256e-12</wgt>
  <wgt id="129">3.54058e-12</wgt>
  <wgt id="130">3.57176e-12</wgt>
  <wgt id="131">3.53081e-12</wgt>
  <wgt id="132">3.45543e-12</wgt>
  <wgt id="133">3.66589e-12</wgt>
  <wgt id="134">3.51197e-12</wgt>
  <wgt id="135">3.58255e-12</wgt>
  <wgt id="136">3.60131e-12</wgt>
  <wgt id="137">3.49154e-12</wgt>
  <wgt id="138">3.70083e-12</wgt>
  <wgt id="139">3.40844e-12</wgt>
  <wgt id="140">3.53011e-12</wgt>
  <wgt id="141">3.56822e-12</wgt>
  <wgt id="142">3.55165e-12</wgt>
  <wgt id="143">3.55869e-12</wgt>
  <wgt id="144">3.43055e-12</wgt>
  <wgt id="145">3.66616e-12</wgt>
  <wgt id="146">3.59034e-12</wgt>
  <wgt id="147">3.52053e-12</wgt>
  <wgt id="148">3.56365e-12</wgt>
  <wgt id="149">3.55067e-12</wgt>
  <wgt id="150">3.5828e-12</wgt>
  <wgt id="151">3.53692e-12</wgt>
  <wgt id="152">3.55318e-12</wgt>
  <wgt id="153">3.55097e-12</wgt>
  <wgt id="154">3.57326e-12</wgt>
  <wgt id="155">3.52347e-12</wgt>
  <wgt id="156">3.64268e-12</wgt>
  <wgt id="157">3.46231e-12</wgt>
  <wgt id="158">4.26788e-12</wgt>
  <wgt id="159">4.28568e-12</wgt>
  <wgt id="160">4.25333e-12</wgt>
  <wgt id="161">4.25634e-12</wgt>
  <wgt id="162">4.28027e-12</wgt>
  <wgt id="163">4.2626e-12</wgt>
  <wgt id="164">4.27493e-12</wgt>
  <wgt id="165">4.26912e-12</wgt>
  <wgt id="166">4.2664e-12</wgt>
  <wgt id="167">4.26477e-12</wgt>
  <wgt id="168">4.27202e-12</wgt>
  <wgt id="169">4.24977e-12</wgt>
  <wgt id="170">4.27897e-12</wgt>
  <wgt id="171">4.26287e-12</wgt>
  <wgt id="172">4.27417e-12</wgt>
  <wgt id="173">4.26485e-12</wgt>
  <wgt id="174">4.26861e-12</wgt>
  <wgt id="175">4.14255e-12</wgt>
  <wgt id="176">4.4311e-12</wgt>
  <wgt id="177">4.29114e-12</wgt>
  <wgt id="178">4.2464e-12</wgt>
  <wgt id="179">4.46439e-12</wgt>
  <wgt id="180">3.96013e-12</wgt>
  <wgt id="181">4.13384e-12</wgt>
  <wgt id="182">4.35668e-12</wgt>
  <wgt id="183">4.18624e-12</wgt>
  <wgt id="184">4.30811e-12</wgt>
  <wgt id="185">4.22849e-12</wgt>
  <wgt id="186">4.31596e-12</wgt>
  <wgt id="187">4.22586e-12</wgt>
  <wgt id="188">4.34285e-12</wgt>
  <wgt id="189">4.23714e-12</wgt>
  <wgt id="190">4.28019e-12</wgt>
  <wgt id="191">4.28076e-12</wgt>
  <wgt id="192">4.25981e-12</wgt>
  <wgt id="193">4.33419e-12</wgt>
  <wgt id="194">4.23469e-12</wgt>
  <wgt id="195">4.13743e-12</wgt>
  <wgt id="196">4.48797e-12</wgt>
  <wgt id="197">4.29048e-12</wgt>
  <wgt id="198">4.26232e-12</wgt>
  <wgt id="199">4.26788e-12</wgt>
  <wgt id="200">4.30678e-12</wgt>
  <wgt id="201">4.29273e-12</wgt>
  <wgt id="202">4.27954e-12</wgt>
  <wgt id="203">4.25928e-12</wgt>
  <wgt id="204">4.24978e-12</wgt>
  <wgt id="205">4.24167e-12</wgt>
  <wgt id="206">4.13604e-12</wgt>
  <wgt id="207">4.16064e-12</wgt>
  <wgt id="208">4.11177e-12</wgt>
  <wgt id="209">4.14991e-12</wgt>
  <wgt id="210">4.12595e-12</wgt>
  <wgt id="211">4.1344e-12</wgt>
  <wgt id="212">4.13734e-12</wgt>
  <wgt id="213">4.1357e-12</wgt>
  <wgt id="214">4.13664e-12</wgt>
  <wgt id="215">4.1394e-12</wgt>
  <wgt id="216">4.13363e-12</wgt>
  <wgt id="217">4.14779e-12</wgt>
  <wgt id="218">4.12702e-12</wgt>
  <wgt id="219">4.13238e-12</wgt>
  <wgt id="220">4.13831e-12</wgt>
  <wgt id="221">4.13515e-12</wgt>
  <wgt id="222">4.13777e-12</wgt>
  <wgt id="223">3.90684e-12</wgt>
  <wgt id="224">4.34571e-12</wgt>
  <wgt id="225">4.08391e-12</wgt>
  <wgt id="226">4.20198e-12</wgt>
  <wgt id="227">4.09559e-12</wgt>
  <wgt id="228">4.15388e-12</wgt>
  <wgt id="229">4.07668e-12</wgt>
  <wgt id="230">4.16559e-12</wgt>
  <wgt id="231">4.26354e-12</wgt>
  <wgt id="232">4.03158e-12</wgt>
  <wgt id="233">4.11267e-12</wgt>
  <wgt id="234">4.17431e-12</wgt>
  <wgt id="235">4.02005e-12</wgt>
  <wgt id="236">4.23631e-12</wgt>
  <wgt id="237">4.06313e-12</wgt>
  <wgt id="238">4.1605e-12</wgt>
  <wgt id="239">4.10552e-12</wgt>
  <wgt id="240">4.19099e-12</wgt>
  <wgt id="241">4.0902e-12</wgt>
  <wgt id="242">4.19122e-12</wgt>
  <wgt id="243">4.19972e-12</wgt>
  <wgt id="244">4.14913e-12</wgt>
  <wgt id="245">4.13374e-12</wgt>
  <wgt id="246">4.16385e-12</wgt>
  <wgt id="247">4.13604e-12</wgt>
  <wgt id="248">4.17496e-12</wgt>
  <wgt id="249">4.16081e-12</wgt>
  <wgt id="250">4.14683e-12</wgt>
  <wgt id="251">4.12662e-12</wgt>
  <wgt id="252">4.11696e-12</wgt>
  <wgt id="253">4.11008e-12</wgt>
  <wgt id="254">4.03574e-12</wgt>
  <wgt id="255">4.03971e-12</wgt>
  <wgt id="256">4.0316e-12</wgt>
  <wgt id="257">4.03881e-12</wgt>
  <wgt id="258">4.03358e-12</wgt>
  <wgt id="259">4.06291e-12</wgt>
  <wgt id="260">4.00961e-12</wgt>
  <wgt id="261">4.04278e-12</wgt>
  <wgt id="262">4.02747e-12</wgt>
  <wgt id="263">4.03343e-12</wgt>
  <wgt id="264">4.03851e-12</wgt>
  <wgt id="265">4.03065e-12</wgt>
  <wgt id="266">4.04602e-12</wgt>
  <wgt id="267">4.03721e-12</wgt>
  <wgt id="268">4.03382e-12</wgt>
  <wgt id="269">4.04948e-12</wgt>
  <wgt id="270">4.02646e-12</wgt>
  <wgt id="271">4.02779e-12</wgt>
  <wgt id="272">4.04462e-12</wgt>
  <wgt id="273">4.02341e-12</wgt>
  <wgt id="274">4.04529e-12</wgt>
  <wgt id="275">4.01621e-12</wgt>
  <wgt id="276">4.05599e-12</wgt>
  <wgt id="277">4.0119e-12</wgt>
  <wgt id="278">4.0576e-12</wgt>
  <wgt id="279">3.95606e-12</wgt>
  <wgt id="280">4.13599e-12</wgt>
  <wgt id="281">4.01689e-12</wgt>
  <wgt id="282">4.03801e-12</wgt>
  <wgt id="283">3.91232e-12</wgt>
  <wgt id="284">4.1884e-12</wgt>
  <wgt id="285">3.83198e-12</wgt>
  <wgt id="286">4.20567e-12</wgt>
  <wgt id="287">4.04922e-12</wgt>
  <wgt id="288">4.01863e-12</wgt>
  <wgt id="289">4.06606e-12</wgt>
  <wgt id="290">3.96655e-12</wgt>
  <wgt id="291">4.02278e-12</wgt>
  <wgt id="292">4.03805e-12</wgt>
  <wgt id="293">4.00271e-12</wgt>
  <wgt id="294">4.06872e-12</wgt>
  <wgt id="295">3.95523e-12</wgt>
  <wgt id="296">4.13427e-12</wgt>
  <wgt id="297">4.03202e-12</wgt>
  <wgt id="298">4.05373e-12</wgt>
  <wgt id="299">4.02217e-12</wgt>
  <wgt id="300">4.07206e-12</wgt>
  <wgt id="301">3.96692e-12</wgt>
  <wgt id="302">4.20062e-12</wgt>
  <wgt id="303">3.99898e-12</wgt>
  <wgt id="304">4.05672e-12</wgt>
  <wgt id="305">4.03283e-12</wgt>
  <wgt id="306">4.03686e-12</wgt>
  <wgt id="307">4.0285e-12</wgt>
  <wgt id="308">4.03612e-12</wgt>
  <wgt id="309">4.0306e-12</wgt>
  <wgt id="310">4.06083e-12</wgt>
  <wgt id="311">4.0069e-12</wgt>
  <wgt id="312">4.03875e-12</wgt>
  <wgt id="313">4.02655e-12</wgt>
  <wgt id="314">4.03047e-12</wgt>
  <wgt id="315">4.03506e-12</wgt>
  <wgt id="316">4.02788e-12</wgt>
  <wgt id="317">4.04365e-12</wgt>
  <wgt id="318">4.03596e-12</wgt>
  <wgt id="319">4.02739e-12</wgt>
  <wgt id="320">4.04735e-12</wgt>
  <wgt id="321">4.02478e-12</wgt>
  <wgt id="322">4.02312e-12</wgt>
  <wgt id="323">4.04414e-12</wgt>
  <wgt id="324">4.02259e-12</wgt>
  <wgt id="325">4.04173e-12</wgt>
  <wgt id="326">4.01711e-12</wgt>
  <wgt id="327">4.05303e-12</wgt>
  <wgt id="328">4.01167e-12</wgt>
  <wgt id="329">4.04465e-12</wgt>
  <wgt id="330">4.15432e-12</wgt>
  <wgt id="331">3.91712e-12</wgt>
  <wgt id="332">4.0171e-12</wgt>
  <wgt id="333">4.0339e-12</wgt>
  <wgt id="334">3.93671e-12</wgt>
  <wgt id="335">4.15257e-12</wgt>
  <wgt id="336">3.88577e-12</wgt>
  <wgt id="337">4.213e-12</wgt>
  <wgt id="338">4.08e-12</wgt>
  <wgt id="339">3.98916e-12</wgt>
  <wgt id="340">4.06105e-12</wgt>
  <wgt id="341">3.96126e-12</wgt>
  <wgt id="342">4.02337e-12</wgt>
  <wgt id="343">4.02799e-12</wgt>
  <wgt id="344">4.00305e-12</wgt>
  <wgt id="345">4.06739e-12</wgt>
  <wgt id="346">3.94935e-12</wgt>
  <wgt id="347">4.1289e-12</wgt>
  <wgt id="348">4.03027e-12</wgt>
  <wgt id="349">4.04837e-12</wgt>
  <wgt id="350">4.01577e-12</wgt>
  <wgt id="351">4.07611e-12</wgt>
  <wgt id="352">3.95854e-12</wgt>
  <wgt id="353">4.20139e-12</wgt>
  <wgt id="354">3.97758e-12</wgt>
  <wgt id="355">4.06607e-12</wgt>
  <wgt id="356">4.03574e-12</wgt>
  <wgt id="357">4.04513e-12</wgt>
  <wgt id="358">4.03283e-12</wgt>
  <wgt id="359">4.0454e-12</wgt>
  <wgt id="360">4.07722e-12</wgt>
  <wgt id="361">4.05161e-12</wgt>
  <wgt id="362">4.12709e-12</wgt>
  <wgt id="363">4.11671e-12</wgt>
  <wgt id="364">4.1002e-12</wgt>
  <wgt id="365">4.0855e-12</wgt>
  <wgt id="366">4.06954e-12</wgt>
  <wgt id="367">4.03741e-12</wgt>
  <wgt id="368">4.01896e-12</wgt>
  <wgt id="369">3.99915e-12</wgt>
  <wgt id="370">4.05161e-12</wgt>
  <wgt id="371">4.06952e-12</wgt>
  <wgt id="372">4.05964e-12</wgt>
  <wgt id="373">4.04501e-12</wgt>
  <wgt id="374">4.04567e-12</wgt>
  <wgt id="375">4.41546e-12</wgt>
  <wgt id="376">4.41611e-12</wgt>
  <wgt id="377">4.41483e-12</wgt>
  <wgt id="378">4.43191e-12</wgt>
  <wgt id="379">4.39952e-12</wgt>
  <wgt id="380">4.42746e-12</wgt>
  <wgt id="381">4.41092e-12</wgt>
  <wgt id="382">4.43923e-12</wgt>
  <wgt id="383">4.39224e-12</wgt>
  <wgt id="384">4.41847e-12</wgt>
  <wgt id="385">4.4126e-12</wgt>
  <wgt id="386">4.43348e-12</wgt>
  <wgt id="387">4.40804e-12</wgt>
  <wgt id="388">4.41124e-12</wgt>
  <wgt id="389">4.42096e-12</wgt>
  <wgt id="390">4.42771e-12</wgt>
  <wgt id="391">4.4029e-12</wgt>
  <wgt id="392">4.378e-12</wgt>
  <wgt id="393">4.43715e-12</wgt>
  <wgt id="394">4.42115e-12</wgt>
  <wgt id="395">4.4082e-12</wgt>
  <wgt id="396">4.42071e-12</wgt>
  <wgt id="397">4.41211e-12</wgt>
  <wgt id="398">4.39811e-12</wgt>
  <wgt id="399">4.43257e-12</wgt>
  <wgt id="400">4.40793e-12</wgt>
  <wgt id="401">4.43325e-12</wgt>
  <wgt id="402">4.37687e-12</wgt>
  <wgt id="403">4.43508e-12</wgt>
  <wgt id="404">4.52796e-12</wgt>
  <wgt id="405">4.14602e-12</wgt>
  <wgt id="406">4.33528e-12</wgt>
  <wgt id="407">4.59184e-12</wgt>
  <wgt id="408">4.45722e-12</wgt>
  <wgt id="409">4.33686e-12</wgt>
  <wgt id="410">4.28423e-12</wgt>
  <wgt id="411">4.47731e-12</wgt>
  <wgt id="412">4.40693e-12</wgt>
  <wgt id="413">4.42914e-12</wgt>
  <wgt id="414">4.36302e-12</wgt>
  <wgt id="415">4.45636e-12</wgt>
  <wgt id="416">4.54688e-12</wgt>
  <wgt id="417">4.23452e-12</wgt>
  <wgt id="418">4.42238e-12</wgt>
  <wgt id="419">4.37861e-12</wgt>
  <wgt id="420">4.49969e-12</wgt>
  <wgt id="421">4.36369e-12</wgt>
  <wgt id="422">4.40125e-12</wgt>
  <wgt id="423">4.42304e-12</wgt>
  <wgt id="424">4.52271e-12</wgt>
  <wgt id="425">4.34599e-12</wgt>
  <wgt id="426">4.41546e-12</wgt>
  <wgt id="427">4.36072e-12</wgt>
  <wgt id="428">4.56116e-12</wgt>
  <wgt id="429">4.46339e-12</wgt>
  <wgt id="430">4.59744e-12</wgt>
  <wgt id="431">4.57069e-12</wgt>
  <wgt id="432">4.54553e-12</wgt>
  <wgt id="433">4.5211e-12</wgt>
  <wgt id="434">4.49095e-12</wgt>
  <wgt id="435">4.42922e-12</wgt>
  <wgt id="436">4.39801e-12</wgt>
  <wgt id="437">4.36773e-12</wgt>
  <wgt id="438">4.46339e-12</wgt>
  <wgt id="439">4.4779e-12</wgt>
  <wgt id="440">4.46909e-12</wgt>
  <wgt id="441">4.45908e-12</wgt>
  <wgt id="442">4.45573e-12</wgt>
  <wgt id="443">4.23259e-12</wgt>
  <wgt id="444">4.26342e-12</wgt>
  <wgt id="445">4.2295e-12</wgt>
  <wgt id="446">4.20338e-12</wgt>
  <wgt id="447">4.22211e-12</wgt>
  <wgt id="448">4.11823e-12</wgt>
  <wgt id="449">4.30572e-12</wgt>
  <wgt id="450">4.23643e-12</wgt>
  <wgt id="451">4.22361e-12</wgt>
  <wgt id="452">4.33274e-12</wgt>
  <wgt id="453">4.27771e-12</wgt>
  <wgt id="454">4.04599e-12</wgt>
  <wgt id="455">4.24558e-12</wgt>
  <wgt id="456">4.23332e-12</wgt>
  <wgt id="457">4.25051e-12</wgt>
  <wgt id="458">4.28993e-12</wgt>
  <wgt id="459">4.26548e-12</wgt>
  <wgt id="460">4.27223e-12</wgt>
  <wgt id="461">4.14261e-12</wgt>
  <wgt id="462">4.19634e-12</wgt>
  <wgt id="463">4.17769e-12</wgt>
  <wgt id="464">4.20779e-12</wgt>
  <wgt id="465">4.28122e-12</wgt>
  <wgt id="466">4.16845e-12</wgt>
  <wgt id="467">4.19021e-12</wgt>
  <wgt id="468">4.22176e-12</wgt>
  <wgt id="469">4.22015e-12</wgt>
  <wgt id="470">4.18572e-12</wgt>
  <wgt id="471">4.18877e-12</wgt>
  <wgt id="472">4.25559e-12</wgt>
  <wgt id="473">4.08534e-12</wgt>
  <wgt id="474">3.0282e-12</wgt>
  <wgt id="475">3.1433e-12</wgt>
  <wgt id="476">2.97577e-12</wgt>
  <wgt id="477">2.96127e-12</wgt>
  <wgt id="478">3.04855e-12</wgt>
  <wgt id="479">2.94481e-12</wgt>
  <wgt id="480">3.15777e-12</wgt>
  <wgt id="481">3.00545e-12</wgt>
  <wgt id="482">2.95971e-12</wgt>
  <wgt id="483">2.95924e-12</wgt>
  <wgt id="484">3.1651e-12</wgt>
  <wgt id="485">2.95446e-12</wgt>
  <wgt id="486">3.15089e-12</wgt>
  <wgt id="487">3.05563e-12</wgt>
  <wgt id="488">3.08029e-12</wgt>
  <wgt id="489">2.87274e-12</wgt>
  <wgt id="490">2.90686e-12</wgt>
  <wgt id="491">2.9996e-12</wgt>
  <wgt id="492">2.95557e-12</wgt>
  <wgt id="493">2.88807e-12</wgt>
  <wgt id="494">2.91453e-12</wgt>
  <wgt id="495">3.07242e-12</wgt>
  <wgt id="496">2.92422e-12</wgt>
  <wgt id="497">2.88692e-12</wgt>
  <wgt id="498">3.09959e-12</wgt>
  <wgt id="499">2.98474e-12</wgt>
  <wgt id="500">2.96999e-12</wgt>
  <wgt id="501">3.1682e-12</wgt>
  <wgt id="502">3.00574e-12</wgt>
  <wgt id="503">3.02092e-12</wgt>
  <wgt id="504">3.09037e-12</wgt>
  <wgt id="505">3.04519e-12</wgt>
  <wgt id="506">3.00909e-12</wgt>
  <wgt id="507">3.01934e-12</wgt>
  <wgt id="508">3.11394e-12</wgt>
  <wgt id="509">2.87532e-12</wgt>
  <wgt id="510">3.11217e-12</wgt>
  <wgt id="511">2.94281e-12</wgt>
  <wgt id="512">3.12484e-12</wgt>
  <wgt id="513">3.17058e-12</wgt>
  <wgt id="514">3.06008e-12</wgt>
  <wgt id="515">3.01515e-12</wgt>
  <wgt id="516">3.1863e-12</wgt>
  <wgt id="517">3.09592e-12</wgt>
  <wgt id="518">3.1061e-12</wgt>
  <wgt id="519">2.92581e-12</wgt>
  <wgt id="520">3.08414e-12</wgt>
  <wgt id="521">3.0916e-12</wgt>
  <wgt id="522">3.15809e-12</wgt>
  <wgt id="523">3.02663e-12</wgt>
  <wgt id="524">3.04223e-12</wgt>
  <wgt id="525">3.10842e-12</wgt>
  <wgt id="526">3.08399e-12</wgt>
  <wgt id="527">3.0479e-12</wgt>
  <wgt id="528">3.05232e-12</wgt>
  <wgt id="529">2.9634e-12</wgt>
  <wgt id="530">3.10441e-12</wgt>
  <wgt id="531">2.97399e-12</wgt>
  <wgt id="532">3.23313e-12</wgt>
  <wgt id="533">2.89298e-12</wgt>
  <wgt id="534">3.015e-12</wgt>
  <wgt id="535">3.05179e-12</wgt>
  <wgt id="536">3.02772e-12</wgt>
  <wgt id="537">3.00233e-12</wgt>
  <wgt id="538">3.04516e-12</wgt>
  <wgt id="539">2.97171e-12</wgt>
  <wgt id="540">3.02463e-12</wgt>
  <wgt id="541">2.94182e-12</wgt>
  <wgt id="542">2.9915e-12</wgt>
  <wgt id="543">3.0015e-12</wgt>
  <wgt id="544">3.14965e-12</wgt>
  <wgt id="545">2.96016e-12</wgt>
  <wgt id="546">2.93361e-12</wgt>
  <wgt id="547">2.94176e-12</wgt>
  <wgt id="548">2.90567e-12</wgt>
  <wgt id="549">2.97176e-12</wgt>
  <wgt id="550">2.96899e-12</wgt>
  <wgt id="551">3.06149e-12</wgt>
  <wgt id="552">2.92906e-12</wgt>
  <wgt id="553">2.98028e-12</wgt>
  <wgt id="554">3.23837e-12</wgt>
  <wgt id="555">3.1063e-12</wgt>
  <wgt id="556">2.90686e-12</wgt>
  <wgt id="557">3.09982e-12</wgt>
  <wgt id="558">2.95231e-12</wgt>
  <wgt id="559">2.97289e-12</wgt>
  <wgt id="560">3.32489e-12</wgt>
  <wgt id="561">3.00485e-12</wgt>
  <wgt id="562">3.10757e-12</wgt>
  <wgt id="563">3.0517e-12</wgt>
  <wgt id="564">3.09142e-12</wgt>
  <wgt id="565">2.95561e-12</wgt>
  <wgt id="566">3.05866e-12</wgt>
  <wgt id="567">3.00055e-12</wgt>
  <wgt id="568">2.99466e-12</wgt>
  <wgt id="569">3.07541e-12</wgt>
  <wgt id="570">2.90081e-12</wgt>
  <wgt id="571">3.36186e-12</wgt>
  <wgt id="572">2.95787e-12</wgt>
  <wgt id="573">2.91415e-12</wgt>
  <wgt id="574">2.9304e-12</wgt>
  <wgt id="575">3.35302e-12</wgt>
  <wgt id="576">3.42175e-12</wgt>
  <wgt id="577">3.44314e-12</wgt>
  <wgt id="578">3.45237e-12</wgt>
  <wgt id="579">3.44694e-12</wgt>
  <wgt id="580">3.4744e-12</wgt>
  <wgt id="581">3.62003e-12</wgt>
  <wgt id="582">3.40452e-12</wgt>
  <wgt id="583">3.3921e-12</wgt>
  <wgt id="584">3.34431e-12</wgt>
  <wgt id="585">3.28788e-12</wgt>
  <wgt id="586">3.24041e-12</wgt>
  <wgt id="587">3.40765e-12</wgt>
  <wgt id="588">3.40293e-12</wgt>
  <wgt id="589">3.49106e-12</wgt>
  <wgt id="590">3.37709e-12</wgt>
  <wgt id="591">3.46779e-12</wgt>
  <wgt id="592">3.18715e-12</wgt>
  <wgt id="593">3.31676e-12</wgt>
  <wgt id="594">3.39709e-12</wgt>
  <wgt id="595">3.38548e-12</wgt>
  <wgt id="596">3.50336e-12</wgt>
  <wgt id="597">3.30409e-12</wgt>
  <wgt id="598">3.23067e-12</wgt>
  <wgt id="599">3.5174e-12</wgt>
  <wgt id="600">3.3716e-12</wgt>
  <wgt id="601">3.2468e-12</wgt>
  <wgt id="602">3.25747e-12</wgt>
  <wgt id="603">3.24443e-12</wgt>
  <wgt id="604">3.4107e-12</wgt>
  <wgt id="605">3.46502e-12</wgt>
  <wgt id="606">3.33325e-12</wgt>
  <wgt id="607">3.36231e-12</wgt>
  <wgt id="608">3.42548e-12</wgt>
  <wgt id="609">3.21718e-12</wgt>
  <wgt id="610">3.23126e-12</wgt>
  <wgt id="611">3.32924e-12</wgt>
  <wgt id="612">3.57014e-12</wgt>
  <wgt id="613">3.29514e-12</wgt>
  <wgt id="614">3.37371e-12</wgt>
  <wgt id="615">3.31403e-12</wgt>
  <wgt id="616">3.44801e-12</wgt>
  <wgt id="617">3.48508e-12</wgt>
  <wgt id="618">3.54777e-12</wgt>
  <wgt id="619">3.29627e-12</wgt>
  <wgt id="620">3.49811e-12</wgt>
  <wgt id="621">3.36419e-12</wgt>
  <wgt id="622">3.40765e-12</wgt>
  <wgt id="623">3.43191e-12</wgt>
  <wgt id="624">3.36272e-12</wgt>
  <wgt id="625">3.27714e-12</wgt>
  <wgt id="626">3.20007e-12</wgt>
  <wgt id="627">3.16772e-12</wgt>
  <wgt id="628">3.49215e-12</wgt>
  <wgt id="629">3.3012e-12</wgt>
  <wgt id="630">3.24731e-12</wgt>
  <wgt id="631">3.38962e-12</wgt>
  <wgt id="632">3.16847e-12</wgt>
  <wgt id="633">3.32697e-12</wgt>
  <wgt id="634">3.29521e-12</wgt>
  <wgt id="635">3.19241e-12</wgt>
  <wgt id="636">3.38576e-12</wgt>
  <wgt id="637">3.3514e-12</wgt>
  <wgt id="638">3.21886e-12</wgt>
  <wgt id="639">3.28086e-12</wgt>
  <wgt id="640">3.33436e-12</wgt>
  <wgt id="641">3.42314e-12</wgt>
  <wgt id="642">3.27212e-12</wgt>
  <wgt id="643">3.31443e-12</wgt>
  <wgt id="644">3.11627e-12</wgt>
  <wgt id="645">3.37568e-12</wgt>
  <wgt id="646">3.30838e-12</wgt>
  <wgt id="647">3.32836e-12</wgt>
  <wgt id="648">3.41108e-12</wgt>
  <wgt id="649">3.39018e-12</wgt>
  <wgt id="650">3.25262e-12</wgt>
  <wgt id="651">3.43928e-12</wgt>
  <wgt id="652">3.2904e-12</wgt>
  <wgt id="653">3.24759e-12</wgt>
  <wgt id="654">3.32273e-12</wgt>
  <wgt id="655">3.28884e-12</wgt>
  <wgt id="656">3.37085e-12</wgt>
  <wgt id="657">3.5544e-12</wgt>
  <wgt id="658">3.3695e-12</wgt>
  <wgt id="659">3.21769e-12</wgt>
  <wgt id="660">3.37461e-12</wgt>
  <wgt id="661">3.29009e-12</wgt>
  <wgt id="662">3.32999e-12</wgt>
  <wgt id="663">3.37264e-12</wgt>
  <wgt id="664">3.32612e-12</wgt>
  <wgt id="665">3.34166e-12</wgt>
  <wgt id="666">3.30538e-12</wgt>
  <wgt id="667">3.48105e-12</wgt>
  <wgt id="668">3.34679e-12</wgt>
  <wgt id="669">3.41338e-12</wgt>
  <wgt id="670">3.4593e-12</wgt>
  <wgt id="671">3.3455e-12</wgt>
  <wgt id="672">3.21382e-12</wgt>
  <wgt id="673">3.42146e-12</wgt>
  <wgt id="674">3.27797e-12</wgt>
  <wgt id="675">3.29716e-12</wgt>
  <wgt id="676">4.29318e-12</wgt>
  <wgt id="677">4.33857e-12</wgt>
  <wgt id="678">4.55852e-12</wgt>
  <wgt id="679">4.07343e-12</wgt>
  <wgt id="680">4.24984e-12</wgt>
  <wgt id="681">4.32177e-12</wgt>
  <wgt id="682">4.45757e-12</wgt>
  <wgt id="683">4.16769e-12</wgt>
  <wgt id="684">4.49525e-12</wgt>
  <wgt id="685">4.13161e-12</wgt>
  <wgt id="686">4.17133e-12</wgt>
  <wgt id="687">4.50367e-12</wgt>
  <wgt id="688">4.22213e-12</wgt>
  <wgt id="689">4.6083e-12</wgt>
  <wgt id="690">4.4714e-12</wgt>
  <wgt id="691">4.50087e-12</wgt>
  <wgt id="692">4.22424e-12</wgt>
  <wgt id="693">5.24187e-12</wgt>
  <wgt id="694">4.60467e-12</wgt>
  <wgt id="695">4.13103e-12</wgt>
  <wgt id="696">4.08241e-12</wgt>
  <wgt id="697">4.08291e-12</wgt>
  <wgt id="698">3.80237e-12</wgt>
  <wgt id="699">3.79954e-12</wgt>
  <wgt id="700">3.73031e-12</wgt>
  <wgt id="701">4.30522e-12</wgt>
  <wgt id="702">4.18644e-12</wgt>
  <wgt id="703">5.05179e-12</wgt>
  <wgt id="704">4.76877e-12</wgt>
  <wgt id="705">4.61076e-12</wgt>
  <wgt id="706">4.01349e-12</wgt>
  <wgt id="707">4.09139e-12</wgt>
  <wgt id="708">4.21121e-12</wgt>
  <wgt id="709">4.20293e-12</wgt>
  <wgt id="710">3.84285e-12</wgt>
  <wgt id="711">4.30443e-12</wgt>
  <wgt id="712">4.15411e-12</wgt>
  <wgt id="713">4.64864e-12</wgt>
  <wgt id="714">4.11054e-12</wgt>
  <wgt id="715">4.2067e-12</wgt>
  <wgt id="716">4.13787e-12</wgt>
  <wgt id="717">3.97833e-12</wgt>
  <wgt id="718">4.33274e-12</wgt>
  <wgt id="719">3.87995e-12</wgt>
  <wgt id="720">4.1207e-12</wgt>
  <wgt id="721">3.81505e-12</wgt>
  <wgt id="722">3.67037e-12</wgt>
  <wgt id="723">4.65744e-12</wgt>
  <wgt id="724">4.55219e-12</wgt>
  <wgt id="725">4.51686e-12</wgt>
  <wgt id="726">4.3146e-12</wgt>
  <wgt id="727">4.22343e-12</wgt>
  <wgt id="728">4.16477e-12</wgt>
  <wgt id="729">4.04341e-12</wgt>
  <wgt id="730">4.69661e-12</wgt>
  <wgt id="731">4.22616e-12</wgt>
  <wgt id="732">4.81367e-12</wgt>
  <wgt id="733">4.1954e-12</wgt>
  <wgt id="734">4.41149e-12</wgt>
  <wgt id="735">4.29991e-12</wgt>
  <wgt id="736">4.13771e-12</wgt>
  <wgt id="737">4.30493e-12</wgt>
  <wgt id="738">4.06686e-12</wgt>
  <wgt id="739">4.4883e-12</wgt>
  <wgt id="740">4.85959e-12</wgt>
  <wgt id="741">3.96436e-12</wgt>
  <wgt id="742">4.23247e-12</wgt>
  <wgt id="743">4.01558e-12</wgt>
  <wgt id="744">4.2076e-12</wgt>
  <wgt id="745">4.55445e-12</wgt>
  <wgt id="746">4.65648e-12</wgt>
  <wgt id="747">3.76747e-12</wgt>
  <wgt id="748">4.21862e-12</wgt>
  <wgt id="749">4.49428e-12</wgt>
  <wgt id="750">4.48788e-12</wgt>
  <wgt id="751">4.38772e-12</wgt>
  <wgt id="752">3.90321e-12</wgt>
  <wgt id="753">4.00291e-12</wgt>
  <wgt id="754">4.49636e-12</wgt>
  <wgt id="755">4.27714e-12</wgt>
  <wgt id="756">4.27678e-12</wgt>
  <wgt id="757">3.87562e-12</wgt>
  <wgt id="758">4.27957e-12</wgt>
  <wgt id="759">4.5432e-12</wgt>
  <wgt id="760">4.27667e-12</wgt>
  <wgt id="761">4.58156e-12</wgt>
  <wgt id="762">4.61643e-12</wgt>
  <wgt id="763">4.2829e-12</wgt>
  <wgt id="764">4.50236e-12</wgt>
  <wgt id="765">4.34991e-12</wgt>
  <wgt id="766">4.30448e-12</wgt>
  <wgt id="767">4.3994e-12</wgt>
  <wgt id="768">3.99888e-12</wgt>
  <wgt id="769">4.56276e-12</wgt>
  <wgt id="770">4.15122e-12</wgt>
  <wgt id="771">5.15907e-12</wgt>
  <wgt id="772">4.09458e-12</wgt>
  <wgt id="773">4.25844e-12</wgt>
  <wgt id="774">3.64615e-12</wgt>
  <wgt id="775">4.52154e-12</wgt>
  <wgt id="776">4.74348e-12</wgt>
  <wgt id="777">3.98196e-12</wgt>
  <wgt id="778">3.04935e-12</wgt>
  <wgt id="779">2.32085e-12</wgt>
  <wgt id="780">1.72659e-12</wgt>
  <wgt id="781">3.38499e-12</wgt>
  <wgt id="782">3.37548e-12</wgt>
  <wgt id="783">2.30078e-12</wgt>
  <wgt id="784">2.50864e-12</wgt>
  <wgt id="785">4.00666e-12</wgt>
  <wgt id="786">2.185e-12</wgt>
  <wgt id="787">3.62887e-12</wgt>
  <wgt id="788">1.53154e-12</wgt>
  <wgt id="789">2.37472e-12</wgt>
  <wgt id="790">2.1418e-12</wgt>
  <wgt id="791">3.05245e-12</wgt>
  <wgt id="792">4.04129e-12</wgt>
  <wgt id="793">2.98803e-12</wgt>
  <wgt id="794">2.08562e-12</wgt>
  <wgt id="795">3.80045e-12</wgt>
  <wgt id="796">4.11562e-12</wgt>
  <wgt id="797">3.73962e-12</wgt>
  <wgt id="798">2.65386e-12</wgt>
  <wgt id="799">3.58846e-12</wgt>
  <wgt id="800">2.44529e-12</wgt>
  <wgt id="801">2.80597e-12</wgt>
  <wgt id="802">2.0653e-12</wgt>
  <wgt id="803">4.42004e-12</wgt>
  <wgt id="804">3.77084e-12</wgt>
  <wgt id="805">3.79466e-12</wgt>
  <wgt id="806">3.3441e-12</wgt>
  <wgt id="807">2.89656e-12</wgt>
  <wgt id="808">2.92984e-12</wgt>
  <wgt id="809">2.78725e-12</wgt>
  <wgt id="810">3.41967e-12</wgt>
  <wgt id="811">3.30978e-12</wgt>
  <wgt id="812">2.1234e-12</wgt>
  <wgt id="813">2.24154e-12</wgt>
  <wgt id="814">2.46059e-12</wgt>
  <wgt id="815">2.30024e-12</wgt>
  <wgt id="816">2.11373e-12</wgt>
  <wgt id="817">3.14784e-12</wgt>
  <wgt id="818">3.31394e-12</wgt>
  <wgt id="819">2.31177e-12</wgt>
  <wgt id="820">3.00121e-12</wgt>
  <wgt id="821">3.60352e-12</wgt>
  <wgt id="822">2.41922e-12</wgt>
  <wgt id="823">3.67543e-12</wgt>
  <wgt id="824">4.35874e-12</wgt>
  <wgt id="825">2.00675e-12</wgt>
  <wgt id="826">3.41316e-12</wgt>
  <wgt id="827">1.64807e-12</wgt>
  <wgt id="828">3.91357e-12</wgt>
  <wgt id="829">3.18105e-12</wgt>
  <wgt id="830">1.89105e-12</wgt>
  <wgt id="831">3.38963e-12</wgt>
  <wgt id="832">5.2198e-12</wgt>
  <wgt id="833">2.68783e-12</wgt>
  <wgt id="834">4.94856e-12</wgt>
  <wgt id="835">2.3718e-12</wgt>
  <wgt id="836">2.86365e-12</wgt>
  <wgt id="837">3.54117e-12</wgt>
  <wgt id="838">2.77086e-12</wgt>
  <wgt id="839">3.35949e-12</wgt>
  <wgt id="840">2.73924e-12</wgt>
  <wgt id="841">3.99586e-12</wgt>
  <wgt id="842">2.78988e-12</wgt>
  <wgt id="843">3.11667e-12</wgt>
  <wgt id="844">3.2577e-12</wgt>
  <wgt id="845">4.69287e-12</wgt>
  <wgt id="846">3.06663e-12</wgt>
  <wgt id="847">3.14845e-12</wgt>
  <wgt id="848">2.38029e-12</wgt>
  <wgt id="849">3.18129e-12</wgt>
  <wgt id="850">4.25662e-12</wgt>
  <wgt id="851">3.43605e-12</wgt>
  <wgt id="852">2.28924e-12</wgt>
  <wgt id="853">3.49873e-12</wgt>
  <wgt id="854">3.90888e-12</wgt>
  <wgt id="855">3.66631e-12</wgt>
  <wgt id="856">1.92258e-12</wgt>
  <wgt id="857">2.93197e-12</wgt>
  <wgt id="858">2.91231e-12</wgt>
  <wgt id="859">2.8564e-12</wgt>
  <wgt id="860">3.52494e-12</wgt>
  <wgt id="861">2.6015e-12</wgt>
  <wgt id="862">3.1115e-12</wgt>
  <wgt id="863">3.3445e-12</wgt>
  <wgt id="864">3.23799e-12</wgt>
  <wgt id="865">4.64548e-12</wgt>
  <wgt id="866">5.10534e-12</wgt>
  <wgt id="867">3.14092e-12</wgt>
  <wgt id="868">3.07218e-12</wgt>
  <wgt id="869">2.15573e-12</wgt>
  <wgt id="870">2.32292e-12</wgt>
  <wgt id="871">2.25082e-12</wgt>
  <wgt id="872">3.91195e-12</wgt>
  <wgt id="873">2.48022e-12</wgt>
  <wgt id="874">3.28644e-12</wgt>
  <wgt id="875">2.55907e-12</wgt>
  <wgt id="876">3.86873e-12</wgt>
  <wgt id="877">3.54646e-12</wgt>
  <wgt id="878">2.48041e-12</wgt>
  <wgt id="879">4.29318e-12</wgt>
  <wgt id="880">4.33857e-12</wgt>
  <wgt id="881">4.55852e-12</wgt>
  <wgt id="882">4.07343e-12</wgt>
  <wgt id="883">4.24984e-12</wgt>
  <wgt id="884">4.32177e-12</wgt>
  <wgt id="885">4.45757e-12</wgt>
  <wgt id="886">4.16769e-12</wgt>
  <wgt id="887">4.49525e-12</wgt>
  <wgt id="888">4.13161e-12</wgt>
  <wgt id="889">4.17133e-12</wgt>
  <wgt id="890">4.50367e-12</wgt>
  <wgt id="891">4.22213e-12</wgt>
  <wgt id="892">4.6083e-12</wgt>
  <wgt id="893">4.4714e-12</wgt>
  <wgt id="894">4.50087e-12</wgt>
  <wgt id="895">4.22424e-12</wgt>
  <wgt id="896">5.24187e-12</wgt>
  <wgt id="897">4.60467e-12</wgt>
  <wgt id="898">4.13103e-12</wgt>
  <wgt id="899">4.08241e-12</wgt>
  <wgt id="900">4.08291e-12</wgt>
  <wgt id="901">3.80237e-12</wgt>
  <wgt id="902">3.79954e-12</wgt>
  <wgt id="903">3.73031e-12</wgt>
  <wgt id="904">4.30522e-12</wgt>
  <wgt id="905">4.18644e-12</wgt>
  <wgt id="906">5.05179e-12</wgt>
  <wgt id="907">4.76877e-12</wgt>
  <wgt id="908">4.61076e-12</wgt>
  <wgt id="909">4.01349e-12</wgt>
  <wgt id="910">4.09139e-12</wgt>
  <wgt id="911">4.21121e-12</wgt>
  <wgt id="912">4.20293e-12</wgt>
  <wgt id="913">3.84285e-12</wgt>
  <wgt id="914">4.30443e-12</wgt>
  <wgt id="915">4.15411e-12</wgt>
  <wgt id="916">4.64864e-12</wgt>
  <wgt id="917">4.11054e-12</wgt>
  <wgt id="918">4.2067e-12</wgt>
  <wgt id="919">4.13787e-12</wgt>
  <wgt id="920">3.97833e-12</wgt>
  <wgt id="921">4.33274e-12</wgt>
  <wgt id="922">3.87995e-12</wgt>
  <wgt id="923">4.1207e-12</wgt>
  <wgt id="924">3.81505e-12</wgt>
  <wgt id="925">3.67037e-12</wgt>
  <wgt id="926">4.65744e-12</wgt>
  <wgt id="927">4.55219e-12</wgt>
  <wgt id="928">4.51686e-12</wgt>
  <wgt id="929">4.3146e-12</wgt>
  <wgt id="930">4.22343e-12</wgt>
  <wgt id="931">4.16477e-12</wgt>
  <wgt id="932">4.04341e-12</wgt>
  <wgt id="933">4.69661e-12</wgt>
  <wgt id="934">4.22616e-12</wgt>
  <wgt id="935">4.81367e-12</wgt>
  <wgt id="936">4.1954e-12</wgt>
  <wgt id="937">4.41149e-12</wgt>
  <wgt id="938">4.29991e-12</wgt>
  <wgt id="939">4.13771e-12</wgt>
  <wgt id="940">4.30493e-12</wgt>
  <wgt id="941">4.06686e-12</wgt>
  <wgt id="942">4.4883e-12</wgt>
  <wgt id="943">4.85959e-12</wgt>
  <wgt id="944">3.96436e-12</wgt>
  <wgt id="945">4.23247e-12</wgt>
  <wgt id="946">4.01558e-12</wgt>
  <wgt id="947">4.2076e-12</wgt>
  <wgt id="948">4.55445e-12</wgt>
  <wgt id="949">4.65648e-12</wgt>
  <wgt id="950">3.76747e-12</wgt>
  <wgt id="951">4.21862e-12</wgt>
  <wgt id="952">4.49428e-12</wgt>
  <wgt id="953">4.48788e-12</wgt>
  <wgt id="954">4.38772e-12</wgt>
  <wgt id="955">3.90321e-12</wgt>
  <wgt id="956">4.00291e-12</wgt>
  <wgt id="957">4.49636e-12</wgt>
  <wgt id="958">4.27714e-12</wgt>
  <wgt id="959">4.27678e-12</wgt>
  <wgt id="960">3.87562e-12</wgt>
  <wgt id="961">4.27957e-12</wgt>
  <wgt id="962">4.5432e-12</wgt>
  <wgt id="963">4.27667e-12</wgt>
  <wgt id="964">4.58156e-12</wgt>
  <wgt id="965">4.61643e-12</wgt>
  <wgt id="966">4.2829e-12</wgt>
  <wgt id="967">4.50236e-12</wgt>
  <wgt id="968">4.34991e-12</wgt>
  <wgt id="969">4.30448e-12</wgt>
  <wgt id="970">4.3994e-12</wgt>
  <wgt id="971">3.99888e-12</wgt>
  <wgt id="972">4.56276e-12</wgt>
  <wgt id="973">4.15122e-12</wgt>
  <wgt id="974">5.15907e-12</wgt>
  <wgt id="975">4.09458e-12</wgt>
  <wgt id="976">4.25844e-12</wgt>
  <wgt id="977">3.64615e-12</wgt>
  <wgt id="978">4.52154e-12</wgt>
  <wgt id="979">4.74348e-12</wgt>
  <wgt id="980">4.27969e-12</wgt>
  <wgt id="981">4.33742e-12</wgt>
  <wgt id="982">4.16219e-12</wgt>
</rwgt>
</event>
<event>
 5   1  0.3028200E-11  0.2323988E+04  0.7818608E-02  0.7703718E-01
       21   -1    0    0  502  501  0.00000000000E+00  0.00000000000E+00  0.10170799182E+04  0.10170799182E+04  0.00000000000E+00 0. -1.
       21   -1    0    0  501  502 -0.00000000000E+00 -0.00000000000E+00 -0.13275551577E+04  0.13275551577E+04  0.00000000000E+00 0.  1.
       39    2    1    2    0    0  0.00000000000E+00  0.00000000000E+00 -0.31047523951E+03  0.23446350760E+04  0.23239876861E+04 0.  0.
       25    1    3    3    0    0 -0.11473878073E+04  0.13448413357E+03 -0.15073379986E+03  0.11717211447E+04  0.12500000000E+03 0.  0.
       25    1    3    3    0    0  0.11473878073E+04 -0.13448413357E+03 -0.15974143965E+03  0.11729139313E+04  0.12500000000E+03 0.  0.
<mgrwt>
<rscale>  0 0.23239877E+04</rscale>
<asrwt>0</asrwt>
<pdfrwt beam="1">  1       21 0.15647383E+00 0.23239877E+04</pdfrwt>
<pdfrwt beam="2">  1       21 0.20423925E+00 0.23239877E+04</pdfrwt>
<totfact> 0.12719462E+01</totfact>
</mgrwt>
<rwgt>
  <wgt id="1">3.0282e-12</wgt>
  <wgt id="2">2.63609e-12</wgt>
  <wgt id="3">3.51504e-12</wgt>
  <wgt id="4">3.0282e-12</wgt>
  <wgt id="5">2.63609e-12</wgt>
  <wgt id="6">3.51504e-12</wgt>
  <wgt id="7">3.0282e-12</wgt>
  <wgt id="8">2.63609e-12</wgt>
  <wgt id="9">3.51504e-12</wgt>
  <wgt id="10">3.13212e-12</wgt>
  <wgt id="11">3.12893e-12</wgt>
  <wgt id="12">3.12599e-12</wgt>
  <wgt id="13">3.12126e-12</wgt>
  <wgt id="14">3.14358e-12</wgt>
  <wgt id="15">3.13681e-12</wgt>
  <wgt id="16">3.12572e-12</wgt>
  <wgt id="17">3.13731e-12</wgt>
  <wgt id="18">3.12665e-12</wgt>
  <wgt id="19">3.13912e-12</wgt>
  <wgt id="20">3.12253e-12</wgt>
  <wgt id="21">3.11434e-12</wgt>
  <wgt id="22">3.12182e-12</wgt>
  <wgt id="23">3.10475e-12</wgt>
  <wgt id="24">3.11839e-12</wgt>
  <wgt id="25">3.1248e-12</wgt>
  <wgt id="26">3.14539e-12</wgt>
  <wgt id="27">3.13212e-12</wgt>
  <wgt id="28">3.11779e-12</wgt>
  <wgt id="29">3.1351e-12</wgt>
  <wgt id="30">3.12501e-12</wgt>
  <wgt id="31">3.14025e-12</wgt>
  <wgt id="32">3.12739e-12</wgt>
  <wgt id="33">3.13983e-12</wgt>
  <wgt id="34">3.12272e-12</wgt>
  <wgt id="35">3.13034e-12</wgt>
  <wgt id="36">3.1416e-12</wgt>
  <wgt id="37">3.12411e-12</wgt>
  <wgt id="38">3.1232e-12</wgt>
  <wgt id="39">3.16352e-12</wgt>
  <wgt id="40">3.13912e-12</wgt>
  <wgt id="41">3.13149e-12</wgt>
  <wgt id="42">3.13965e-12</wgt>
  <wgt id="43">3.13323e-12</wgt>
  <wgt id="44">3.12144e-12</wgt>
  <wgt id="45">3.13877e-12</wgt>
  <wgt id="46">3.13728e-12</wgt>
  <wgt id="47">3.11924e-12</wgt>
  <wgt id="48">3.13192e-12</wgt>
  <wgt id="49">3.13983e-12</wgt>
  <wgt id="50">3.15095e-12</wgt>
  <wgt id="51">3.14635e-12</wgt>
  <wgt id="52">3.12675e-12</wgt>
  <wgt id="53">3.10934e-12</wgt>
  <wgt id="54">3.12501e-12</wgt>
  <wgt id="55">3.13172e-12</wgt>
  <wgt id="56">3.14297e-12</wgt>
  <wgt id="57">3.1428e-12</wgt>
  <wgt id="58">3.11021e-12</wgt>
  <wgt id="59">3.1209e-12</wgt>
  <wgt id="60">3.13324e-12</wgt>
  <wgt id="61">3.1253e-12</wgt>
  <wgt id="62">3.13082e-12</wgt>
  <wgt id="63">3.13519e-12</wgt>
  <wgt id="64">3.13566e-12</wgt>
  <wgt id="65">3.13558e-12</wgt>
  <wgt id="66">3.12785e-12</wgt>
  <wgt id="67">3.12635e-12</wgt>
  <wgt id="68">3.12881e-12</wgt>
  <wgt id="69">3.13169e-12</wgt>
  <wgt id="70">3.12995e-12</wgt>
  <wgt id="71">3.13137e-12</wgt>
  <wgt id="72">3.12842e-12</wgt>
  <wgt id="73">3.1342e-12</wgt>
  <wgt id="74">3.13407e-12</wgt>
  <wgt id="75">3.13012e-12</wgt>
  <wgt id="76">3.14036e-12</wgt>
  <wgt id="77">3.13162e-12</wgt>
  <wgt id="78">3.13289e-12</wgt>
  <wgt id="79">3.13787e-12</wgt>
  <wgt id="80">3.11936e-12</wgt>
  <wgt id="81">3.12832e-12</wgt>
  <wgt id="82">3.13217e-12</wgt>
  <wgt id="83">3.12031e-12</wgt>
  <wgt id="84">3.12582e-12</wgt>
  <wgt id="85">3.12638e-12</wgt>
  <wgt id="86">3.13948e-12</wgt>
  <wgt id="87">3.11668e-12</wgt>
  <wgt id="88">3.13573e-12</wgt>
  <wgt id="89">3.13505e-12</wgt>
  <wgt id="90">3.13654e-12</wgt>
  <wgt id="91">3.13442e-12</wgt>
  <wgt id="92">3.13785e-12</wgt>
  <wgt id="93">3.13188e-12</wgt>
  <wgt id="94">3.1293e-12</wgt>
  <wgt id="95">3.13429e-12</wgt>
  <wgt id="96">3.13422e-12</wgt>
  <wgt id="97">3.12794e-12</wgt>
  <wgt id="98">3.13353e-12</wgt>
  <wgt id="99">3.13043e-12</wgt>
  <wgt id="100">3.13502e-12</wgt>
  <wgt id="101">3.13118e-12</wgt>
  <wgt id="102">3.12898e-12</wgt>
  <wgt id="103">3.13634e-12</wgt>
  <wgt id="104">3.12998e-12</wgt>
  <wgt id="105">3.13514e-12</wgt>
  <wgt id="106">3.12813e-12</wgt>
  <wgt id="107">3.14023e-12</wgt>
  <wgt id="108">3.12912e-12</wgt>
  <wgt id="109">3.13295e-12</wgt>
  <wgt id="110">3.13184e-12</wgt>
  <wgt id="111">3.16414e-12</wgt>
  <wgt id="112">3.12982e-12</wgt>
  <wgt id="113">4.20514e-12</wgt>
  <wgt id="114">4.34543e-12</wgt>
  <wgt id="115">4.28572e-12</wgt>
  <wgt id="116">5.99805e-12</wgt>
  <wgt id="117">3.48328e-12</wgt>
  <wgt id="118">3.49549e-12</wgt>
  <wgt id="119">3.47649e-12</wgt>
  <wgt id="120">3.48367e-12</wgt>
  <wgt id="121">3.48317e-12</wgt>
  <wgt id="122">3.47719e-12</wgt>
  <wgt id="123">3.4917e-12</wgt>
  <wgt id="124">3.47827e-12</wgt>
  <wgt id="125">3.48657e-12</wgt>
  <wgt id="126">3.48966e-12</wgt>
  <wgt id="127">3.47915e-12</wgt>
  <wgt id="128">3.49422e-12</wgt>
  <wgt id="129">3.47256e-12</wgt>
  <wgt id="130">3.50364e-12</wgt>
  <wgt id="131">3.46255e-12</wgt>
  <wgt id="132">3.39311e-12</wgt>
  <wgt id="133">3.59012e-12</wgt>
  <wgt id="134">3.44603e-12</wgt>
  <wgt id="135">3.51246e-12</wgt>
  <wgt id="136">3.52765e-12</wgt>
  <wgt id="137">3.42972e-12</wgt>
  <wgt id="138">3.61743e-12</wgt>
  <wgt id="139">3.35376e-12</wgt>
  <wgt id="140">3.46011e-12</wgt>
  <wgt id="141">3.5014e-12</wgt>
  <wgt id="142">3.4838e-12</wgt>
  <wgt id="143">3.48816e-12</wgt>
  <wgt id="144">3.38721e-12</wgt>
  <wgt id="145">3.57246e-12</wgt>
  <wgt id="146">3.51401e-12</wgt>
  <wgt id="147">3.45905e-12</wgt>
  <wgt id="148">3.49392e-12</wgt>
  <wgt id="149">3.48251e-12</wgt>
  <wgt id="150">3.51344e-12</wgt>
  <wgt id="151">3.46923e-12</wgt>
  <wgt id="152">3.48494e-12</wgt>
  <wgt id="153">3.4828e-12</wgt>
  <wgt id="154">3.51177e-12</wgt>
  <wgt id="155">3.44952e-12</wgt>
  <wgt id="156">3.55075e-12</wgt>
  <wgt id="157">3.41176e-12</wgt>
  <wgt id="158">4.19051e-12</wgt>
  <wgt id="159">4.20801e-12</wgt>
  <wgt id="160">4.17638e-12</wgt>
  <wgt id="161">4.17992e-12</wgt>
  <wgt id="162">4.20217e-12</wgt>
  <wgt id="163">4.18599e-12</wgt>
  <wgt id="164">4.19723e-12</wgt>
  <wgt id="165">4.19206e-12</wgt>
  <wgt id="166">4.18925e-12</wgt>
  <wgt id="167">4.18745e-12</wgt>
  <wgt id="168">4.1948e-12</wgt>
  <wgt id="169">4.17262e-12</wgt>
  <wgt id="170">4.20175e-12</wgt>
  <wgt id="171">4.18592e-12</wgt>
  <wgt id="172">4.19704e-12</wgt>
  <wgt id="173">4.19039e-12</wgt>
  <wgt id="174">4.19043e-12</wgt>
  <wgt id="175">4.07321e-12</wgt>
  <wgt id="176">4.34346e-12</wgt>
  <wgt id="177">4.21284e-12</wgt>
  <wgt id="178">4.16989e-12</wgt>
  <wgt id="179">4.36452e-12</wgt>
  <wgt id="180">3.91553e-12</wgt>
  <wgt id="181">4.0693e-12</wgt>
  <wgt id="182">4.27052e-12</wgt>
  <wgt id="183">4.11639e-12</wgt>
  <wgt id="184">4.22721e-12</wgt>
  <wgt id="185">4.15696e-12</wgt>
  <wgt id="186">4.2311e-12</wgt>
  <wgt id="187">4.15311e-12</wgt>
  <wgt id="188">4.25809e-12</wgt>
  <wgt id="189">4.16385e-12</wgt>
  <wgt id="190">4.20148e-12</wgt>
  <wgt id="191">4.20185e-12</wgt>
  <wgt id="192">4.18379e-12</wgt>
  <wgt id="193">4.24973e-12</wgt>
  <wgt id="194">4.16127e-12</wgt>
  <wgt id="195">4.08911e-12</wgt>
  <wgt id="196">4.37222e-12</wgt>
  <wgt id="197">4.21133e-12</wgt>
  <wgt id="198">4.18555e-12</wgt>
  <wgt id="199">4.19051e-12</wgt>
  <wgt id="200">4.22612e-12</wgt>
  <wgt id="201">4.21309e-12</wgt>
  <wgt id="202">4.20037e-12</wgt>
  <wgt id="203">4.18126e-12</wgt>
  <wgt id="204">4.17224e-12</wgt>
  <wgt id="205">4.16484e-12</wgt>
  <wgt id="206">4.06538e-12</wgt>
  <wgt id="207">4.08911e-12</wgt>
  <wgt id="208">4.04186e-12</wgt>
  <wgt id="209">4.07781e-12</wgt>
  <wgt id="210">4.05625e-12</wgt>
  <wgt id="211">4.06395e-12</wgt>
  <wgt id="212">4.0665e-12</wgt>
  <wgt id="213">4.06505e-12</wgt>
  <wgt id="214">4.06597e-12</wgt>
  <wgt id="215">4.06827e-12</wgt>
  <wgt id="216">4.06318e-12</wgt>
  <wgt id="217">4.07694e-12</wgt>
  <wgt id="218">4.05632e-12</wgt>
  <wgt id="219">4.0612e-12</wgt>
  <wgt id="220">4.06795e-12</wgt>
  <wgt id="221">4.06346e-12</wgt>
  <wgt id="222">4.06974e-12</wgt>
  <wgt id="223">3.85203e-12</wgt>
  <wgt id="224">4.25944e-12</wgt>
  <wgt id="225">4.01701e-12</wgt>
  <wgt id="226">4.12602e-12</wgt>
  <wgt id="227">4.02719e-12</wgt>
  <wgt id="228">4.08216e-12</wgt>
  <wgt id="229">4.00925e-12</wgt>
  <wgt id="230">4.0933e-12</wgt>
  <wgt id="231">4.18028e-12</wgt>
  <wgt id="232">3.97087e-12</wgt>
  <wgt id="233">4.04444e-12</wgt>
  <wgt id="234">4.09803e-12</wgt>
  <wgt id="235">3.98564e-12</wgt>
  <wgt id="236">4.14045e-12</wgt>
  <wgt id="237">4.01084e-12</wgt>
  <wgt id="238">4.08402e-12</wgt>
  <wgt id="239">4.04152e-12</wgt>
  <wgt id="240">4.10847e-12</wgt>
  <wgt id="241">4.02462e-12</wgt>
  <wgt id="242">4.1145e-12</wgt>
  <wgt id="243">4.11408e-12</wgt>
  <wgt id="244">4.08743e-12</wgt>
  <wgt id="245">4.0624e-12</wgt>
  <wgt id="246">4.09554e-12</wgt>
  <wgt id="247">4.06538e-12</wgt>
  <wgt id="248">4.10004e-12</wgt>
  <wgt id="249">4.08672e-12</wgt>
  <wgt id="250">4.07443e-12</wgt>
  <wgt id="251">4.05576e-12</wgt>
  <wgt id="252">4.04711e-12</wgt>
  <wgt id="253">4.04078e-12</wgt>
  <wgt id="254">3.98348e-12</wgt>
  <wgt id="255">3.98725e-12</wgt>
  <wgt id="256">3.97926e-12</wgt>
  <wgt id="257">3.98648e-12</wgt>
  <wgt id="258">3.98125e-12</wgt>
  <wgt id="259">4.01003e-12</wgt>
  <wgt id="260">3.95782e-12</wgt>
  <wgt id="261">3.98899e-12</wgt>
  <wgt id="262">3.97684e-12</wgt>
  <wgt id="263">3.98171e-12</wgt>
  <wgt id="264">3.98538e-12</wgt>
  <wgt id="265">3.9789e-12</wgt>
  <wgt id="266">3.99253e-12</wgt>
  <wgt id="267">3.98474e-12</wgt>
  <wgt id="268">3.98163e-12</wgt>
  <wgt id="269">3.99621e-12</wgt>
  <wgt id="270">3.97483e-12</wgt>
  <wgt id="271">3.97673e-12</wgt>
  <wgt id="272">3.99088e-12</wgt>
  <wgt id="273">3.97111e-12</wgt>
  <wgt id="274">3.99286e-12</wgt>
  <wgt id="275">3.96744e-12</wgt>
  <wgt id="276">4.00002e-12</wgt>
  <wgt id="277">3.96096e-12</wgt>
  <wgt id="278">4.00418e-12</wgt>
  <wgt id="279">3.90742e-12</wgt>
  <wgt id="280">4.07864e-12</wgt>
  <wgt id="281">3.96604e-12</wgt>
  <wgt id="282">3.98416e-12</wgt>
  <wgt id="283">3.87147e-12</wgt>
  <wgt id="284">4.12111e-12</wgt>
  <wgt id="285">3.79752e-12</wgt>
  <wgt id="286">4.13691e-12</wgt>
  <wgt id="287">3.99575e-12</wgt>
  <wgt id="288">3.96784e-12</wgt>
  <wgt id="289">4.01073e-12</wgt>
  <wgt id="290">3.91963e-12</wgt>
  <wgt id="291">3.97313e-12</wgt>
  <wgt id="292">3.98594e-12</wgt>
  <wgt id="293">3.9535e-12</wgt>
  <wgt id="294">4.01311e-12</wgt>
  <wgt id="295">3.90963e-12</wgt>
  <wgt id="296">4.07336e-12</wgt>
  <wgt id="297">3.98379e-12</wgt>
  <wgt id="298">3.99774e-12</wgt>
  <wgt id="299">3.97087e-12</wgt>
  <wgt id="300">4.01663e-12</wgt>
  <wgt id="301">3.93115e-12</wgt>
  <wgt id="302">4.11758e-12</wgt>
  <wgt id="303">3.95451e-12</wgt>
  <wgt id="304">4.00006e-12</wgt>
  <wgt id="305">3.99846e-12</wgt>
  <wgt id="306">4.0027e-12</wgt>
  <wgt id="307">3.99409e-12</wgt>
  <wgt id="308">4.00183e-12</wgt>
  <wgt id="309">3.99632e-12</wgt>
  <wgt id="310">4.02619e-12</wgt>
  <wgt id="311">3.97286e-12</wgt>
  <wgt id="312">4.003e-12</wgt>
  <wgt id="313">3.99401e-12</wgt>
  <wgt id="314">3.9969e-12</wgt>
  <wgt id="315">4.00021e-12</wgt>
  <wgt id="316">3.99419e-12</wgt>
  <wgt id="317">4.00803e-12</wgt>
  <wgt id="318">4.00149e-12</wgt>
  <wgt id="319">3.99364e-12</wgt>
  <wgt id="320">4.01185e-12</wgt>
  <wgt id="321">3.99125e-12</wgt>
  <wgt id="322">3.98986e-12</wgt>
  <wgt id="323">4.00888e-12</wgt>
  <wgt id="324">3.98826e-12</wgt>
  <wgt id="325">4.00759e-12</wgt>
  <wgt id="326">3.98567e-12</wgt>
  <wgt id="327">4.01503e-12</wgt>
  <wgt id="328">3.97826e-12</wgt>
  <wgt id="329">4.01015e-12</wgt>
  <wgt id="330">4.1157e-12</wgt>
  <wgt id="331">3.88673e-12</wgt>
  <wgt id="332">3.98407e-12</wgt>
  <wgt id="333">3.99863e-12</wgt>
  <wgt id="334">3.91041e-12</wgt>
  <wgt id="335">4.10794e-12</wgt>
  <wgt id="336">3.86313e-12</wgt>
  <wgt id="337">4.16279e-12</wgt>
  <wgt id="338">4.04181e-12</wgt>
  <wgt id="339">3.95837e-12</wgt>
  <wgt id="340">4.02449e-12</wgt>
  <wgt id="341">3.93155e-12</wgt>
  <wgt id="342">3.99125e-12</wgt>
  <wgt id="343">3.99479e-12</wgt>
  <wgt id="344">3.97118e-12</wgt>
  <wgt id="345">4.03016e-12</wgt>
  <wgt id="346">3.9217e-12</wgt>
  <wgt id="347">4.08693e-12</wgt>
  <wgt id="348">4.00056e-12</wgt>
  <wgt id="349">4.01018e-12</wgt>
  <wgt id="350">3.9826e-12</wgt>
  <wgt id="351">4.03873e-12</wgt>
  <wgt id="352">3.94026e-12</wgt>
  <wgt id="353">4.13968e-12</wgt>
  <wgt id="354">3.95412e-12</wgt>
  <wgt id="355">4.02574e-12</wgt>
  <wgt id="356">3.98348e-12</wgt>
  <wgt id="357">4.01571e-12</wgt>
  <wgt id="358">3.99846e-12</wgt>
  <wgt id="359">3.99821e-12</wgt>
  <wgt id="360">4.00758e-12</wgt>
  <wgt id="361">3.9955e-12</wgt>
  <wgt id="362">4.06342e-12</wgt>
  <wgt id="363">4.05379e-12</wgt>
  <wgt id="364">4.04046e-12</wgt>
  <wgt id="365">4.0271e-12</wgt>
  <wgt id="366">4.01209e-12</wgt>
  <wgt id="367">3.98095e-12</wgt>
  <wgt id="368">3.96396e-12</wgt>
  <wgt id="369">3.94571e-12</wgt>
  <wgt id="370">3.9955e-12</wgt>
  <wgt id="371">4.01338e-12</wgt>
  <wgt id="372">4.00351e-12</wgt>
  <wgt id="373">3.9889e-12</wgt>
  <wgt id="374">3.98718e-12</wgt>
  <wgt id="375">4.24956e-12</wgt>
  <wgt id="376">4.25007e-12</wgt>
  <wgt id="377">4.24881e-12</wgt>
  <wgt id="378">4.26487e-12</wgt>
  <wgt id="379">4.23417e-12</wgt>
  <wgt id="380">4.26083e-12</wgt>
  <wgt id="381">4.245e-12</wgt>
  <wgt id="382">4.27144e-12</wgt>
  <wgt id="383">4.22785e-12</wgt>
  <wgt id="384">4.25232e-12</wgt>
  <wgt id="385">4.24691e-12</wgt>
  <wgt id="386">4.26645e-12</wgt>
  <wgt id="387">4.24214e-12</wgt>
  <wgt id="388">4.24547e-12</wgt>
  <wgt id="389">4.25436e-12</wgt>
  <wgt id="390">4.26103e-12</wgt>
  <wgt id="391">4.23741e-12</wgt>
  <wgt id="392">4.21776e-12</wgt>
  <wgt id="393">4.26759e-12</wgt>
  <wgt id="394">4.25566e-12</wgt>
  <wgt id="395">4.24124e-12</wgt>
  <wgt id="396">4.25195e-12</wgt>
  <wgt id="397">4.24792e-12</wgt>
  <wgt id="398">4.23098e-12</wgt>
  <wgt id="399">4.26746e-12</wgt>
  <wgt id="400">4.24234e-12</wgt>
  <wgt id="401">4.26555e-12</wgt>
  <wgt id="402">4.21557e-12</wgt>
  <wgt id="403">4.26419e-12</wgt>
  <wgt id="404">4.34542e-12</wgt>
  <wgt id="405">4.01833e-12</wgt>
  <wgt id="406">4.18078e-12</wgt>
  <wgt id="407">4.39835e-12</wgt>
  <wgt id="408">4.28485e-12</wgt>
  <wgt id="409">4.18189e-12</wgt>
  <wgt id="410">4.13657e-12</wgt>
  <wgt id="411">4.30159e-12</wgt>
  <wgt id="412">4.2423e-12</wgt>
  <wgt id="413">4.26018e-12</wgt>
  <wgt id="414">4.20436e-12</wgt>
  <wgt id="415">4.28456e-12</wgt>
  <wgt id="416">4.3584e-12</wgt>
  <wgt id="417">4.09904e-12</wgt>
  <wgt id="418">4.25512e-12</wgt>
  <wgt id="419">4.21999e-12</wgt>
  <wgt id="420">4.30921e-12</wgt>
  <wgt id="421">4.21624e-12</wgt>
  <wgt id="422">4.24428e-12</wgt>
  <wgt id="423">4.25296e-12</wgt>
  <wgt id="424">4.3317e-12</wgt>
  <wgt id="425">4.19833e-12</wgt>
  <wgt id="426">4.24956e-12</wgt>
  <wgt id="427">4.2145e-12</wgt>
  <wgt id="428">4.35463e-12</wgt>
  <wgt id="429">4.28617e-12</wgt>
  <wgt id="430">4.40352e-12</wgt>
  <wgt id="431">4.38002e-12</wgt>
  <wgt id="432">4.35786e-12</wgt>
  <wgt id="433">4.33637e-12</wgt>
  <wgt id="434">4.31035e-12</wgt>
  <wgt id="435">4.25586e-12</wgt>
  <wgt id="436">4.22786e-12</wgt>
  <wgt id="437">4.20109e-12</wgt>
  <wgt id="438">4.28617e-12</wgt>
  <wgt id="439">4.30035e-12</wgt>
  <wgt id="440">4.29195e-12</wgt>
  <wgt id="441">4.28176e-12</wgt>
  <wgt id="442">4.27803e-12</wgt>
  <wgt id="443">4.16672e-12</wgt>
  <wgt id="444">4.18842e-12</wgt>
  <wgt id="445">4.14957e-12</wgt>
  <wgt id="446">4.14065e-12</wgt>
  <wgt id="447">4.15181e-12</wgt>
  <wgt id="448">4.05881e-12</wgt>
  <wgt id="449">4.22926e-12</wgt>
  <wgt id="450">4.15037e-12</wgt>
  <wgt id="451">4.16027e-12</wgt>
  <wgt id="452">4.25792e-12</wgt>
  <wgt id="453">4.20451e-12</wgt>
  <wgt id="454">4.0044e-12</wgt>
  <wgt id="455">4.1715e-12</wgt>
  <wgt id="456">4.12006e-12</wgt>
  <wgt id="457">4.18337e-12</wgt>
  <wgt id="458">4.21272e-12</wgt>
  <wgt id="459">4.19357e-12</wgt>
  <wgt id="460">4.189e-12</wgt>
  <wgt id="461">4.09333e-12</wgt>
  <wgt id="462">4.1338e-12</wgt>
  <wgt id="463">4.12344e-12</wgt>
  <wgt id="464">4.14404e-12</wgt>
  <wgt id="465">4.20867e-12</wgt>
  <wgt id="466">4.12119e-12</wgt>
  <wgt id="467">4.12779e-12</wgt>
  <wgt id="468">4.15569e-12</wgt>
  <wgt id="469">4.15543e-12</wgt>
  <wgt id="470">4.13111e-12</wgt>
  <wgt id="471">4.13157e-12</wgt>
  <wgt id="472">4.1852e-12</wgt>
  <wgt id="473">4.03698e-12</wgt>
  <wgt id="474">3.0282e-12</wgt>
  <wgt id="475">3.21564e-12</wgt>
  <wgt id="476">2.96239e-12</wgt>
  <wgt id="477">2.93669e-12</wgt>
  <wgt id="478">3.04383e-12</wgt>
  <wgt id="479">2.9758e-12</wgt>
  <wgt id="480">3.13331e-12</wgt>
  <wgt id="481">2.96269e-12</wgt>
  <wgt id="482">2.91481e-12</wgt>
  <wgt id="483">2.94903e-12</wgt>
  <wgt id="484">3.234e-12</wgt>
  <wgt id="485">3.02971e-12</wgt>
  <wgt id="486">3.10061e-12</wgt>
  <wgt id="487">3.08378e-12</wgt>
  <wgt id="488">3.07009e-12</wgt>
  <wgt id="489">2.92631e-12</wgt>
  <wgt id="490">2.93345e-12</wgt>
  <wgt id="491">2.99507e-12</wgt>
  <wgt id="492">2.93579e-12</wgt>
  <wgt id="493">2.91854e-12</wgt>
  <wgt id="494">2.93785e-12</wgt>
  <wgt id="495">3.09075e-12</wgt>
  <wgt id="496">2.92782e-12</wgt>
  <wgt id="497">2.91297e-12</wgt>
  <wgt id="498">3.07032e-12</wgt>
  <wgt id="499">2.95345e-12</wgt>
  <wgt id="500">2.97915e-12</wgt>
  <wgt id="501">3.16447e-12</wgt>
  <wgt id="502">2.95121e-12</wgt>
  <wgt id="503">3.02366e-12</wgt>
  <wgt id="504">3.04738e-12</wgt>
  <wgt id="505">3.02604e-12</wgt>
  <wgt id="506">3.08859e-12</wgt>
  <wgt id="507">2.99919e-12</wgt>
  <wgt id="508">3.07396e-12</wgt>
  <wgt id="509">2.97104e-12</wgt>
  <wgt id="510">3.10701e-12</wgt>
  <wgt id="511">2.96671e-12</wgt>
  <wgt id="512">3.07178e-12</wgt>
  <wgt id="513">3.15624e-12</wgt>
  <wgt id="514">3.0066e-12</wgt>
  <wgt id="515">2.98913e-12</wgt>
  <wgt id="516">3.11316e-12</wgt>
  <wgt id="517">3.09242e-12</wgt>
  <wgt id="518">3.10072e-12</wgt>
  <wgt id="519">2.94627e-12</wgt>
  <wgt id="520">3.05409e-12</wgt>
  <wgt id="521">3.13352e-12</wgt>
  <wgt id="522">3.14424e-12</wgt>
  <wgt id="523">3.09492e-12</wgt>
  <wgt id="524">3.07702e-12</wgt>
  <wgt id="525">3.11795e-12</wgt>
  <wgt id="526">3.03602e-12</wgt>
  <wgt id="527">3.0764e-12</wgt>
  <wgt id="528">3.0391e-12</wgt>
  <wgt id="529">2.97968e-12</wgt>
  <wgt id="530">3.05529e-12</wgt>
  <wgt id="531">2.99448e-12</wgt>
  <wgt id="532">3.19517e-12</wgt>
  <wgt id="533">2.84905e-12</wgt>
  <wgt id="534">3.03884e-12</wgt>
  <wgt id="535">3.0862e-12</wgt>
  <wgt id="536">3.01814e-12</wgt>
  <wgt id="537">3.03867e-12</wgt>
  <wgt id="538">3.06804e-12</wgt>
  <wgt id="539">2.96857e-12</wgt>
  <wgt id="540">2.97762e-12</wgt>
  <wgt id="541">2.95461e-12</wgt>
  <wgt id="542">2.97279e-12</wgt>
  <wgt id="543">3.02327e-12</wgt>
  <wgt id="544">3.17614e-12</wgt>
  <wgt id="545">2.98902e-12</wgt>
  <wgt id="546">2.99173e-12</wgt>
  <wgt id="547">2.93715e-12</wgt>
  <wgt id="548">2.90495e-12</wgt>
  <wgt id="549">2.97721e-12</wgt>
  <wgt id="550">3.01644e-12</wgt>
  <wgt id="551">3.05984e-12</wgt>
  <wgt id="552">2.99963e-12</wgt>
  <wgt id="553">3.01976e-12</wgt>
  <wgt id="554">3.25182e-12</wgt>
  <wgt id="555">3.10695e-12</wgt>
  <wgt id="556">2.93345e-12</wgt>
  <wgt id="557">3.07756e-12</wgt>
  <wgt id="558">2.93077e-12</wgt>
  <wgt id="559">2.98855e-12</wgt>
  <wgt id="560">3.27841e-12</wgt>
  <wgt id="561">2.96619e-12</wgt>
  <wgt id="562">3.07486e-12</wgt>
  <wgt id="563">2.94484e-12</wgt>
  <wgt id="564">3.03009e-12</wgt>
  <wgt id="565">2.9199e-12</wgt>
  <wgt id="566">3.07198e-12</wgt>
  <wgt id="567">2.98497e-12</wgt>
  <wgt id="568">3.02051e-12</wgt>
  <wgt id="569">3.07596e-12</wgt>
  <wgt id="570">2.93975e-12</wgt>
  <wgt id="571">3.3535e-12</wgt>
  <wgt id="572">2.95946e-12</wgt>
  <wgt id="573">2.89453e-12</wgt>
  <wgt id="574">2.92139e-12</wgt>
  <wgt id="575">3.32986e-12</wgt>
  <wgt id="576">3.29543e-12</wgt>
  <wgt id="577">3.42784e-12</wgt>
  <wgt id="578">3.40984e-12</wgt>
  <wgt id="579">3.37938e-12</wgt>
  <wgt id="580">3.39047e-12</wgt>
  <wgt id="581">3.53925e-12</wgt>
  <wgt id="582">3.28712e-12</wgt>
  <wgt id="583">3.36473e-12</wgt>
  <wgt id="584">3.33376e-12</wgt>
  <wgt id="585">3.35229e-12</wgt>
  <wgt id="586">3.25462e-12</wgt>
  <wgt id="587">3.37404e-12</wgt>
  <wgt id="588">3.31138e-12</wgt>
  <wgt id="589">3.38704e-12</wgt>
  <wgt id="590">3.38472e-12</wgt>
  <wgt id="591">3.45709e-12</wgt>
  <wgt id="592">3.26028e-12</wgt>
  <wgt id="593">3.31473e-12</wgt>
  <wgt id="594">3.43983e-12</wgt>
  <wgt id="595">3.31418e-12</wgt>
  <wgt id="596">3.36409e-12</wgt>
  <wgt id="597">3.2233e-12</wgt>
  <wgt id="598">3.25579e-12</wgt>
  <wgt id="599">3.49829e-12</wgt>
  <wgt id="600">3.29776e-12</wgt>
  <wgt id="601">3.23626e-12</wgt>
  <wgt id="602">3.26168e-12</wgt>
  <wgt id="603">3.27272e-12</wgt>
  <wgt id="604">3.37681e-12</wgt>
  <wgt id="605">3.46402e-12</wgt>
  <wgt id="606">3.25402e-12</wgt>
  <wgt id="607">3.28713e-12</wgt>
  <wgt id="608">3.34395e-12</wgt>
  <wgt id="609">3.14561e-12</wgt>
  <wgt id="610">3.20424e-12</wgt>
  <wgt id="611">3.36847e-12</wgt>
  <wgt id="612">3.56644e-12</wgt>
  <wgt id="613">3.32563e-12</wgt>
  <wgt id="614">3.37311e-12</wgt>
  <wgt id="615">3.26287e-12</wgt>
  <wgt id="616">3.52597e-12</wgt>
  <wgt id="617">3.45154e-12</wgt>
  <wgt id="618">3.37751e-12</wgt>
  <wgt id="619">3.29729e-12</wgt>
  <wgt id="620">3.46358e-12</wgt>
  <wgt id="621">3.37664e-12</wgt>
  <wgt id="622">3.37404e-12</wgt>
  <wgt id="623">3.42165e-12</wgt>
  <wgt id="624">3.31617e-12</wgt>
  <wgt id="625">3.29107e-12</wgt>
  <wgt id="626">3.25098e-12</wgt>
  <wgt id="627">3.20265e-12</wgt>
  <wgt id="628">3.51855e-12</wgt>
  <wgt id="629">3.25552e-12</wgt>
  <wgt id="630">3.21868e-12</wgt>
  <wgt id="631">3.34157e-12</wgt>
  <wgt id="632">3.21993e-12</wgt>
  <wgt id="633">3.29163e-12</wgt>
  <wgt id="634">3.32956e-12</wgt>
  <wgt id="635">3.27209e-12</wgt>
  <wgt id="636">3.34965e-12</wgt>
  <wgt id="637">3.3257e-12</wgt>
  <wgt id="638">3.20618e-12</wgt>
  <wgt id="639">3.28794e-12</wgt>
  <wgt id="640">3.33324e-12</wgt>
  <wgt id="641">3.34655e-12</wgt>
  <wgt id="642">3.22169e-12</wgt>
  <wgt id="643">3.3127e-12</wgt>
  <wgt id="644">3.20492e-12</wgt>
  <wgt id="645">3.35714e-12</wgt>
  <wgt id="646">3.38219e-12</wgt>
  <wgt id="647">3.28376e-12</wgt>
  <wgt id="648">3.34734e-12</wgt>
  <wgt id="649">3.38024e-12</wgt>
  <wgt id="650">3.26791e-12</wgt>
  <wgt id="651">3.35153e-12</wgt>
  <wgt id="652">3.3122e-12</wgt>
  <wgt id="653">3.23886e-12</wgt>
  <wgt id="654">3.3122e-12</wgt>
  <wgt id="655">3.27123e-12</wgt>
  <wgt id="656">3.34289e-12</wgt>
  <wgt id="657">3.43663e-12</wgt>
  <wgt id="658">3.35483e-12</wgt>
  <wgt id="659">3.20301e-12</wgt>
  <wgt id="660">3.39338e-12</wgt>
  <wgt id="661">3.27693e-12</wgt>
  <wgt id="662">3.32516e-12</wgt>
  <wgt id="663">3.3268e-12</wgt>
  <wgt id="664">3.27994e-12</wgt>
  <wgt id="665">3.31876e-12</wgt>
  <wgt id="666">3.30865e-12</wgt>
  <wgt id="667">3.43346e-12</wgt>
  <wgt id="668">3.32144e-12</wgt>
  <wgt id="669">3.41049e-12</wgt>
  <wgt id="670">3.38745e-12</wgt>
  <wgt id="671">3.29253e-12</wgt>
  <wgt id="672">3.1909e-12</wgt>
  <wgt id="673">3.3318e-12</wgt>
  <wgt id="674">3.26513e-12</wgt>
  <wgt id="675">3.2761e-12</wgt>
  <wgt id="676">4.18132e-12</wgt>
  <wgt id="677">4.23141e-12</wgt>
  <wgt id="678">4.3771e-12</wgt>
  <wgt id="679">3.9364e-12</wgt>
  <wgt id="680">4.06686e-12</wgt>
  <wgt id="681">4.28322e-12</wgt>
  <wgt id="682">4.28465e-12</wgt>
  <wgt id="683">4.13246e-12</wgt>
  <wgt id="684">4.3678e-12</wgt>
  <wgt id="685">3.9622e-12</wgt>
  <wgt id="686">4.13517e-12</wgt>
  <wgt id="687">4.38117e-12</wgt>
  <wgt id="688">4.16439e-12</wgt>
  <wgt id="689">4.50935e-12</wgt>
  <wgt id="690">4.40193e-12</wgt>
  <wgt id="691">4.42728e-12</wgt>
  <wgt id="692">4.14547e-12</wgt>
  <wgt id="693">4.87296e-12</wgt>
  <wgt id="694">4.42457e-12</wgt>
  <wgt id="695">4.05025e-12</wgt>
  <wgt id="696">3.96707e-12</wgt>
  <wgt id="697">4.0646e-12</wgt>
  <wgt id="698">3.86883e-12</wgt>
  <wgt id="699">3.83357e-12</wgt>
  <wgt id="700">3.67545e-12</wgt>
  <wgt id="701">4.19456e-12</wgt>
  <wgt id="702">4.03056e-12</wgt>
  <wgt id="703">4.77407e-12</wgt>
  <wgt id="704">4.5413e-12</wgt>
  <wgt id="705">4.35531e-12</wgt>
  <wgt id="706">3.90009e-12</wgt>
  <wgt id="707">4.01814e-12</wgt>
  <wgt id="708">4.1288e-12</wgt>
  <wgt id="709">4.11e-12</wgt>
  <wgt id="710">3.75858e-12</wgt>
  <wgt id="711">4.16352e-12</wgt>
  <wgt id="712">4.11627e-12</wgt>
  <wgt id="713">4.50485e-12</wgt>
  <wgt id="714">4.13184e-12</wgt>
  <wgt id="715">4.13928e-12</wgt>
  <wgt id="716">4.02429e-12</wgt>
  <wgt id="717">3.99854e-12</wgt>
  <wgt id="718">4.1502e-12</wgt>
  <wgt id="719">3.80848e-12</wgt>
  <wgt id="720">3.94562e-12</wgt>
  <wgt id="721">3.89141e-12</wgt>
  <wgt id="722">3.73699e-12</wgt>
  <wgt id="723">4.44409e-12</wgt>
  <wgt id="724">4.36723e-12</wgt>
  <wgt id="725">4.41443e-12</wgt>
  <wgt id="726">4.22417e-12</wgt>
  <wgt id="727">4.08488e-12</wgt>
  <wgt id="728">4.10826e-12</wgt>
  <wgt id="729">3.80873e-12</wgt>
  <wgt id="730">4.49115e-12</wgt>
  <wgt id="731">4.134e-12</wgt>
  <wgt id="732">4.57938e-12</wgt>
  <wgt id="733">4.17791e-12</wgt>
  <wgt id="734">4.2814e-12</wgt>
  <wgt id="735">4.16154e-12</wgt>
  <wgt id="736">4.11059e-12</wgt>
  <wgt id="737">4.25125e-12</wgt>
  <wgt id="738">3.98716e-12</wgt>
  <wgt id="739">4.21829e-12</wgt>
  <wgt id="740">4.6354e-12</wgt>
  <wgt id="741">3.72651e-12</wgt>
  <wgt id="742">4.11725e-12</wgt>
  <wgt id="743">4.01351e-12</wgt>
  <wgt id="744">4.09741e-12</wgt>
  <wgt id="745">4.36081e-12</wgt>
  <wgt id="746">4.42591e-12</wgt>
  <wgt id="747">3.81303e-12</wgt>
  <wgt id="748">4.12475e-12</wgt>
  <wgt id="749">4.40645e-12</wgt>
  <wgt id="750">4.22025e-12</wgt>
  <wgt id="751">4.32087e-12</wgt>
  <wgt id="752">3.84369e-12</wgt>
  <wgt id="753">3.98188e-12</wgt>
  <wgt id="754">4.35239e-12</wgt>
  <wgt id="755">4.20027e-12</wgt>
  <wgt id="756">4.20744e-12</wgt>
  <wgt id="757">3.86233e-12</wgt>
  <wgt id="758">4.2239e-12</wgt>
  <wgt id="759">4.23357e-12</wgt>
  <wgt id="760">4.24056e-12</wgt>
  <wgt id="761">4.40316e-12</wgt>
  <wgt id="762">4.42247e-12</wgt>
  <wgt id="763">4.17331e-12</wgt>
  <wgt id="764">4.3415e-12</wgt>
  <wgt id="765">4.24691e-12</wgt>
  <wgt id="766">4.17217e-12</wgt>
  <wgt id="767">4.28538e-12</wgt>
  <wgt id="768">3.95606e-12</wgt>
  <wgt id="769">4.4297e-12</wgt>
  <wgt id="770">4.06242e-12</wgt>
  <wgt id="771">4.92517e-12</wgt>
  <wgt id="772">3.94435e-12</wgt>
  <wgt id="773">4.15461e-12</wgt>
  <wgt id="774">3.73967e-12</wgt>
  <wgt id="775">4.39856e-12</wgt>
  <wgt id="776">4.56608e-12</wgt>
  <wgt id="777">3.99925e-12</wgt>
  <wgt id="778">3.09725e-12</wgt>
  <wgt id="779">2.59152e-12</wgt>
  <wgt id="780">2.12854e-12</wgt>
  <wgt id="781">3.14929e-12</wgt>
  <wgt id="782">3.28256e-12</wgt>
  <wgt id="783">2.62706e-12</wgt>
  <wgt id="784">2.71848e-12</wgt>
  <wgt id="785">3.75449e-12</wgt>
  <wgt id="786">2.39541e-12</wgt>
  <wgt id="787">3.51271e-12</wgt>
  <wgt id="788">1.97534e-12</wgt>
  <wgt id="789">2.48587e-12</wgt>
  <wgt id="790">2.37144e-12</wgt>
  <wgt id="791">2.89659e-12</wgt>
  <wgt id="792">4.01291e-12</wgt>
  <wgt id="793">3.01689e-12</wgt>
  <wgt id="794">2.38773e-12</wgt>
  <wgt id="795">3.61024e-12</wgt>
  <wgt id="796">4.06162e-12</wgt>
  <wgt id="797">3.57554e-12</wgt>
  <wgt id="798">2.86142e-12</wgt>
  <wgt id="799">3.51756e-12</wgt>
  <wgt id="800">2.51343e-12</wgt>
  <wgt id="801">2.89885e-12</wgt>
  <wgt id="802">2.40413e-12</wgt>
  <wgt id="803">4.02383e-12</wgt>
  <wgt id="804">3.58353e-12</wgt>
  <wgt id="805">3.65e-12</wgt>
  <wgt id="806">3.47257e-12</wgt>
  <wgt id="807">2.95475e-12</wgt>
  <wgt id="808">3.01695e-12</wgt>
  <wgt id="809">2.85475e-12</wgt>
  <wgt id="810">3.52687e-12</wgt>
  <wgt id="811">3.37791e-12</wgt>
  <wgt id="812">2.36988e-12</wgt>
  <wgt id="813">2.42092e-12</wgt>
  <wgt id="814">2.64064e-12</wgt>
  <wgt id="815">2.59823e-12</wgt>
  <wgt id="816">2.28843e-12</wgt>
  <wgt id="817">3.25467e-12</wgt>
  <wgt id="818">3.06089e-12</wgt>
  <wgt id="819">2.59261e-12</wgt>
  <wgt id="820">3.10311e-12</wgt>
  <wgt id="821">3.55546e-12</wgt>
  <wgt id="822">2.59272e-12</wgt>
  <wgt id="823">3.57379e-12</wgt>
  <wgt id="824">4.15151e-12</wgt>
  <wgt id="825">2.30379e-12</wgt>
  <wgt id="826">3.26353e-12</wgt>
  <wgt id="827">1.90751e-12</wgt>
  <wgt id="828">3.96899e-12</wgt>
  <wgt id="829">3.21802e-12</wgt>
  <wgt id="830">2.18537e-12</wgt>
  <wgt id="831">3.33083e-12</wgt>
  <wgt id="832">5.05804e-12</wgt>
  <wgt id="833">2.89524e-12</wgt>
  <wgt id="834">4.72992e-12</wgt>
  <wgt id="835">2.51775e-12</wgt>
  <wgt id="836">3.0875e-12</wgt>
  <wgt id="837">3.50989e-12</wgt>
  <wgt id="838">2.95853e-12</wgt>
  <wgt id="839">3.31037e-12</wgt>
  <wgt id="840">2.90323e-12</wgt>
  <wgt id="841">3.79789e-12</wgt>
  <wgt id="842">2.81447e-12</wgt>
  <wgt id="843">3.03988e-12</wgt>
  <wgt id="844">3.23016e-12</wgt>
  <wgt id="845">4.31451e-12</wgt>
  <wgt id="846">2.88666e-12</wgt>
  <wgt id="847">3.11917e-12</wgt>
  <wgt id="848">2.68883e-12</wgt>
  <wgt id="849">3.17623e-12</wgt>
  <wgt id="850">4.02228e-12</wgt>
  <wgt id="851">3.39316e-12</wgt>
  <wgt id="852">2.66475e-12</wgt>
  <wgt id="853">3.39118e-12</wgt>
  <wgt id="854">3.76299e-12</wgt>
  <wgt id="855">3.58386e-12</wgt>
  <wgt id="856">2.24241e-12</wgt>
  <wgt id="857">3.10784e-12</wgt>
  <wgt id="858">3.07093e-12</wgt>
  <wgt id="859">2.88119e-12</wgt>
  <wgt id="860">3.32236e-12</wgt>
  <wgt id="861">2.73447e-12</wgt>
  <wgt id="862">3.15699e-12</wgt>
  <wgt id="863">3.2735e-12</wgt>
  <wgt id="864">3.28819e-12</wgt>
  <wgt id="865">4.42552e-12</wgt>
  <wgt id="866">4.84051e-12</wgt>
  <wgt id="867">3.15641e-12</wgt>
  <wgt id="868">3.06949e-12</wgt>
  <wgt id="869">2.41545e-12</wgt>
  <wgt id="870">2.54022e-12</wgt>
  <wgt id="871">2.46564e-12</wgt>
  <wgt id="872">3.6853e-12</wgt>
  <wgt id="873">2.55435e-12</wgt>
  <wgt id="874">3.25735e-12</wgt>
  <wgt id="875">2.69527e-12</wgt>
  <wgt id="876">3.69328e-12</wgt>
  <wgt id="877">3.54638e-12</wgt>
  <wgt id="878">2.66973e-12</wgt>
  <wgt id="879">4.18132e-12</wgt>
  <wgt id="880">4.23141e-12</wgt>
  <wgt id="881">4.3771e-12</wgt>
  <wgt id="882">3.9364e-12</wgt>
  <wgt id="883">4.06686e-12</wgt>
  <wgt id="884">4.28322e-12</wgt>
  <wgt id="885">4.28465e-12</wgt>
  <wgt id="886">4.13246e-12</wgt>
  <wgt id="887">4.3678e-12</wgt>
  <wgt id="888">3.9622e-12</wgt>
  <wgt id="889">4.13517e-12</wgt>
  <wgt id="890">4.38117e-12</wgt>
  <wgt id="891">4.16439e-12</wgt>
  <wgt id="892">4.50935e-12</wgt>
  <wgt id="893">4.40193e-12</wgt>
  <wgt id="894">4.42728e-12</wgt>
  <wgt id="895">4.14547e-12</wgt>
  <wgt id="896">4.87296e-12</wgt>
  <wgt id="897">4.42457e-12</wgt>
  <wgt id="898">4.05025e-12</wgt>
  <wgt id="899">3.96707e-12</wgt>
  <wgt id="900">4.0646e-12</wgt>
  <wgt id="901">3.86883e-12</wgt>
  <wgt id="902">3.83357e-12</wgt>
  <wgt id="903">3.67545e-12</wgt>
  <wgt id="904">4.19456e-12</wgt>
  <wgt id="905">4.03056e-12</wgt>
  <wgt id="906">4.77407e-12</wgt>
  <wgt id="907">4.5413e-12</wgt>
  <wgt id="908">4.35531e-12</wgt>
  <wgt id="909">3.90009e-12</wgt>
  <wgt id="910">4.01814e-12</wgt>
  <wgt id="911">4.1288e-12</wgt>
  <wgt id="912">4.11e-12</wgt>
  <wgt id="913">3.75858e-12</wgt>
  <wgt id="914">4.16352e-12</wgt>
  <wgt id="915">4.11627e-12</wgt>
  <wgt id="916">4.50485e-12</wgt>
  <wgt id="917">4.13184e-12</wgt>
  <wgt id="918">4.13928e-12</wgt>
  <wgt id="919">4.02429e-12</wgt>
  <wgt id="920">3.99854e-12</wgt>
  <wgt id="921">4.1502e-12</wgt>
  <wgt id="922">3.80848e-12</wgt>
  <wgt id="923">3.94562e-12</wgt>
  <wgt id="924">3.89141e-12</wgt>
  <wgt id="925">3.73699e-12</wgt>
  <wgt id="926">4.44409e-12</wgt>
  <wgt id="927">4.36723e-12</wgt>
  <wgt id="928">4.41443e-12</wgt>
  <wgt id="929">4.22417e-12</wgt>
  <wgt id="930">4.08488e-12</wgt>
  <wgt id="931">4.10826e-12</wgt>
  <wgt id="932">3.80873e-12</wgt>
  <wgt id="933">4.49115e-12</wgt>
  <wgt id="934">4.134e-12</wgt>
  <wgt id="935">4.57938e-12</wgt>
  <wgt id="936">4.17791e-12</wgt>
  <wgt id="937">4.2814e-12</wgt>
  <wgt id="938">4.16154e-12</wgt>
  <wgt id="939">4.11059e-12</wgt>
  <wgt id="940">4.25125e-12</wgt>
  <wgt id="941">3.98716e-12</wgt>
  <wgt id="942">4.21829e-12</wgt>
  <wgt id="943">4.6354e-12</wgt>
  <wgt id="944">3.72651e-12</wgt>
  <wgt id="945">4.11725e-12</wgt>
  <wgt id="946">4.01351e-12</wgt>
  <wgt id="947">4.09741e-12</wgt>
  <wgt id="948">4.36081e-12</wgt>
  <wgt id="949">4.42591e-12</wgt>
  <wgt id="950">3.81303e-12</wgt>
  <wgt id="951">4.12475e-12</wgt>
  <wgt id="952">4.40645e-12</wgt>
  <wgt id="953">4.22025e-12</wgt>
  <wgt id="954">4.32087e-12</wgt>
  <wgt id="955">3.84369e-12</wgt>
  <wgt id="956">3.98188e-12</wgt>
  <wgt id="957">4.35239e-12</wgt>
  <wgt id="958">4.20027e-12</wgt>
  <wgt id="959">4.20744e-12</wgt>
  <wgt id="960">3.86233e-12</wgt>
  <wgt id="961">4.2239e-12</wgt>
  <wgt id="962">4.23357e-12</wgt>
  <wgt id="963">4.24056e-12</wgt>
  <wgt id="964">4.40316e-12</wgt>
  <wgt id="965">4.42247e-12</wgt>
  <wgt id="966">4.17331e-12</wgt>
  <wgt id="967">4.3415e-12</wgt>
  <wgt id="968">4.24691e-12</wgt>
  <wgt id="969">4.17217e-12</wgt>
  <wgt id="970">4.28538e-12</wgt>
  <wgt id="971">3.95606e-12</wgt>
  <wgt id="972">4.4297e-12</wgt>
  <wgt id="973">4.06242e-12</wgt>
  <wgt id="974">4.92517e-12</wgt>
  <wgt id="975">3.94435e-12</wgt>
  <wgt id="976">4.15461e-12</wgt>
  <wgt id="977">3.73967e-12</wgt>
  <wgt id="978">4.39856e-12</wgt>
  <wgt id="979">4.56608e-12</wgt>
  <wgt id="980">4.18287e-12</wgt>
  <wgt id="981">4.20263e-12</wgt>
  <wgt id="982">4.06265e-12</wgt>
</rwgt>
</event>
<event>
 5   1  0.3028200E-11  0.2559065E+04  0.7818608E-02  0.7625692E-01
       21   -1    0    0  502  501  0.00000000000E+00  0.00000000000E+00  0.60432355434E+03  0.60432355434E+03  0.00000000000E+00 0.  1.
       21   -1    0    0  501  502 -0.00000000000E+00 -0.00000000000E+00 -0.27091514638E+04  0.27091514638E+04  0.00000000000E+00 0. -1.
       39    2    1    2    0    0  0.00000000000E+00  0.00000000000E+00 -0.21048279094E+04  0.33134750181E+04  0.25590654871E+04 0.  0.
       25    1    3    3    0    0  0.55601834000E+03  0.10970499602E+04 -0.14797054814E+04  0.19281670886E+04  0.12500000000E+03 0.  0.
       25    1    3    3    0    0 -0.55601834000E+03 -0.10970499602E+04 -0.62512242800E+03  0.13853079295E+04  0.12500000000E+03 0.  0.
<mgrwt>
<rscale>  0 0.25590655E+04</rscale>
<asrwt>0</asrwt>
<pdfrwt beam="1">  1       21 0.92972853E-01 0.25590655E+04</pdfrwt>
<pdfrwt beam="2">  1       21 0.41679254E+00 0.25590655E+04</pdfrwt>
<totfact> 0.20605435E+00</totfact>
</mgrwt>
<rwgt>
  <wgt id="1">3.0282e-12</wgt>
  <wgt id="2">2.5708e-12</wgt>
  <wgt id="3">3.61529e-12</wgt>
  <wgt id="4">3.0282e-12</wgt>
  <wgt id="5">2.5708e-12</wgt>
  <wgt id="6">3.61529e-12</wgt>
  <wgt id="7">3.0282e-12</wgt>
  <wgt id="8">2.5708e-12</wgt>
  <wgt id="9">3.61529e-12</wgt>
  <wgt id="10">3.27074e-12</wgt>
  <wgt id="11">3.27494e-12</wgt>
  <wgt id="12">3.25886e-12</wgt>
  <wgt id="13">3.26945e-12</wgt>
  <wgt id="14">3.26852e-12</wgt>
  <wgt id="15">3.27234e-12</wgt>
  <wgt id="16">3.25066e-12</wgt>
  <wgt id="17">3.3024e-12</wgt>
  <wgt id="18">3.27215e-12</wgt>
  <wgt id="19">3.29007e-12</wgt>
  <wgt id="20">3.27783e-12</wgt>
  <wgt id="21">3.23071e-12</wgt>
  <wgt id="22">3.23857e-12</wgt>
  <wgt id="23">3.20935e-12</wgt>
  <wgt id="24">3.24118e-12</wgt>
  <wgt id="25">3.26427e-12</wgt>
  <wgt id="26">3.27795e-12</wgt>
  <wgt id="27">3.26401e-12</wgt>
  <wgt id="28">3.24846e-12</wgt>
  <wgt id="29">3.2703e-12</wgt>
  <wgt id="30">3.23445e-12</wgt>
  <wgt id="31">3.28477e-12</wgt>
  <wgt id="32">3.2261e-12</wgt>
  <wgt id="33">3.27221e-12</wgt>
  <wgt id="34">3.23835e-12</wgt>
  <wgt id="35">3.22611e-12</wgt>
  <wgt id="36">3.28721e-12</wgt>
  <wgt id="37">3.26069e-12</wgt>
  <wgt id="38">3.25211e-12</wgt>
  <wgt id="39">3.35235e-12</wgt>
  <wgt id="40">3.28527e-12</wgt>
  <wgt id="41">3.26431e-12</wgt>
  <wgt id="42">3.27696e-12</wgt>
  <wgt id="43">3.27841e-12</wgt>
  <wgt id="44">3.29593e-12</wgt>
  <wgt id="45">3.27894e-12</wgt>
  <wgt id="46">3.23896e-12</wgt>
  <wgt id="47">3.33948e-12</wgt>
  <wgt id="48">3.31854e-12</wgt>
  <wgt id="49">3.26239e-12</wgt>
  <wgt id="50">3.22247e-12</wgt>
  <wgt id="51">3.23583e-12</wgt>
  <wgt id="52">3.2714e-12</wgt>
  <wgt id="53">3.3713e-12</wgt>
  <wgt id="54">3.30357e-12</wgt>
  <wgt id="55">3.2548e-12</wgt>
  <wgt id="56">3.19196e-12</wgt>
  <wgt id="57">3.2079e-12</wgt>
  <wgt id="58">3.26969e-12</wgt>
  <wgt id="59">3.29249e-12</wgt>
  <wgt id="60">3.20381e-12</wgt>
  <wgt id="61">3.28396e-12</wgt>
  <wgt id="62">3.30286e-12</wgt>
  <wgt id="63">3.25958e-12</wgt>
  <wgt id="64">3.26449e-12</wgt>
  <wgt id="65">3.24132e-12</wgt>
  <wgt id="66">3.30942e-12</wgt>
  <wgt id="67">3.32311e-12</wgt>
  <wgt id="68">3.27007e-12</wgt>
  <wgt id="69">3.26685e-12</wgt>
  <wgt id="70">3.22722e-12</wgt>
  <wgt id="71">3.30628e-12</wgt>
  <wgt id="72">3.30381e-12</wgt>
  <wgt id="73">3.24066e-12</wgt>
  <wgt id="74">3.30169e-12</wgt>
  <wgt id="75">3.20707e-12</wgt>
  <wgt id="76">3.29511e-12</wgt>
  <wgt id="77">3.25709e-12</wgt>
  <wgt id="78">3.26571e-12</wgt>
  <wgt id="79">3.2758e-12</wgt>
  <wgt id="80">3.25054e-12</wgt>
  <wgt id="81">3.26309e-12</wgt>
  <wgt id="82">3.27069e-12</wgt>
  <wgt id="83">3.23793e-12</wgt>
  <wgt id="84">3.23945e-12</wgt>
  <wgt id="85">3.23462e-12</wgt>
  <wgt id="86">3.31726e-12</wgt>
  <wgt id="87">3.20838e-12</wgt>
  <wgt id="88">3.28627e-12</wgt>
  <wgt id="89">3.28452e-12</wgt>
  <wgt id="90">3.3012e-12</wgt>
  <wgt id="91">3.27233e-12</wgt>
  <wgt id="92">3.28964e-12</wgt>
  <wgt id="93">3.27913e-12</wgt>
  <wgt id="94">3.24632e-12</wgt>
  <wgt id="95">3.30243e-12</wgt>
  <wgt id="96">3.29982e-12</wgt>
  <wgt id="97">3.23332e-12</wgt>
  <wgt id="98">3.272e-12</wgt>
  <wgt id="99">3.25972e-12</wgt>
  <wgt id="100">3.28256e-12</wgt>
  <wgt id="101">3.25397e-12</wgt>
  <wgt id="102">3.26111e-12</wgt>
  <wgt id="103">3.29721e-12</wgt>
  <wgt id="104">3.2663e-12</wgt>
  <wgt id="105">3.30061e-12</wgt>
  <wgt id="106">3.24543e-12</wgt>
  <wgt id="107">3.31693e-12</wgt>
  <wgt id="108">3.25743e-12</wgt>
  <wgt id="109">3.26748e-12</wgt>
  <wgt id="110">3.27166e-12</wgt>
  <wgt id="111">3.22365e-12</wgt>
  <wgt id="112">3.34265e-12</wgt>
  <wgt id="113">5.24528e-12</wgt>
  <wgt id="114">4.19168e-12</wgt>
  <wgt id="115">4.1126e-12</wgt>
  <wgt id="116">5.7999e-12</wgt>
  <wgt id="117">3.64142e-12</wgt>
  <wgt id="118">3.65742e-12</wgt>
  <wgt id="119">3.63255e-12</wgt>
  <wgt id="120">3.64123e-12</wgt>
  <wgt id="121">3.64154e-12</wgt>
  <wgt id="122">3.6367e-12</wgt>
  <wgt id="123">3.64837e-12</wgt>
  <wgt id="124">3.63731e-12</wgt>
  <wgt id="125">3.64427e-12</wgt>
  <wgt id="126">3.64611e-12</wgt>
  <wgt id="127">3.63847e-12</wgt>
  <wgt id="128">3.65229e-12</wgt>
  <wgt id="129">3.63082e-12</wgt>
  <wgt id="130">3.6564e-12</wgt>
  <wgt id="131">3.62596e-12</wgt>
  <wgt id="132">3.52924e-12</wgt>
  <wgt id="133">3.77664e-12</wgt>
  <wgt id="134">3.60158e-12</wgt>
  <wgt id="135">3.67298e-12</wgt>
  <wgt id="136">3.7117e-12</wgt>
  <wgt id="137">3.55775e-12</wgt>
  <wgt id="138">3.8464e-12</wgt>
  <wgt id="139">3.45172e-12</wgt>
  <wgt id="140">3.63304e-12</wgt>
  <wgt id="141">3.64704e-12</wgt>
  <wgt id="142">3.63932e-12</wgt>
  <wgt id="143">3.65918e-12</wgt>
  <wgt id="144">3.4236e-12</wgt>
  <wgt id="145">3.86529e-12</wgt>
  <wgt id="146">3.71659e-12</wgt>
  <wgt id="147">3.57896e-12</wgt>
  <wgt id="148">3.65653e-12</wgt>
  <wgt id="149">3.64038e-12</wgt>
  <wgt id="150">3.67175e-12</wgt>
  <wgt id="151">3.62725e-12</wgt>
  <wgt id="152">3.64152e-12</wgt>
  <wgt id="153">3.64139e-12</wgt>
  <wgt id="154">3.62292e-12</wgt>
  <wgt id="155">3.64909e-12</wgt>
  <wgt id="156">3.84148e-12</wgt>
  <wgt id="157">3.47734e-12</wgt>
  <wgt id="158">4.3213e-12</wgt>
  <wgt id="159">4.34018e-12</wgt>
  <wgt id="160">4.30599e-12</wgt>
  <wgt id="161">4.30899e-12</wgt>
  <wgt id="162">4.3351e-12</wgt>
  <wgt id="163">4.31562e-12</wgt>
  <wgt id="164">4.3296e-12</wgt>
  <wgt id="165">4.32259e-12</wgt>
  <wgt id="166">4.32014e-12</wgt>
  <wgt id="167">4.31871e-12</wgt>
  <wgt id="168">4.32506e-12</wgt>
  <wgt id="169">4.30532e-12</wgt>
  <wgt id="170">4.33129e-12</wgt>
  <wgt id="171">4.31908e-12</wgt>
  <wgt id="172">4.32426e-12</wgt>
  <wgt id="173">4.30477e-12</wgt>
  <wgt id="174">4.32714e-12</wgt>
  <wgt id="175">4.18208e-12</wgt>
  <wgt id="176">4.50504e-12</wgt>
  <wgt id="177">4.33756e-12</wgt>
  <wgt id="178">4.30692e-12</wgt>
  <wgt id="179">4.60273e-12</wgt>
  <wgt id="180">3.90137e-12</wgt>
  <wgt id="181">4.14687e-12</wgt>
  <wgt id="182">4.43913e-12</wgt>
  <wgt id="183">4.21565e-12</wgt>
  <wgt id="184">4.37404e-12</wgt>
  <wgt id="185">4.25839e-12</wgt>
  <wgt id="186">4.39757e-12</wgt>
  <wgt id="187">4.25866e-12</wgt>
  <wgt id="188">4.43047e-12</wgt>
  <wgt id="189">4.27894e-12</wgt>
  <wgt id="190">4.33842e-12</wgt>
  <wgt id="191">4.34152e-12</wgt>
  <wgt id="192">4.30903e-12</wgt>
  <wgt id="193">4.41132e-12</wgt>
  <wgt id="194">4.27553e-12</wgt>
  <wgt id="195">4.08996e-12</wgt>
  <wgt id="196">4.68771e-12</wgt>
  <wgt id="197">4.34679e-12</wgt>
  <wgt id="198">4.31505e-12</wgt>
  <wgt id="199">4.3213e-12</wgt>
  <wgt id="200">4.37034e-12</wgt>
  <wgt id="201">4.35502e-12</wgt>
  <wgt id="202">4.33946e-12</wgt>
  <wgt id="203">4.31887e-12</wgt>
  <wgt id="204">4.30759e-12</wgt>
  <wgt id="205">4.2986e-12</wgt>
  <wgt id="206">4.26083e-12</wgt>
  <wgt id="207">4.28738e-12</wgt>
  <wgt id="208">4.23417e-12</wgt>
  <wgt id="209">4.27526e-12</wgt>
  <wgt id="210">4.25011e-12</wgt>
  <wgt id="211">4.25903e-12</wgt>
  <wgt id="212">4.26206e-12</wgt>
  <wgt id="213">4.2603e-12</wgt>
  <wgt id="214">4.26112e-12</wgt>
  <wgt id="215">4.26457e-12</wgt>
  <wgt id="216">4.25807e-12</wgt>
  <wgt id="217">4.26857e-12</wgt>
  <wgt id="218">4.25454e-12</wgt>
  <wgt id="219">4.2563e-12</wgt>
  <wgt id="220">4.26356e-12</wgt>
  <wgt id="221">4.26552e-12</wgt>
  <wgt id="222">4.24729e-12</wgt>
  <wgt id="223">3.97829e-12</wgt>
  <wgt id="224">4.52214e-12</wgt>
  <wgt id="225">4.2034e-12</wgt>
  <wgt id="226">4.33434e-12</wgt>
  <wgt id="227">4.21638e-12</wgt>
  <wgt id="228">4.28024e-12</wgt>
  <wgt id="229">4.1921e-12</wgt>
  <wgt id="230">4.29487e-12</wgt>
  <wgt id="231">4.44306e-12</wgt>
  <wgt id="232">4.11311e-12</wgt>
  <wgt id="233">4.22384e-12</wgt>
  <wgt id="234">4.32391e-12</wgt>
  <wgt id="235">3.96429e-12</wgt>
  <wgt id="236">4.4985e-12</wgt>
  <wgt id="237">4.09727e-12</wgt>
  <wgt id="238">4.3153e-12</wgt>
  <wgt id="239">4.19699e-12</wgt>
  <wgt id="240">4.37566e-12</wgt>
  <wgt id="241">4.19426e-12</wgt>
  <wgt id="242">4.33813e-12</wgt>
  <wgt id="243">4.37345e-12</wgt>
  <wgt id="244">4.23808e-12</wgt>
  <wgt id="245">4.26077e-12</wgt>
  <wgt id="246">4.27727e-12</wgt>
  <wgt id="247">4.26083e-12</wgt>
  <wgt id="248">4.3182e-12</wgt>
  <wgt id="249">4.29976e-12</wgt>
  <wgt id="250">4.27754e-12</wgt>
  <wgt id="251">4.25161e-12</wgt>
  <wgt id="252">4.23651e-12</wgt>
  <wgt id="253">4.22698e-12</wgt>
  <wgt id="254">4.03938e-12</wgt>
  <wgt id="255">4.04282e-12</wgt>
  <wgt id="256">4.03545e-12</wgt>
  <wgt id="257">4.04243e-12</wgt>
  <wgt id="258">4.03693e-12</wgt>
  <wgt id="259">4.06697e-12</wgt>
  <wgt id="260">4.01284e-12</wgt>
  <wgt id="261">4.04801e-12</wgt>
  <wgt id="262">4.02902e-12</wgt>
  <wgt id="263">4.03498e-12</wgt>
  <wgt id="264">4.04454e-12</wgt>
  <wgt id="265">4.03375e-12</wgt>
  <wgt id="266">4.05052e-12</wgt>
  <wgt id="267">4.04083e-12</wgt>
  <wgt id="268">4.03747e-12</wgt>
  <wgt id="269">4.05243e-12</wgt>
  <wgt id="270">4.0304e-12</wgt>
  <wgt id="271">4.02355e-12</wgt>
  <wgt id="272">4.05724e-12</wgt>
  <wgt id="273">4.0293e-12</wgt>
  <wgt id="274">4.04704e-12</wgt>
  <wgt id="275">4.0042e-12</wgt>
  <wgt id="276">4.07589e-12</wgt>
  <wgt id="277">4.01759e-12</wgt>
  <wgt id="278">4.05916e-12</wgt>
  <wgt id="279">3.95769e-12</wgt>
  <wgt id="280">4.1427e-12</wgt>
  <wgt id="281">4.01219e-12</wgt>
  <wgt id="282">4.05801e-12</wgt>
  <wgt id="283">3.87599e-12</wgt>
  <wgt id="284">4.24747e-12</wgt>
  <wgt id="285">3.77352e-12</wgt>
  <wgt id="286">4.27095e-12</wgt>
  <wgt id="287">4.05597e-12</wgt>
  <wgt id="288">4.01841e-12</wgt>
  <wgt id="289">4.07918e-12</wgt>
  <wgt id="290">3.95496e-12</wgt>
  <wgt id="291">4.01998e-12</wgt>
  <wgt id="292">4.03304e-12</wgt>
  <wgt id="293">3.99605e-12</wgt>
  <wgt id="294">4.08274e-12</wgt>
  <wgt id="295">3.93465e-12</wgt>
  <wgt id="296">4.16803e-12</wgt>
  <wgt id="297">4.01309e-12</wgt>
  <wgt id="298">4.06929e-12</wgt>
  <wgt id="299">4.02359e-12</wgt>
  <wgt id="300">4.08156e-12</wgt>
  <wgt id="301">3.91093e-12</wgt>
  <wgt id="302">4.32151e-12</wgt>
  <wgt id="303">3.97038e-12</wgt>
  <wgt id="304">4.07746e-12</wgt>
  <wgt id="305">3.93666e-12</wgt>
  <wgt id="306">3.94024e-12</wgt>
  <wgt id="307">3.93284e-12</wgt>
  <wgt id="308">3.94016e-12</wgt>
  <wgt id="309">3.93462e-12</wgt>
  <wgt id="310">3.96406e-12</wgt>
  <wgt id="311">3.91147e-12</wgt>
  <wgt id="312">3.94544e-12</wgt>
  <wgt id="313">3.92729e-12</wgt>
  <wgt id="314">3.93186e-12</wgt>
  <wgt id="315">3.94142e-12</wgt>
  <wgt id="316">3.93086e-12</wgt>
  <wgt id="317">3.94963e-12</wgt>
  <wgt id="318">3.93994e-12</wgt>
  <wgt id="319">3.93111e-12</wgt>
  <wgt id="320">3.95102e-12</wgt>
  <wgt id="321">3.92888e-12</wgt>
  <wgt id="322">3.92095e-12</wgt>
  <wgt id="323">3.95519e-12</wgt>
  <wgt id="324">3.93065e-12</wgt>
  <wgt id="325">3.94197e-12</wgt>
  <wgt id="326">3.90756e-12</wgt>
  <wgt id="327">3.97436e-12</wgt>
  <wgt id="328">3.92034e-12</wgt>
  <wgt id="329">3.94511e-12</wgt>
  <wgt id="330">4.05573e-12</wgt>
  <wgt id="331">3.82443e-12</wgt>
  <wgt id="332">3.91397e-12</wgt>
  <wgt id="333">3.94999e-12</wgt>
  <wgt id="334">3.81752e-12</wgt>
  <wgt id="335">4.08868e-12</wgt>
  <wgt id="336">3.75495e-12</wgt>
  <wgt id="337">4.16803e-12</wgt>
  <wgt id="338">3.9937e-12</wgt>
  <wgt id="339">3.88523e-12</wgt>
  <wgt id="340">3.97038e-12</wgt>
  <wgt id="341">3.85684e-12</wgt>
  <wgt id="342">3.92446e-12</wgt>
  <wgt id="343">3.91918e-12</wgt>
  <wgt id="344">3.90065e-12</wgt>
  <wgt id="345">3.97887e-12</wgt>
  <wgt id="346">3.83283e-12</wgt>
  <wgt id="347">4.05508e-12</wgt>
  <wgt id="348">3.90992e-12</wgt>
  <wgt id="349">3.96529e-12</wgt>
  <wgt id="350">3.91785e-12</wgt>
  <wgt id="351">3.98514e-12</wgt>
  <wgt id="352">3.81361e-12</wgt>
  <wgt id="353">4.19463e-12</wgt>
  <wgt id="354">3.84459e-12</wgt>
  <wgt id="355">3.99037e-12</wgt>
  <wgt id="356">4.03938e-12</wgt>
  <wgt id="357">3.92233e-12</wgt>
  <wgt id="358">3.93666e-12</wgt>
  <wgt id="359">4.01696e-12</wgt>
  <wgt id="360">4.17384e-12</wgt>
  <wgt id="361">4.07246e-12</wgt>
  <wgt id="362">4.17714e-12</wgt>
  <wgt id="363">4.16408e-12</wgt>
  <wgt id="364">4.13329e-12</wgt>
  <wgt id="365">4.11335e-12</wgt>
  <wgt id="366">4.09487e-12</wgt>
  <wgt id="367">4.06261e-12</wgt>
  <wgt id="368">4.03901e-12</wgt>
  <wgt id="369">4.0136e-12</wgt>
  <wgt id="370">4.07246e-12</wgt>
  <wgt id="371">4.0881e-12</wgt>
  <wgt id="372">4.07916e-12</wgt>
  <wgt id="373">4.06732e-12</wgt>
  <wgt id="374">4.0808e-12</wgt>
  <wgt id="375">5.20224e-12</wgt>
  <wgt id="376">5.20264e-12</wgt>
  <wgt id="377">5.20187e-12</wgt>
  <wgt id="378">5.2241e-12</wgt>
  <wgt id="379">5.18083e-12</wgt>
  <wgt id="380">5.21832e-12</wgt>
  <wgt id="381">5.19598e-12</wgt>
  <wgt id="382">5.22469e-12</wgt>
  <wgt id="383">5.18042e-12</wgt>
  <wgt id="384">5.20589e-12</wgt>
  <wgt id="385">5.19897e-12</wgt>
  <wgt id="386">5.21483e-12</wgt>
  <wgt id="387">5.19701e-12</wgt>
  <wgt id="388">5.19827e-12</wgt>
  <wgt id="389">5.20747e-12</wgt>
  <wgt id="390">5.21177e-12</wgt>
  <wgt id="391">5.1925e-12</wgt>
  <wgt id="392">5.1446e-12</wgt>
  <wgt id="393">5.23511e-12</wgt>
  <wgt id="394">5.2023e-12</wgt>
  <wgt id="395">5.20247e-12</wgt>
  <wgt id="396">5.21738e-12</wgt>
  <wgt id="397">5.19189e-12</wgt>
  <wgt id="398">5.20124e-12</wgt>
  <wgt id="399">5.2035e-12</wgt>
  <wgt id="400">5.19174e-12</wgt>
  <wgt id="401">5.22682e-12</wgt>
  <wgt id="402">5.13545e-12</wgt>
  <wgt id="403">5.2593e-12</wgt>
  <wgt id="404">5.41315e-12</wgt>
  <wgt id="405">4.71192e-12</wgt>
  <wgt id="406">5.05115e-12</wgt>
  <wgt id="407">5.54599e-12</wgt>
  <wgt id="408">5.28216e-12</wgt>
  <wgt id="409">5.05878e-12</wgt>
  <wgt id="410">4.96068e-12</wgt>
  <wgt id="411">5.32258e-12</wgt>
  <wgt id="412">5.18618e-12</wgt>
  <wgt id="413">5.22527e-12</wgt>
  <wgt id="414">5.10756e-12</wgt>
  <wgt id="415">5.27626e-12</wgt>
  <wgt id="416">5.4604e-12</wgt>
  <wgt id="417">4.85536e-12</wgt>
  <wgt id="418">5.21808e-12</wgt>
  <wgt id="419">5.11746e-12</wgt>
  <wgt id="420">5.42505e-12</wgt>
  <wgt id="421">5.04726e-12</wgt>
  <wgt id="422">5.12806e-12</wgt>
  <wgt id="423">5.23554e-12</wgt>
  <wgt id="424">5.45678e-12</wgt>
  <wgt id="425">5.02539e-12</wgt>
  <wgt id="426">5.20224e-12</wgt>
  <wgt id="427">5.0004e-12</wgt>
  <wgt id="428">5.62423e-12</wgt>
  <wgt id="429">5.31759e-12</wgt>
  <wgt id="430">5.55974e-12</wgt>
  <wgt id="431">5.50759e-12</wgt>
  <wgt id="432">5.46415e-12</wgt>
  <wgt id="433">5.421e-12</wgt>
  <wgt id="434">5.36316e-12</wgt>
  <wgt id="435">5.26107e-12</wgt>
  <wgt id="436">5.21137e-12</wgt>
  <wgt id="437">5.16078e-12</wgt>
  <wgt id="438">5.31759e-12</wgt>
  <wgt id="439">5.33256e-12</wgt>
  <wgt id="440">5.32233e-12</wgt>
  <wgt id="441">5.31506e-12</wgt>
  <wgt id="442">5.31353e-12</wgt>
  <wgt id="443">4.18139e-12</wgt>
  <wgt id="444">4.25098e-12</wgt>
  <wgt id="445">4.28483e-12</wgt>
  <wgt id="446">4.15658e-12</wgt>
  <wgt id="447">4.1742e-12</wgt>
  <wgt id="448">4.08985e-12</wgt>
  <wgt id="449">4.32145e-12</wgt>
  <wgt id="450">4.28536e-12</wgt>
  <wgt id="451">4.16817e-12</wgt>
  <wgt id="452">4.27227e-12</wgt>
  <wgt id="453">4.28753e-12</wgt>
  <wgt id="454">3.89078e-12</wgt>
  <wgt id="455">4.25152e-12</wgt>
  <wgt id="456">4.32242e-12</wgt>
  <wgt id="457">4.19507e-12</wgt>
  <wgt id="458">4.27692e-12</wgt>
  <wgt id="459">4.22015e-12</wgt>
  <wgt id="460">4.33846e-12</wgt>
  <wgt id="461">4.04738e-12</wgt>
  <wgt id="462">4.14328e-12</wgt>
  <wgt id="463">4.09304e-12</wgt>
  <wgt id="464">4.16497e-12</wgt>
  <wgt id="465">4.22545e-12</wgt>
  <wgt id="466">3.99108e-12</wgt>
  <wgt id="467">4.15856e-12</wgt>
  <wgt id="468">4.19512e-12</wgt>
  <wgt id="469">4.16052e-12</wgt>
  <wgt id="470">4.08083e-12</wgt>
  <wgt id="471">4.09972e-12</wgt>
  <wgt id="472">4.22466e-12</wgt>
  <wgt id="473">4.01188e-12</wgt>
  <wgt id="474">3.0282e-12</wgt>
  <wgt id="475">3.08631e-12</wgt>
  <wgt id="476">3.13244e-12</wgt>
  <wgt id="477">3.30566e-12</wgt>
  <wgt id="478">3.23179e-12</wgt>
  <wgt id="479">2.64438e-12</wgt>
  <wgt id="480">3.30826e-12</wgt>
  <wgt id="481">3.09111e-12</wgt>
  <wgt id="482">3.2649e-12</wgt>
  <wgt id="483">3.40705e-12</wgt>
  <wgt id="484">3.29245e-12</wgt>
  <wgt id="485">2.67473e-12</wgt>
  <wgt id="486">3.19302e-12</wgt>
  <wgt id="487">2.81277e-12</wgt>
  <wgt id="488">2.88391e-12</wgt>
  <wgt id="489">2.37273e-12</wgt>
  <wgt id="490">3.1117e-12</wgt>
  <wgt id="491">2.95677e-12</wgt>
  <wgt id="492">2.98101e-12</wgt>
  <wgt id="493">2.51996e-12</wgt>
  <wgt id="494">2.49342e-12</wgt>
  <wgt id="495">3.21046e-12</wgt>
  <wgt id="496">2.62376e-12</wgt>
  <wgt id="497">2.75809e-12</wgt>
  <wgt id="498">3.08966e-12</wgt>
  <wgt id="499">3.13819e-12</wgt>
  <wgt id="500">3.24412e-12</wgt>
  <wgt id="501">3.29773e-12</wgt>
  <wgt id="502">3.49642e-12</wgt>
  <wgt id="503">2.9041e-12</wgt>
  <wgt id="504">3.15603e-12</wgt>
  <wgt id="505">3.34113e-12</wgt>
  <wgt id="506">2.45836e-12</wgt>
  <wgt id="507">2.75232e-12</wgt>
  <wgt id="508">3.23805e-12</wgt>
  <wgt id="509">3.08718e-12</wgt>
  <wgt id="510">2.89489e-12</wgt>
  <wgt id="511">2.81964e-12</wgt>
  <wgt id="512">3.38312e-12</wgt>
  <wgt id="513">3.37441e-12</wgt>
  <wgt id="514">3.48194e-12</wgt>
  <wgt id="515">3.45282e-12</wgt>
  <wgt id="516">3.57012e-12</wgt>
  <wgt id="517">3.10678e-12</wgt>
  <wgt id="518">3.34906e-12</wgt>
  <wgt id="519">2.96274e-12</wgt>
  <wgt id="520">2.83499e-12</wgt>
  <wgt id="521">2.76587e-12</wgt>
  <wgt id="522">3.02379e-12</wgt>
  <wgt id="523">2.91659e-12</wgt>
  <wgt id="524">3.19081e-12</wgt>
  <wgt id="525">2.90548e-12</wgt>
  <wgt id="526">3.38417e-12</wgt>
  <wgt id="527">3.01134e-12</wgt>
  <wgt id="528">2.81779e-12</wgt>
  <wgt id="529">2.50287e-12</wgt>
  <wgt id="530">3.34394e-12</wgt>
  <wgt id="531">2.81533e-12</wgt>
  <wgt id="532">3.29378e-12</wgt>
  <wgt id="533">3.20283e-12</wgt>
  <wgt id="534">2.66572e-12</wgt>
  <wgt id="535">3.25905e-12</wgt>
  <wgt id="536">3.32141e-12</wgt>
  <wgt id="537">2.64599e-12</wgt>
  <wgt id="538">2.97271e-12</wgt>
  <wgt id="539">2.95405e-12</wgt>
  <wgt id="540">2.94015e-12</wgt>
  <wgt id="541">3.01593e-12</wgt>
  <wgt id="542">2.7277e-12</wgt>
  <wgt id="543">2.70936e-12</wgt>
  <wgt id="544">2.96238e-12</wgt>
  <wgt id="545">2.69208e-12</wgt>
  <wgt id="546">2.65915e-12</wgt>
  <wgt id="547">2.7768e-12</wgt>
  <wgt id="548">3.13836e-12</wgt>
  <wgt id="549">2.95934e-12</wgt>
  <wgt id="550">2.55677e-12</wgt>
  <wgt id="551">2.86112e-12</wgt>
  <wgt id="552">3.07845e-12</wgt>
  <wgt id="553">2.58485e-12</wgt>
  <wgt id="554">3.07395e-12</wgt>
  <wgt id="555">3.03098e-12</wgt>
  <wgt id="556">3.1117e-12</wgt>
  <wgt id="557">2.91953e-12</wgt>
  <wgt id="558">3.01205e-12</wgt>
  <wgt id="559">3.22639e-12</wgt>
  <wgt id="560">3.32976e-12</wgt>
  <wgt id="561">3.40173e-12</wgt>
  <wgt id="562">3.18497e-12</wgt>
  <wgt id="563">3.23803e-12</wgt>
  <wgt id="564">3.38672e-12</wgt>
  <wgt id="565">3.52073e-12</wgt>
  <wgt id="566">2.5639e-12</wgt>
  <wgt id="567">3.17158e-12</wgt>
  <wgt id="568">2.65813e-12</wgt>
  <wgt id="569">3.09611e-12</wgt>
  <wgt id="570">3.31054e-12</wgt>
  <wgt id="571">3.48875e-12</wgt>
  <wgt id="572">2.71655e-12</wgt>
  <wgt id="573">2.94828e-12</wgt>
  <wgt id="574">3.0405e-12</wgt>
  <wgt id="575">3.28929e-12</wgt>
  <wgt id="576">3.77314e-12</wgt>
  <wgt id="577">3.26808e-12</wgt>
  <wgt id="578">2.96825e-12</wgt>
  <wgt id="579">3.4212e-12</wgt>
  <wgt id="580">3.35383e-12</wgt>
  <wgt id="581">3.66614e-12</wgt>
  <wgt id="582">3.59235e-12</wgt>
  <wgt id="583">3.55444e-12</wgt>
  <wgt id="584">3.31837e-12</wgt>
  <wgt id="585">2.89825e-12</wgt>
  <wgt id="586">3.01166e-12</wgt>
  <wgt id="587">3.37135e-12</wgt>
  <wgt id="588">4.13393e-12</wgt>
  <wgt id="589">3.92469e-12</wgt>
  <wgt id="590">3.41025e-12</wgt>
  <wgt id="591">3.44359e-12</wgt>
  <wgt id="592">3.27911e-12</wgt>
  <wgt id="593">3.1502e-12</wgt>
  <wgt id="594">3.05591e-12</wgt>
  <wgt id="595">3.8046e-12</wgt>
  <wgt id="596">3.71624e-12</wgt>
  <wgt id="597">3.33509e-12</wgt>
  <wgt id="598">3.68403e-12</wgt>
  <wgt id="599">3.71154e-12</wgt>
  <wgt id="600">4.01119e-12</wgt>
  <wgt id="601">3.09937e-12</wgt>
  <wgt id="602">2.94217e-12</wgt>
  <wgt id="603">2.81752e-12</wgt>
  <wgt id="604">3.60916e-12</wgt>
  <wgt id="605">3.15421e-12</wgt>
  <wgt id="606">3.01759e-12</wgt>
  <wgt id="607">3.64957e-12</wgt>
  <wgt id="608">3.37045e-12</wgt>
  <wgt id="609">3.1103e-12</wgt>
  <wgt id="610">2.97491e-12</wgt>
  <wgt id="611">2.96533e-12</wgt>
  <wgt id="612">3.23868e-12</wgt>
  <wgt id="613">2.97529e-12</wgt>
  <wgt id="614">3.35876e-12</wgt>
  <wgt id="615">3.6095e-12</wgt>
  <wgt id="616">2.73063e-12</wgt>
  <wgt id="617">3.46257e-12</wgt>
  <wgt id="618">3.69086e-12</wgt>
  <wgt id="619">3.22956e-12</wgt>
  <wgt id="620">3.31635e-12</wgt>
  <wgt id="621">3.26859e-12</wgt>
  <wgt id="622">3.37135e-12</wgt>
  <wgt id="623">3.19622e-12</wgt>
  <wgt id="624">3.1701e-12</wgt>
  <wgt id="625">3.04762e-12</wgt>
  <wgt id="626">2.21254e-12</wgt>
  <wgt id="627">2.76837e-12</wgt>
  <wgt id="628">3.2745e-12</wgt>
  <wgt id="629">4.0845e-12</wgt>
  <wgt id="630">3.3678e-12</wgt>
  <wgt id="631">3.64305e-12</wgt>
  <wgt id="632">2.94231e-12</wgt>
  <wgt id="633">3.25905e-12</wgt>
  <wgt id="634">2.98498e-12</wgt>
  <wgt id="635">3.08198e-12</wgt>
  <wgt id="636">3.1145e-12</wgt>
  <wgt id="637">3.47103e-12</wgt>
  <wgt id="638">3.03567e-12</wgt>
  <wgt id="639">2.93024e-12</wgt>
  <wgt id="640">2.97893e-12</wgt>
  <wgt id="641">3.6156e-12</wgt>
  <wgt id="642">2.64965e-12</wgt>
  <wgt id="643">3.12904e-12</wgt>
  <wgt id="644">3.06199e-12</wgt>
  <wgt id="645">3.38657e-12</wgt>
  <wgt id="646">2.60753e-12</wgt>
  <wgt id="647">3.62463e-12</wgt>
  <wgt id="648">3.70908e-12</wgt>
  <wgt id="649">3.44009e-12</wgt>
  <wgt id="650">3.33947e-12</wgt>
  <wgt id="651">3.45087e-12</wgt>
  <wgt id="652">3.0426e-12</wgt>
  <wgt id="653">3.12566e-12</wgt>
  <wgt id="654">3.24145e-12</wgt>
  <wgt id="655">2.83188e-12</wgt>
  <wgt id="656">3.42989e-12</wgt>
  <wgt id="657">3.74781e-12</wgt>
  <wgt id="658">3.15414e-12</wgt>
  <wgt id="659">3.22096e-12</wgt>
  <wgt id="660">2.87675e-12</wgt>
  <wgt id="661">3.09964e-12</wgt>
  <wgt id="662">3.29319e-12</wgt>
  <wgt id="663">3.48739e-12</wgt>
  <wgt id="664">3.59432e-12</wgt>
  <wgt id="665">3.10842e-12</wgt>
  <wgt id="666">3.14953e-12</wgt>
  <wgt id="667">3.47544e-12</wgt>
  <wgt id="668">3.17677e-12</wgt>
  <wgt id="669">3.1065e-12</wgt>
  <wgt id="670">3.58814e-12</wgt>
  <wgt id="671">3.39749e-12</wgt>
  <wgt id="672">3.58387e-12</wgt>
  <wgt id="673">3.76704e-12</wgt>
  <wgt id="674">3.10276e-12</wgt>
  <wgt id="675">2.97138e-12</wgt>
  <wgt id="676">4.44011e-12</wgt>
  <wgt id="677">4.38608e-12</wgt>
  <wgt id="678">5.23604e-12</wgt>
  <wgt id="679">5.17338e-12</wgt>
  <wgt id="680">4.55952e-12</wgt>
  <wgt id="681">4.18383e-12</wgt>
  <wgt id="682">4.82659e-12</wgt>
  <wgt id="683">3.77199e-12</wgt>
  <wgt id="684">5.03313e-12</wgt>
  <wgt id="685">4.63216e-12</wgt>
  <wgt id="686">4.88107e-12</wgt>
  <wgt id="687">4.38192e-12</wgt>
  <wgt id="688">4.36085e-12</wgt>
  <wgt id="689">5.04745e-12</wgt>
  <wgt id="690">4.78613e-12</wgt>
  <wgt id="691">4.64856e-12</wgt>
  <wgt id="692">4.15214e-12</wgt>
  <wgt id="693">7.2067e-12</wgt>
  <wgt id="694">5.3013e-12</wgt>
  <wgt id="695">3.6931e-12</wgt>
  <wgt id="696">3.79716e-12</wgt>
  <wgt id="697">3.40962e-12</wgt>
  <wgt id="698">3.04821e-12</wgt>
  <wgt id="699">3.55457e-12</wgt>
  <wgt id="700">3.67963e-12</wgt>
  <wgt id="701">4.49745e-12</wgt>
  <wgt id="702">3.93815e-12</wgt>
  <wgt id="703">6.57124e-12</wgt>
  <wgt id="704">5.27969e-12</wgt>
  <wgt id="705">4.96252e-12</wgt>
  <wgt id="706">3.62827e-12</wgt>
  <wgt id="707">3.91806e-12</wgt>
  <wgt id="708">3.89326e-12</wgt>
  <wgt id="709">4.04102e-12</wgt>
  <wgt id="710">2.52105e-12</wgt>
  <wgt id="711">5.18748e-12</wgt>
  <wgt id="712">4.04895e-12</wgt>
  <wgt id="713">4.83048e-12</wgt>
  <wgt id="714">3.48614e-12</wgt>
  <wgt id="715">3.86135e-12</wgt>
  <wgt id="716">4.11109e-12</wgt>
  <wgt id="717">3.19726e-12</wgt>
  <wgt id="718">4.50938e-12</wgt>
  <wgt id="719">4.09128e-12</wgt>
  <wgt id="720">4.76937e-12</wgt>
  <wgt id="721">3.58984e-12</wgt>
  <wgt id="722">2.44646e-12</wgt>
  <wgt id="723">5.66543e-12</wgt>
  <wgt id="724">5.08612e-12</wgt>
  <wgt id="725">4.84233e-12</wgt>
  <wgt id="726">4.38261e-12</wgt>
  <wgt id="727">4.61931e-12</wgt>
  <wgt id="728">4.98918e-12</wgt>
  <wgt id="729">3.21212e-12</wgt>
  <wgt id="730">5.31717e-12</wgt>
  <wgt id="731">4.44197e-12</wgt>
  <wgt id="732">5.51352e-12</wgt>
  <wgt id="733">3.85133e-12</wgt>
  <wgt id="734">4.72513e-12</wgt>
  <wgt id="735">4.03734e-12</wgt>
  <wgt id="736">3.79797e-12</wgt>
  <wgt id="737">2.93616e-12</wgt>
  <wgt id="738">4.05228e-12</wgt>
  <wgt id="739">4.44624e-12</wgt>
  <wgt id="740">6.04777e-12</wgt>
  <wgt id="741">5.25135e-12</wgt>
  <wgt id="742">3.57835e-12</wgt>
  <wgt id="743">3.87517e-12</wgt>
  <wgt id="744">4.12873e-12</wgt>
  <wgt id="745">5.4114e-12</wgt>
  <wgt id="746">5.62128e-12</wgt>
  <wgt id="747">3.36619e-12</wgt>
  <wgt id="748">4.09321e-12</wgt>
  <wgt id="749">4.98666e-12</wgt>
  <wgt id="750">5.04255e-12</wgt>
  <wgt id="751">4.6292e-12</wgt>
  <wgt id="752">3.76327e-12</wgt>
  <wgt id="753">3.64833e-12</wgt>
  <wgt id="754">4.61719e-12</wgt>
  <wgt id="755">4.07934e-12</wgt>
  <wgt id="756">4.07444e-12</wgt>
  <wgt id="757">3.50477e-12</wgt>
  <wgt id="758">4.34176e-12</wgt>
  <wgt id="759">4.73748e-12</wgt>
  <wgt id="760">3.86598e-12</wgt>
  <wgt id="761">5.47278e-12</wgt>
  <wgt id="762">5.53439e-12</wgt>
  <wgt id="763">5.32729e-12</wgt>
  <wgt id="764">5.21265e-12</wgt>
  <wgt id="765">4.62996e-12</wgt>
  <wgt id="766">4.82435e-12</wgt>
  <wgt id="767">4.73331e-12</wgt>
  <wgt id="768">3.76472e-12</wgt>
  <wgt id="769">4.60531e-12</wgt>
  <wgt id="770">3.32219e-12</wgt>
  <wgt id="771">6.31388e-12</wgt>
  <wgt id="772">4.10832e-12</wgt>
  <wgt id="773">4.75809e-12</wgt>
  <wgt id="774">3.22236e-12</wgt>
  <wgt id="775">4.83394e-12</wgt>
  <wgt id="776">6.2092e-12</wgt>
  <wgt id="777">3.06237e-12</wgt>
  <wgt id="778">2.14149e-12</wgt>
  <wgt id="779">1.46118e-13</wgt>
  <wgt id="780">2.64985e-20</wgt>
  <wgt id="781">1.98894e-12</wgt>
  <wgt id="782">2.57254e-12</wgt>
  <wgt id="783">2.7119e-20</wgt>
  <wgt id="784">2.71191e-20</wgt>
  <wgt id="785">4.31039e-12</wgt>
  <wgt id="786">2.61611e-20</wgt>
  <wgt id="787">3.71188e-12</wgt>
  <wgt id="788">2.55918e-20</wgt>
  <wgt id="789">2.76416e-20</wgt>
  <wgt id="790">2.62043e-20</wgt>
  <wgt id="791">2.35576e-12</wgt>
  <wgt id="792">3.11618e-12</wgt>
  <wgt id="793">8.92664e-13</wgt>
  <wgt id="794">2.66219e-20</wgt>
  <wgt id="795">4.08937e-12</wgt>
  <wgt id="796">4.15295e-12</wgt>
  <wgt id="797">3.38838e-12</wgt>
  <wgt id="798">6.317e-13</wgt>
  <wgt id="799">4.01151e-12</wgt>
  <wgt id="800">6.04783e-13</wgt>
  <wgt id="801">3.23581e-12</wgt>
  <wgt id="802">2.69766e-20</wgt>
  <wgt id="803">4.08588e-12</wgt>
  <wgt id="804">4.15007e-12</wgt>
  <wgt id="805">4.06557e-12</wgt>
  <wgt id="806">2.89924e-12</wgt>
  <wgt id="807">2.09644e-12</wgt>
  <wgt id="808">2.53482e-12</wgt>
  <wgt id="809">1.31626e-12</wgt>
  <wgt id="810">5.19287e-12</wgt>
  <wgt id="811">2.60046e-12</wgt>
  <wgt id="812">2.68864e-20</wgt>
  <wgt id="813">2.62562e-20</wgt>
  <wgt id="814">5.98931e-13</wgt>
  <wgt id="815">2.68027e-20</wgt>
  <wgt id="816">2.68984e-20</wgt>
  <wgt id="817">2.60095e-12</wgt>
  <wgt id="818">3.7684e-12</wgt>
  <wgt id="819">5.38015e-14</wgt>
  <wgt id="820">1.47798e-12</wgt>
  <wgt id="821">3.30842e-12</wgt>
  <wgt id="822">7.71139e-13</wgt>
  <wgt id="823">3.88804e-12</wgt>
  <wgt id="824">3.72992e-12</wgt>
  <wgt id="825">2.6377e-20</wgt>
  <wgt id="826">4.12005e-12</wgt>
  <wgt id="827">2.59629e-20</wgt>
  <wgt id="828">3.2154e-12</wgt>
  <wgt id="829">2.39781e-12</wgt>
  <wgt id="830">2.6172e-20</wgt>
  <wgt id="831">3.40799e-12</wgt>
  <wgt id="832">5.62306e-12</wgt>
  <wgt id="833">1.00116e-12</wgt>
  <wgt id="834">5.7193e-12</wgt>
  <wgt id="835">8.26992e-14</wgt>
  <wgt id="836">5.97622e-13</wgt>
  <wgt id="837">3.24805e-12</wgt>
  <wgt id="838">5.0857e-13</wgt>
  <wgt id="839">3.755e-12</wgt>
  <wgt id="840">1.54293e-12</wgt>
  <wgt id="841">3.88526e-12</wgt>
  <wgt id="842">2.19986e-12</wgt>
  <wgt id="843">2.01139e-12</wgt>
  <wgt id="844">3.17052e-12</wgt>
  <wgt id="845">5.68632e-12</wgt>
  <wgt id="846">8.31835e-13</wgt>
  <wgt id="847">2.79062e-12</wgt>
  <wgt id="848">2.74651e-20</wgt>
  <wgt id="849">3.18448e-12</wgt>
  <wgt id="850">5.18898e-12</wgt>
  <wgt id="851">3.34966e-12</wgt>
  <wgt id="852">2.66193e-20</wgt>
  <wgt id="853">3.49738e-12</wgt>
  <wgt id="854">4.57614e-12</wgt>
  <wgt id="855">3.16476e-12</wgt>
  <wgt id="856">2.61909e-20</wgt>
  <wgt id="857">8.15778e-13</wgt>
  <wgt id="858">2.61371e-12</wgt>
  <wgt id="859">1.93093e-12</wgt>
  <wgt id="860">2.67225e-12</wgt>
  <wgt id="861">7.63979e-13</wgt>
  <wgt id="862">2.6362e-12</wgt>
  <wgt id="863">3.33086e-12</wgt>
  <wgt id="864">2.14019e-12</wgt>
  <wgt id="865">5.22806e-12</wgt>
  <wgt id="866">5.41842e-12</wgt>
  <wgt id="867">2.219e-12</wgt>
  <wgt id="868">3.04894e-12</wgt>
  <wgt id="869">2.65157e-20</wgt>
  <wgt id="870">4.63209e-13</wgt>
  <wgt id="871">1.19188e-12</wgt>
  <wgt id="872">5.12439e-12</wgt>
  <wgt id="873">9.71659e-13</wgt>
  <wgt id="874">3.08202e-12</wgt>
  <wgt id="875">3.45366e-13</wgt>
  <wgt id="876">4.60853e-12</wgt>
  <wgt id="877">3.10893e-12</wgt>
  <wgt id="878">7.33586e-13</wgt>
  <wgt id="879">4.44011e-12</wgt>
  <wgt id="880">4.38608e-12</wgt>
  <wgt id="881">5.23604e-12</wgt>
  <wgt id="882">5.17338e-12</wgt>
  <wgt id="883">4.55952e-12</wgt>
  <wgt id="884">4.18383e-12</wgt>
  <wgt id="885">4.82659e-12</wgt>
  <wgt id="886">3.77199e-12</wgt>
  <wgt id="887">5.03313e-12</wgt>
  <wgt id="888">4.63216e-12</wgt>
  <wgt id="889">4.88107e-12</wgt>
  <wgt id="890">4.38192e-12</wgt>
  <wgt id="891">4.36085e-12</wgt>
  <wgt id="892">5.04745e-12</wgt>
  <wgt id="893">4.78613e-12</wgt>
  <wgt id="894">4.64856e-12</wgt>
  <wgt id="895">4.15214e-12</wgt>
  <wgt id="896">7.2067e-12</wgt>
  <wgt id="897">5.3013e-12</wgt>
  <wgt id="898">3.6931e-12</wgt>
  <wgt id="899">3.79716e-12</wgt>
  <wgt id="900">3.40962e-12</wgt>
  <wgt id="901">3.04821e-12</wgt>
  <wgt id="902">3.55457e-12</wgt>
  <wgt id="903">3.67963e-12</wgt>
  <wgt id="904">4.49745e-12</wgt>
  <wgt id="905">3.93815e-12</wgt>
  <wgt id="906">6.57124e-12</wgt>
  <wgt id="907">5.27969e-12</wgt>
  <wgt id="908">4.96252e-12</wgt>
  <wgt id="909">3.62827e-12</wgt>
  <wgt id="910">3.91806e-12</wgt>
  <wgt id="911">3.89326e-12</wgt>
  <wgt id="912">4.04102e-12</wgt>
  <wgt id="913">2.52105e-12</wgt>
  <wgt id="914">5.18748e-12</wgt>
  <wgt id="915">4.04895e-12</wgt>
  <wgt id="916">4.83048e-12</wgt>
  <wgt id="917">3.48614e-12</wgt>
  <wgt id="918">3.86135e-12</wgt>
  <wgt id="919">4.11109e-12</wgt>
  <wgt id="920">3.19726e-12</wgt>
  <wgt id="921">4.50938e-12</wgt>
  <wgt id="922">4.09128e-12</wgt>
  <wgt id="923">4.76937e-12</wgt>
  <wgt id="924">3.58984e-12</wgt>
  <wgt id="925">2.44646e-12</wgt>
  <wgt id="926">5.66543e-12</wgt>
  <wgt id="927">5.08612e-12</wgt>
  <wgt id="928">4.84233e-12</wgt>
  <wgt id="929">4.38261e-12</wgt>
  <wgt id="930">4.61931e-12</wgt>
  <wgt id="931">4.98918e-12</wgt>
  <wgt id="932">3.21212e-12</wgt>
  <wgt id="933">5.31717e-12</wgt>
  <wgt id="934">4.44197e-12</wgt>
  <wgt id="935">5.51352e-12</wgt>
  <wgt id="936">3.85133e-12</wgt>
  <wgt id="937">4.72513e-12</wgt>
  <wgt id="938">4.03734e-12</wgt>
  <wgt id="939">3.79797e-12</wgt>
  <wgt id="940">2.93616e-12</wgt>
  <wgt id="941">4.05228e-12</wgt>
  <wgt id="942">4.44624e-12</wgt>
  <wgt id="943">6.04777e-12</wgt>
  <wgt id="944">5.25135e-12</wgt>
  <wgt id="945">3.57835e-12</wgt>
  <wgt id="946">3.87517e-12</wgt>
  <wgt id="947">4.12873e-12</wgt>
  <wgt id="948">5.4114e-12</wgt>
  <wgt id="949">5.62128e-12</wgt>
  <wgt id="950">3.36619e-12</wgt>
  <wgt id="951">4.09321e-12</wgt>
  <wgt id="952">4.98666e-12</wgt>
  <wgt id="953">5.04255e-12</wgt>
  <wgt id="954">4.6292e-12</wgt>
  <wgt id="955">3.76327e-12</wgt>
  <wgt id="956">3.64833e-12</wgt>
  <wgt id="957">4.61719e-12</wgt>
  <wgt id="958">4.07934e-12</wgt>
  <wgt id="959">4.07444e-12</wgt>
  <wgt id="960">3.50477e-12</wgt>
  <wgt id="961">4.34176e-12</wgt>
  <wgt id="962">4.73748e-12</wgt>
  <wgt id="963">3.86598e-12</wgt>
  <wgt id="964">5.47278e-12</wgt>
  <wgt id="965">5.53439e-12</wgt>
  <wgt id="966">5.32729e-12</wgt>
  <wgt id="967">5.21265e-12</wgt>
  <wgt id="968">4.62996e-12</wgt>
  <wgt id="969">4.82435e-12</wgt>
  <wgt id="970">4.73331e-12</wgt>
  <wgt id="971">3.76472e-12</wgt>
  <wgt id="972">4.60531e-12</wgt>
  <wgt id="973">3.32219e-12</wgt>
  <wgt id="974">6.31388e-12</wgt>
  <wgt id="975">4.10832e-12</wgt>
  <wgt id="976">4.75809e-12</wgt>
  <wgt id="977">3.22236e-12</wgt>
  <wgt id="978">4.83394e-12</wgt>
  <wgt id="979">6.2092e-12</wgt>
  <wgt id="980">4.38831e-12</wgt>
  <wgt id="981">4.73928e-12</wgt>
  <wgt id="982">4.41494e-12</wgt>
</rwgt>
</event>
<event>
 5   1  0.3028200E-11  0.2029756E+04  0.7818608E-02  0.7816196E-01
       21   -1    0    0  502  501  0.00000000000E+00  0.00000000000E+00  0.96807458359E+03  0.96807458359E+03  0.00000000000E+00 0.  1.
       21   -1    0    0  501  502 -0.00000000000E+00 -0.00000000000E+00 -0.10639438443E+04  0.10639438443E+04  0.00000000000E+00 0. -1.
       39    2    1    2    0    0  0.00000000000E+00  0.00000000000E+00 -0.95869260686E+02  0.20320184279E+04  0.20297556444E+04 0.  0.
       25    1    3    3    0    0  0.54320597771E+02 -0.99803066973E+03 -0.17191148889E+03  0.10218583586E+04  0.12500000000E+03 0.  0.
       25    1    3    3    0    0 -0.54320597771E+02  0.99803066973E+03  0.76042228206E+02  0.10101600693E+04  0.12500000000E+03 0.  0.
<mgrwt>
<rscale>  0 0.20297556E+04</rscale>
<asrwt>0</asrwt>
<pdfrwt beam="1">  1       21 0.14893455E+00 0.20297556E+04</pdfrwt>
<pdfrwt beam="2">  1       21 0.16368367E+00 0.20297556E+04</pdfrwt>
<totfact> 0.32437556E+01</totfact>
</mgrwt>
<rwgt>
  <wgt id="1">3.0282e-12</wgt>
  <wgt id="2">2.65555e-12</wgt>
  <wgt id="3">3.48702e-12</wgt>
  <wgt id="4">3.0282e-12</wgt>
  <wgt id="5">2.65555e-12</wgt>
  <wgt id="6">3.48702e-12</wgt>
  <wgt id="7">3.0282e-12</wgt>
  <wgt id="8">2.65555e-12</wgt>
  <wgt id="9">3.48702e-12</wgt>
  <wgt id="10">3.09275e-12</wgt>
  <wgt id="11">3.08987e-12</wgt>
  <wgt id="12">3.08687e-12</wgt>
  <wgt id="13">3.08238e-12</wgt>
  <wgt id="14">3.10323e-12</wgt>
  <wgt id="15">3.09682e-12</wgt>
  <wgt id="16">3.08525e-12</wgt>
  <wgt id="17">3.09788e-12</wgt>
  <wgt id="18">3.09024e-12</wgt>
  <wgt id="19">3.09838e-12</wgt>
  <wgt id="20">3.08394e-12</wgt>
  <wgt id="21">3.07813e-12</wgt>
  <wgt id="22">3.08465e-12</wgt>
  <wgt id="23">3.0681e-12</wgt>
  <wgt id="24">3.07971e-12</wgt>
  <wgt id="25">3.0848e-12</wgt>
  <wgt id="26">3.10511e-12</wgt>
  <wgt id="27">3.09204e-12</wgt>
  <wgt id="28">3.0778e-12</wgt>
  <wgt id="29">3.0965e-12</wgt>
  <wgt id="30">3.08431e-12</wgt>
  <wgt id="31">3.10089e-12</wgt>
  <wgt id="32">3.08413e-12</wgt>
  <wgt id="33">3.09814e-12</wgt>
  <wgt id="34">3.08428e-12</wgt>
  <wgt id="35">3.0865e-12</wgt>
  <wgt id="36">3.09721e-12</wgt>
  <wgt id="37">3.08489e-12</wgt>
  <wgt id="38">3.0871e-12</wgt>
  <wgt id="39">3.12428e-12</wgt>
  <wgt id="40">3.10165e-12</wgt>
  <wgt id="41">3.09179e-12</wgt>
  <wgt id="42">3.10597e-12</wgt>
  <wgt id="43">3.09791e-12</wgt>
  <wgt id="44">3.07677e-12</wgt>
  <wgt id="45">3.09509e-12</wgt>
  <wgt id="46">3.09429e-12</wgt>
  <wgt id="47">3.07822e-12</wgt>
  <wgt id="48">3.09416e-12</wgt>
  <wgt id="49">3.11049e-12</wgt>
  <wgt id="50">3.11403e-12</wgt>
  <wgt id="51">3.10386e-12</wgt>
  <wgt id="52">3.07412e-12</wgt>
  <wgt id="53">3.08045e-12</wgt>
  <wgt id="54">3.08784e-12</wgt>
  <wgt id="55">3.09137e-12</wgt>
  <wgt id="56">3.09977e-12</wgt>
  <wgt id="57">3.10315e-12</wgt>
  <wgt id="58">3.07288e-12</wgt>
  <wgt id="59">3.08399e-12</wgt>
  <wgt id="60">3.0927e-12</wgt>
  <wgt id="61">3.09464e-12</wgt>
  <wgt id="62">3.09481e-12</wgt>
  <wgt id="63">3.09828e-12</wgt>
  <wgt id="64">3.09623e-12</wgt>
  <wgt id="65">3.09428e-12</wgt>
  <wgt id="66">3.08996e-12</wgt>
  <wgt id="67">3.09243e-12</wgt>
  <wgt id="68">3.08999e-12</wgt>
  <wgt id="69">3.09074e-12</wgt>
  <wgt id="70">3.09083e-12</wgt>
  <wgt id="71">3.08941e-12</wgt>
  <wgt id="72">3.08974e-12</wgt>
  <wgt id="73">3.09576e-12</wgt>
  <wgt id="74">3.09346e-12</wgt>
  <wgt id="75">3.09503e-12</wgt>
  <wgt id="76">3.09917e-12</wgt>
  <wgt id="77">3.09218e-12</wgt>
  <wgt id="78">3.09363e-12</wgt>
  <wgt id="79">3.09674e-12</wgt>
  <wgt id="80">3.08229e-12</wgt>
  <wgt id="81">3.08954e-12</wgt>
  <wgt id="82">3.09295e-12</wgt>
  <wgt id="83">3.0846e-12</wgt>
  <wgt id="84">3.08774e-12</wgt>
  <wgt id="85">3.08979e-12</wgt>
  <wgt id="86">3.09652e-12</wgt>
  <wgt id="87">3.08291e-12</wgt>
  <wgt id="88">3.09494e-12</wgt>
  <wgt id="89">3.09479e-12</wgt>
  <wgt id="90">3.09542e-12</wgt>
  <wgt id="91">3.09438e-12</wgt>
  <wgt id="92">3.09688e-12</wgt>
  <wgt id="93">3.0927e-12</wgt>
  <wgt id="94">3.09127e-12</wgt>
  <wgt id="95">3.09427e-12</wgt>
  <wgt id="96">3.09415e-12</wgt>
  <wgt id="97">3.0899e-12</wgt>
  <wgt id="98">3.09431e-12</wgt>
  <wgt id="99">3.09129e-12</wgt>
  <wgt id="100">3.09574e-12</wgt>
  <wgt id="101">3.09267e-12</wgt>
  <wgt id="102">3.09101e-12</wgt>
  <wgt id="103">3.09544e-12</wgt>
  <wgt id="104">3.091e-12</wgt>
  <wgt id="105">3.09474e-12</wgt>
  <wgt id="106">3.09008e-12</wgt>
  <wgt id="107">3.09893e-12</wgt>
  <wgt id="108">3.09019e-12</wgt>
  <wgt id="109">3.09449e-12</wgt>
  <wgt id="110">3.09198e-12</wgt>
  <wgt id="111">3.13603e-12</wgt>
  <wgt id="112">3.08049e-12</wgt>
  <wgt id="113">3.98031e-12</wgt>
  <wgt id="114">4.1776e-12</wgt>
  <wgt id="115">4.12204e-12</wgt>
  <wgt id="116">5.48911e-12</wgt>
  <wgt id="117">3.36264e-12</wgt>
  <wgt id="118">3.37247e-12</wgt>
  <wgt id="119">3.3571e-12</wgt>
  <wgt id="120">3.36316e-12</wgt>
  <wgt id="121">3.36242e-12</wgt>
  <wgt id="122">3.3564e-12</wgt>
  <wgt id="123">3.37125e-12</wgt>
  <wgt id="124">3.35765e-12</wgt>
  <wgt id="125">3.3659e-12</wgt>
  <wgt id="126">3.36775e-12</wgt>
  <wgt id="127">3.35928e-12</wgt>
  <wgt id="128">3.37325e-12</wgt>
  <wgt id="129">3.35219e-12</wgt>
  <wgt id="130">3.3818e-12</wgt>
  <wgt id="131">3.34303e-12</wgt>
  <wgt id="132">3.28129e-12</wgt>
  <wgt id="133">3.458e-12</wgt>
  <wgt id="134">3.32983e-12</wgt>
  <wgt id="135">3.38816e-12</wgt>
  <wgt id="136">3.40017e-12</wgt>
  <wgt id="137">3.31721e-12</wgt>
  <wgt id="138">3.47686e-12</wgt>
  <wgt id="139">3.25103e-12</wgt>
  <wgt id="140">3.33884e-12</wgt>
  <wgt id="141">3.38144e-12</wgt>
  <wgt id="142">3.3633e-12</wgt>
  <wgt id="143">3.36569e-12</wgt>
  <wgt id="144">3.29554e-12</wgt>
  <wgt id="145">3.42284e-12</wgt>
  <wgt id="146">3.38372e-12</wgt>
  <wgt id="147">3.34658e-12</wgt>
  <wgt id="148">3.37142e-12</wgt>
  <wgt id="149">3.36202e-12</wgt>
  <wgt id="150">3.39007e-12</wgt>
  <wgt id="151">3.3499e-12</wgt>
  <wgt id="152">3.36379e-12</wgt>
  <wgt id="153">3.36221e-12</wgt>
  <wgt id="154">3.39578e-12</wgt>
  <wgt id="155">3.32462e-12</wgt>
  <wgt id="156">3.40433e-12</wgt>
  <wgt id="157">3.3112e-12</wgt>
  <wgt id="158">4.04883e-12</wgt>
  <wgt id="159">4.06544e-12</wgt>
  <wgt id="160">4.03534e-12</wgt>
  <wgt id="161">4.03998e-12</wgt>
  <wgt id="162">4.05854e-12</wgt>
  <wgt id="163">4.04505e-12</wgt>
  <wgt id="164">4.05446e-12</wgt>
  <wgt id="165">4.05046e-12</wgt>
  <wgt id="166">4.0476e-12</wgt>
  <wgt id="167">4.04583e-12</wgt>
  <wgt id="168">4.05309e-12</wgt>
  <wgt id="169">4.03121e-12</wgt>
  <wgt id="170">4.05976e-12</wgt>
  <wgt id="171">4.04493e-12</wgt>
  <wgt id="172">4.05438e-12</wgt>
  <wgt id="173">4.0506e-12</wgt>
  <wgt id="174">4.04804e-12</wgt>
  <wgt id="175">3.94485e-12</wgt>
  <wgt id="176">4.18336e-12</wgt>
  <wgt id="177">4.06771e-12</wgt>
  <wgt id="178">4.03116e-12</wgt>
  <wgt id="179">4.19437e-12</wgt>
  <wgt id="180">3.81638e-12</wgt>
  <wgt id="181">3.94555e-12</wgt>
  <wgt id="182">4.11662e-12</wgt>
  <wgt id="183">3.98541e-12</wgt>
  <wgt id="184">4.08021e-12</wgt>
  <wgt id="185">4.02009e-12</wgt>
  <wgt id="186">4.08155e-12</wgt>
  <wgt id="187">4.01581e-12</wgt>
  <wgt id="188">4.10807e-12</wgt>
  <wgt id="189">4.02673e-12</wgt>
  <wgt id="190">4.05777e-12</wgt>
  <wgt id="191">4.0581e-12</wgt>
  <wgt id="192">4.04332e-12</wgt>
  <wgt id="193">4.09778e-12</wgt>
  <wgt id="194">4.02452e-12</wgt>
  <wgt id="195">3.98573e-12</wgt>
  <wgt id="196">4.17991e-12</wgt>
  <wgt id="197">4.0667e-12</wgt>
  <wgt id="198">4.0445e-12</wgt>
  <wgt id="199">4.04883e-12</wgt>
  <wgt id="200">4.07993e-12</wgt>
  <wgt id="201">4.06815e-12</wgt>
  <wgt id="202">4.05696e-12</wgt>
  <wgt id="203">4.03959e-12</wgt>
  <wgt id="204">4.03159e-12</wgt>
  <wgt id="205">4.02473e-12</wgt>
  <wgt id="206">3.95814e-12</wgt>
  <wgt id="207">3.98066e-12</wgt>
  <wgt id="208">3.93587e-12</wgt>
  <wgt id="209">3.96749e-12</wgt>
  <wgt id="210">3.95129e-12</wgt>
  <wgt id="211">3.95722e-12</wgt>
  <wgt id="212">3.95877e-12</wgt>
  <wgt id="213">3.95773e-12</wgt>
  <wgt id="214">3.95866e-12</wgt>
  <wgt id="215">3.96042e-12</wgt>
  <wgt id="216">3.95657e-12</wgt>
  <wgt id="217">3.9686e-12</wgt>
  <wgt id="218">3.9502e-12</wgt>
  <wgt id="219">3.95229e-12</wgt>
  <wgt id="220">3.96165e-12</wgt>
  <wgt id="221">3.95595e-12</wgt>
  <wgt id="222">3.96341e-12</wgt>
  <wgt id="223">3.76802e-12</wgt>
  <wgt id="224">4.13013e-12</wgt>
  <wgt id="225">3.91653e-12</wgt>
  <wgt id="226">4.01009e-12</wgt>
  <wgt id="227">3.92413e-12</wgt>
  <wgt id="228">3.97304e-12</wgt>
  <wgt id="229">3.90769e-12</wgt>
  <wgt id="230">3.98316e-12</wgt>
  <wgt id="231">4.05852e-12</wgt>
  <wgt id="232">3.87518e-12</wgt>
  <wgt id="233">3.9403e-12</wgt>
  <wgt id="234">3.98427e-12</wgt>
  <wgt id="235">3.91359e-12</wgt>
  <wgt id="236">4.00895e-12</wgt>
  <wgt id="237">3.92162e-12</wgt>
  <wgt id="238">3.97091e-12</wgt>
  <wgt id="239">3.94118e-12</wgt>
  <wgt id="240">3.98941e-12</wgt>
  <wgt id="241">3.9236e-12</wgt>
  <wgt id="242">3.99954e-12</wgt>
  <wgt id="243">3.98494e-12</wgt>
  <wgt id="244">3.99047e-12</wgt>
  <wgt id="245">3.95419e-12</wgt>
  <wgt id="246">3.99098e-12</wgt>
  <wgt id="247">3.95814e-12</wgt>
  <wgt id="248">3.98894e-12</wgt>
  <wgt id="249">3.97684e-12</wgt>
  <wgt id="250">3.9658e-12</wgt>
  <wgt id="251">3.94889e-12</wgt>
  <wgt id="252">3.94106e-12</wgt>
  <wgt id="253">3.93511e-12</wgt>
  <wgt id="254">3.87953e-12</wgt>
  <wgt id="255">3.8834e-12</wgt>
  <wgt id="256">3.87558e-12</wgt>
  <wgt id="257">3.8828e-12</wgt>
  <wgt id="258">3.87722e-12</wgt>
  <wgt id="259">3.90521e-12</wgt>
  <wgt id="260">3.85485e-12</wgt>
  <wgt id="261">3.88269e-12</wgt>
  <wgt id="262">3.87603e-12</wgt>
  <wgt id="263">3.87858e-12</wgt>
  <wgt id="264">3.88076e-12</wgt>
  <wgt id="265">3.87606e-12</wgt>
  <wgt id="266">3.88663e-12</wgt>
  <wgt id="267">3.88071e-12</wgt>
  <wgt id="268">3.87814e-12</wgt>
  <wgt id="269">3.88991e-12</wgt>
  <wgt id="270">3.8726e-12</wgt>
  <wgt id="271">3.87366e-12</wgt>
  <wgt id="272">3.88628e-12</wgt>
  <wgt id="273">3.86859e-12</wgt>
  <wgt id="274">3.88809e-12</wgt>
  <wgt id="275">3.86694e-12</wgt>
  <wgt id="276">3.89262e-12</wgt>
  <wgt id="277">3.85953e-12</wgt>
  <wgt id="278">3.89817e-12</wgt>
  <wgt id="279">3.81264e-12</wgt>
  <wgt id="280">3.96321e-12</wgt>
  <wgt id="281">3.86507e-12</wgt>
  <wgt id="282">3.87924e-12</wgt>
  <wgt id="283">3.78333e-12</wgt>
  <wgt id="284">3.99721e-12</wgt>
  <wgt id="285">3.71795e-12</wgt>
  <wgt id="286">4.01134e-12</wgt>
  <wgt id="287">3.89023e-12</wgt>
  <wgt id="288">3.86599e-12</wgt>
  <wgt id="289">3.90296e-12</wgt>
  <wgt id="290">3.82328e-12</wgt>
  <wgt id="291">3.87205e-12</wgt>
  <wgt id="292">3.88155e-12</wgt>
  <wgt id="293">3.85396e-12</wgt>
  <wgt id="294">3.90504e-12</wgt>
  <wgt id="295">3.81514e-12</wgt>
  <wgt id="296">3.95791e-12</wgt>
  <wgt id="297">3.88385e-12</wgt>
  <wgt id="298">3.88895e-12</wgt>
  <wgt id="299">3.86896e-12</wgt>
  <wgt id="300">3.90764e-12</wgt>
  <wgt id="301">3.84987e-12</wgt>
  <wgt id="302">3.97283e-12</wgt>
  <wgt id="303">3.86078e-12</wgt>
  <wgt id="304">3.8909e-12</wgt>
  <wgt id="305">3.90897e-12</wgt>
  <wgt id="306">3.91294e-12</wgt>
  <wgt id="307">3.90479e-12</wgt>
  <wgt id="308">3.91253e-12</wgt>
  <wgt id="309">3.90655e-12</wgt>
  <wgt id="310">3.93572e-12</wgt>
  <wgt id="311">3.88414e-12</wgt>
  <wgt id="312">3.9106e-12</wgt>
  <wgt id="313">3.90753e-12</wgt>
  <wgt id="314">3.90799e-12</wgt>
  <wgt id="315">3.90993e-12</wgt>
  <wgt id="316">3.90572e-12</wgt>
  <wgt id="317">3.91621e-12</wgt>
  <wgt id="318">3.91122e-12</wgt>
  <wgt id="319">3.90509e-12</wgt>
  <wgt id="320">3.91965e-12</wgt>
  <wgt id="321">3.903e-12</wgt>
  <wgt id="322">3.90071e-12</wgt>
  <wgt id="323">3.91862e-12</wgt>
  <wgt id="324">3.89963e-12</wgt>
  <wgt id="325">3.91707e-12</wgt>
  <wgt id="326">3.89872e-12</wgt>
  <wgt id="327">3.92203e-12</wgt>
  <wgt id="328">3.8903e-12</wgt>
  <wgt id="329">3.91978e-12</wgt>
  <wgt id="330">4.01438e-12</wgt>
  <wgt id="331">3.8079e-12</wgt>
  <wgt id="332">3.89707e-12</wgt>
  <wgt id="333">3.90824e-12</wgt>
  <wgt id="334">3.83248e-12</wgt>
  <wgt id="335">4.00326e-12</wgt>
  <wgt id="336">3.79055e-12</wgt>
  <wgt id="337">4.05118e-12</wgt>
  <wgt id="338">3.94687e-12</wgt>
  <wgt id="339">3.8737e-12</wgt>
  <wgt id="340">3.93153e-12</wgt>
  <wgt id="341">3.8493e-12</wgt>
  <wgt id="342">3.90421e-12</wgt>
  <wgt id="343">3.90595e-12</wgt>
  <wgt id="344">3.8852e-12</wgt>
  <wgt id="345">3.93646e-12</wgt>
  <wgt id="346">3.84159e-12</wgt>
  <wgt id="347">3.98643e-12</wgt>
  <wgt id="348">3.91569e-12</wgt>
  <wgt id="349">3.91539e-12</wgt>
  <wgt id="350">3.89534e-12</wgt>
  <wgt id="351">3.94355e-12</wgt>
  <wgt id="352">3.87469e-12</wgt>
  <wgt id="353">4.01009e-12</wgt>
  <wgt id="354">3.87936e-12</wgt>
  <wgt id="355">3.92813e-12</wgt>
  <wgt id="356">3.87953e-12</wgt>
  <wgt id="357">3.92988e-12</wgt>
  <wgt id="358">3.90897e-12</wgt>
  <wgt id="359">3.89814e-12</wgt>
  <wgt id="360">3.88844e-12</wgt>
  <wgt id="361">3.88794e-12</wgt>
  <wgt id="362">3.94571e-12</wgt>
  <wgt id="363">3.93753e-12</wgt>
  <wgt id="364">3.92726e-12</wgt>
  <wgt id="365">3.9159e-12</wgt>
  <wgt id="366">3.9026e-12</wgt>
  <wgt id="367">3.87425e-12</wgt>
  <wgt id="368">3.8592e-12</wgt>
  <wgt id="369">3.84305e-12</wgt>
  <wgt id="370">3.88794e-12</wgt>
  <wgt id="371">3.90494e-12</wgt>
  <wgt id="372">3.89561e-12</wgt>
  <wgt id="373">3.88153e-12</wgt>
  <wgt id="374">3.87841e-12</wgt>
  <wgt id="375">4.05942e-12</wgt>
  <wgt id="376">4.05988e-12</wgt>
  <wgt id="377">4.05888e-12</wgt>
  <wgt id="378">4.07378e-12</wgt>
  <wgt id="379">4.04528e-12</wgt>
  <wgt id="380">4.07064e-12</wgt>
  <wgt id="381">4.05495e-12</wgt>
  <wgt id="382">4.07789e-12</wgt>
  <wgt id="383">4.04118e-12</wgt>
  <wgt id="384">4.06211e-12</wgt>
  <wgt id="385">4.05692e-12</wgt>
  <wgt id="386">4.07357e-12</wgt>
  <wgt id="387">4.05331e-12</wgt>
  <wgt id="388">4.05606e-12</wgt>
  <wgt id="389">4.06365e-12</wgt>
  <wgt id="390">4.06934e-12</wgt>
  <wgt id="391">4.04898e-12</wgt>
  <wgt id="392">4.03527e-12</wgt>
  <wgt id="393">4.07309e-12</wgt>
  <wgt id="394">4.06534e-12</wgt>
  <wgt id="395">4.05132e-12</wgt>
  <wgt id="396">4.05899e-12</wgt>
  <wgt id="397">4.05971e-12</wgt>
  <wgt id="398">4.04406e-12</wgt>
  <wgt id="399">4.07427e-12</wgt>
  <wgt id="400">4.0537e-12</wgt>
  <wgt id="401">4.07214e-12</wgt>
  <wgt id="402">4.03158e-12</wgt>
  <wgt id="403">4.06948e-12</wgt>
  <wgt id="404">4.13763e-12</wgt>
  <wgt id="405">3.86928e-12</wgt>
  <wgt id="406">4.00286e-12</wgt>
  <wgt id="407">4.18045e-12</wgt>
  <wgt id="408">4.08839e-12</wgt>
  <wgt id="409">4.00312e-12</wgt>
  <wgt id="410">3.96561e-12</wgt>
  <wgt id="411">4.10165e-12</wgt>
  <wgt id="412">4.05364e-12</wgt>
  <wgt id="413">4.06688e-12</wgt>
  <wgt id="414">4.0221e-12</wgt>
  <wgt id="415">4.08842e-12</wgt>
  <wgt id="416">4.14328e-12</wgt>
  <wgt id="417">3.94312e-12</wgt>
  <wgt id="418">4.06384e-12</wgt>
  <wgt id="419">4.03571e-12</wgt>
  <wgt id="420">4.0915e-12</wgt>
  <wgt id="421">4.04644e-12</wgt>
  <wgt id="422">4.0635e-12</wgt>
  <wgt id="423">4.05889e-12</wgt>
  <wgt id="424">4.1138e-12</wgt>
  <wgt id="425">4.02821e-12</wgt>
  <wgt id="426">4.05942e-12</wgt>
  <wgt id="427">4.03994e-12</wgt>
  <wgt id="428">4.12735e-12</wgt>
  <wgt id="429">4.08454e-12</wgt>
  <wgt id="430">4.18313e-12</wgt>
  <wgt id="431">4.16367e-12</wgt>
  <wgt id="432">4.14484e-12</wgt>
  <wgt id="433">4.12658e-12</wgt>
  <wgt id="434">4.10519e-12</wgt>
  <wgt id="435">4.05865e-12</wgt>
  <wgt id="436">4.03425e-12</wgt>
  <wgt id="437">4.0115e-12</wgt>
  <wgt id="438">4.08454e-12</wgt>
  <wgt id="439">4.09793e-12</wgt>
  <wgt id="440">4.09025e-12</wgt>
  <wgt id="441">4.08006e-12</wgt>
  <wgt id="442">4.07637e-12</wgt>
  <wgt id="443">4.03209e-12</wgt>
  <wgt id="444">4.04558e-12</wgt>
  <wgt id="445">4.01857e-12</wgt>
  <wgt id="446">4.00958e-12</wgt>
  <wgt id="447">4.01934e-12</wgt>
  <wgt id="448">3.94088e-12</wgt>
  <wgt id="449">4.08352e-12</wgt>
  <wgt id="450">4.01323e-12</wgt>
  <wgt id="451">4.02761e-12</wgt>
  <wgt id="452">4.10497e-12</wgt>
  <wgt id="453">4.05677e-12</wgt>
  <wgt id="454">3.88921e-12</wgt>
  <wgt id="455">4.03639e-12</wgt>
  <wgt id="456">3.95744e-12</wgt>
  <wgt id="457">4.0441e-12</wgt>
  <wgt id="458">4.07017e-12</wgt>
  <wgt id="459">4.05411e-12</wgt>
  <wgt id="460">4.05177e-12</wgt>
  <wgt id="461">3.97866e-12</wgt>
  <wgt id="462">4.00903e-12</wgt>
  <wgt id="463">3.99903e-12</wgt>
  <wgt id="464">4.01717e-12</wgt>
  <wgt id="465">4.06198e-12</wgt>
  <wgt id="466">3.99853e-12</wgt>
  <wgt id="467">4.00365e-12</wgt>
  <wgt id="468">4.02392e-12</wgt>
  <wgt id="469">4.02515e-12</wgt>
  <wgt id="470">4.0029e-12</wgt>
  <wgt id="471">4.00694e-12</wgt>
  <wgt id="472">4.04515e-12</wgt>
  <wgt id="473">3.93827e-12</wgt>
  <wgt id="474">3.0282e-12</wgt>
  <wgt id="475">3.22033e-12</wgt>
  <wgt id="476">2.97902e-12</wgt>
  <wgt id="477">3.01551e-12</wgt>
  <wgt id="478">3.04726e-12</wgt>
  <wgt id="479">3.01013e-12</wgt>
  <wgt id="480">3.10172e-12</wgt>
  <wgt id="481">2.94062e-12</wgt>
  <wgt id="482">2.89921e-12</wgt>
  <wgt id="483">2.95523e-12</wgt>
  <wgt id="484">3.2564e-12</wgt>
  <wgt id="485">3.04611e-12</wgt>
  <wgt id="486">3.04738e-12</wgt>
  <wgt id="487">3.05656e-12</wgt>
  <wgt id="488">3.05597e-12</wgt>
  <wgt id="489">2.91481e-12</wgt>
  <wgt id="490">2.94522e-12</wgt>
  <wgt id="491">2.9967e-12</wgt>
  <wgt id="492">2.9342e-12</wgt>
  <wgt id="493">2.93578e-12</wgt>
  <wgt id="494">2.93981e-12</wgt>
  <wgt id="495">3.06967e-12</wgt>
  <wgt id="496">2.92349e-12</wgt>
  <wgt id="497">2.93306e-12</wgt>
  <wgt id="498">3.05436e-12</wgt>
  <wgt id="499">2.95031e-12</wgt>
  <wgt id="500">2.97048e-12</wgt>
  <wgt id="501">3.14499e-12</wgt>
  <wgt id="502">2.94041e-12</wgt>
  <wgt id="503">3.01029e-12</wgt>
  <wgt id="504">3.00947e-12</wgt>
  <wgt id="505">3.12791e-12</wgt>
  <wgt id="506">3.03434e-12</wgt>
  <wgt id="507">2.9882e-12</wgt>
  <wgt id="508">3.08003e-12</wgt>
  <wgt id="509">3.05443e-12</wgt>
  <wgt id="510">3.08543e-12</wgt>
  <wgt id="511">2.96048e-12</wgt>
  <wgt id="512">3.05189e-12</wgt>
  <wgt id="513">3.10976e-12</wgt>
  <wgt id="514">3.00109e-12</wgt>
  <wgt id="515">2.99488e-12</wgt>
  <wgt id="516">3.09978e-12</wgt>
  <wgt id="517">3.09874e-12</wgt>
  <wgt id="518">3.11417e-12</wgt>
  <wgt id="519">2.97529e-12</wgt>
  <wgt id="520">3.02625e-12</wgt>
  <wgt id="521">3.14119e-12</wgt>
  <wgt id="522">3.13591e-12</wgt>
  <wgt id="523">3.07775e-12</wgt>
  <wgt id="524">3.09883e-12</wgt>
  <wgt id="525">3.08042e-12</wgt>
  <wgt id="526">3.01089e-12</wgt>
  <wgt id="527">3.09219e-12</wgt>
  <wgt id="528">3.00895e-12</wgt>
  <wgt id="529">3.00577e-12</wgt>
  <wgt id="530">3.03186e-12</wgt>
  <wgt id="531">2.98263e-12</wgt>
  <wgt id="532">3.17078e-12</wgt>
  <wgt id="533">2.84868e-12</wgt>
  <wgt id="534">3.02174e-12</wgt>
  <wgt id="535">3.06697e-12</wgt>
  <wgt id="536">3.05107e-12</wgt>
  <wgt id="537">3.03724e-12</wgt>
  <wgt id="538">3.09363e-12</wgt>
  <wgt id="539">2.94894e-12</wgt>
  <wgt id="540">3.02631e-12</wgt>
  <wgt id="541">3.01153e-12</wgt>
  <wgt id="542">2.94761e-12</wgt>
  <wgt id="543">3.0207e-12</wgt>
  <wgt id="544">3.16975e-12</wgt>
  <wgt id="545">2.98669e-12</wgt>
  <wgt id="546">3.00498e-12</wgt>
  <wgt id="547">2.94157e-12</wgt>
  <wgt id="548">2.90699e-12</wgt>
  <wgt id="549">2.98951e-12</wgt>
  <wgt id="550">3.07252e-12</wgt>
  <wgt id="551">3.07025e-12</wgt>
  <wgt id="552">2.99895e-12</wgt>
  <wgt id="553">3.02114e-12</wgt>
  <wgt id="554">3.25489e-12</wgt>
  <wgt id="555">3.11857e-12</wgt>
  <wgt id="556">2.94522e-12</wgt>
  <wgt id="557">3.06761e-12</wgt>
  <wgt id="558">2.93065e-12</wgt>
  <wgt id="559">2.99704e-12</wgt>
  <wgt id="560">3.25044e-12</wgt>
  <wgt id="561">2.94843e-12</wgt>
  <wgt id="562">3.05622e-12</wgt>
  <wgt id="563">2.96947e-12</wgt>
  <wgt id="564">3.02247e-12</wgt>
  <wgt id="565">2.95148e-12</wgt>
  <wgt id="566">3.03987e-12</wgt>
  <wgt id="567">2.97818e-12</wgt>
  <wgt id="568">3.04169e-12</wgt>
  <wgt id="569">3.02117e-12</wgt>
  <wgt id="570">2.98088e-12</wgt>
  <wgt id="571">3.3373e-12</wgt>
  <wgt id="572">2.96627e-12</wgt>
  <wgt id="573">2.8944e-12</wgt>
  <wgt id="574">2.92515e-12</wgt>
  <wgt id="575">3.29891e-12</wgt>
  <wgt id="576">3.22644e-12</wgt>
  <wgt id="577">3.43982e-12</wgt>
  <wgt id="578">3.33239e-12</wgt>
  <wgt id="579">3.30648e-12</wgt>
  <wgt id="580">3.33419e-12</wgt>
  <wgt id="581">3.47248e-12</wgt>
  <wgt id="582">3.21433e-12</wgt>
  <wgt id="583">3.32539e-12</wgt>
  <wgt id="584">3.29888e-12</wgt>
  <wgt id="585">3.32245e-12</wgt>
  <wgt id="586">3.22178e-12</wgt>
  <wgt id="587">3.3243e-12</wgt>
  <wgt id="588">3.27638e-12</wgt>
  <wgt id="589">3.31155e-12</wgt>
  <wgt id="590">3.34413e-12</wgt>
  <wgt id="591">3.43386e-12</wgt>
  <wgt id="592">3.25072e-12</wgt>
  <wgt id="593">3.28026e-12</wgt>
  <wgt id="594">3.46156e-12</wgt>
  <wgt id="595">3.26696e-12</wgt>
  <wgt id="596">3.36647e-12</wgt>
  <wgt id="597">3.16101e-12</wgt>
  <wgt id="598">3.32424e-12</wgt>
  <wgt id="599">3.45002e-12</wgt>
  <wgt id="600">3.26981e-12</wgt>
  <wgt id="601">3.20327e-12</wgt>
  <wgt id="602">3.24951e-12</wgt>
  <wgt id="603">3.2732e-12</wgt>
  <wgt id="604">3.33411e-12</wgt>
  <wgt id="605">3.4297e-12</wgt>
  <wgt id="606">3.21022e-12</wgt>
  <wgt id="607">3.24967e-12</wgt>
  <wgt id="608">3.25545e-12</wgt>
  <wgt id="609">3.09507e-12</wgt>
  <wgt id="610">3.16816e-12</wgt>
  <wgt id="611">3.37025e-12</wgt>
  <wgt id="612">3.56513e-12</wgt>
  <wgt id="613">3.31098e-12</wgt>
  <wgt id="614">3.33456e-12</wgt>
  <wgt id="615">3.23508e-12</wgt>
  <wgt id="616">3.53946e-12</wgt>
  <wgt id="617">3.40736e-12</wgt>
  <wgt id="618">3.2409e-12</wgt>
  <wgt id="619">3.29995e-12</wgt>
  <wgt id="620">3.37774e-12</wgt>
  <wgt id="621">3.34789e-12</wgt>
  <wgt id="622">3.3243e-12</wgt>
  <wgt id="623">3.36925e-12</wgt>
  <wgt id="624">3.2689e-12</wgt>
  <wgt id="625">3.26076e-12</wgt>
  <wgt id="626">3.23839e-12</wgt>
  <wgt id="627">3.19587e-12</wgt>
  <wgt id="628">3.46186e-12</wgt>
  <wgt id="629">3.23607e-12</wgt>
  <wgt id="630">3.25051e-12</wgt>
  <wgt id="631">3.28498e-12</wgt>
  <wgt id="632">3.22661e-12</wgt>
  <wgt id="633">3.25211e-12</wgt>
  <wgt id="634">3.33823e-12</wgt>
  <wgt id="635">3.30659e-12</wgt>
  <wgt id="636">3.3188e-12</wgt>
  <wgt id="637">3.33082e-12</wgt>
  <wgt id="638">3.19825e-12</wgt>
  <wgt id="639">3.27273e-12</wgt>
  <wgt id="640">3.3111e-12</wgt>
  <wgt id="641">3.29182e-12</wgt>
  <wgt id="642">3.3419e-12</wgt>
  <wgt id="643">3.29481e-12</wgt>
  <wgt id="644">3.20885e-12</wgt>
  <wgt id="645">3.3064e-12</wgt>
  <wgt id="646">3.38073e-12</wgt>
  <wgt id="647">3.23383e-12</wgt>
  <wgt id="648">3.30719e-12</wgt>
  <wgt id="649">3.34714e-12</wgt>
  <wgt id="650">3.24094e-12</wgt>
  <wgt id="651">3.35387e-12</wgt>
  <wgt id="652">3.30945e-12</wgt>
  <wgt id="653">3.22182e-12</wgt>
  <wgt id="654">3.29184e-12</wgt>
  <wgt id="655">3.21067e-12</wgt>
  <wgt id="656">3.27105e-12</wgt>
  <wgt id="657">3.32738e-12</wgt>
  <wgt id="658">3.39641e-12</wgt>
  <wgt id="659">3.19411e-12</wgt>
  <wgt id="660">3.35525e-12</wgt>
  <wgt id="661">3.25749e-12</wgt>
  <wgt id="662">3.26951e-12</wgt>
  <wgt id="663">3.27996e-12</wgt>
  <wgt id="664">3.24133e-12</wgt>
  <wgt id="665">3.2841e-12</wgt>
  <wgt id="666">3.30803e-12</wgt>
  <wgt id="667">3.4002e-12</wgt>
  <wgt id="668">3.26965e-12</wgt>
  <wgt id="669">3.38e-12</wgt>
  <wgt id="670">3.313e-12</wgt>
  <wgt id="671">3.22545e-12</wgt>
  <wgt id="672">3.16183e-12</wgt>
  <wgt id="673">3.26991e-12</wgt>
  <wgt id="674">3.228e-12</wgt>
  <wgt id="675">3.20545e-12</wgt>
  <wgt id="676">4.04292e-12</wgt>
  <wgt id="677">4.10926e-12</wgt>
  <wgt id="678">4.21505e-12</wgt>
  <wgt id="679">3.91305e-12</wgt>
  <wgt id="680">3.86955e-12</wgt>
  <wgt id="681">4.1809e-12</wgt>
  <wgt id="682">4.05187e-12</wgt>
  <wgt id="683">4.02891e-12</wgt>
  <wgt id="684">4.20608e-12</wgt>
  <wgt id="685">3.83994e-12</wgt>
  <wgt id="686">4.1376e-12</wgt>
  <wgt id="687">4.19641e-12</wgt>
  <wgt id="688">4.00918e-12</wgt>
  <wgt id="689">4.28181e-12</wgt>
  <wgt id="690">4.28368e-12</wgt>
  <wgt id="691">4.2215e-12</wgt>
  <wgt id="692">4.0553e-12</wgt>
  <wgt id="693">4.5624e-12</wgt>
  <wgt id="694">4.25456e-12</wgt>
  <wgt id="695">3.90678e-12</wgt>
  <wgt id="696">3.88115e-12</wgt>
  <wgt id="697">3.89969e-12</wgt>
  <wgt id="698">3.87144e-12</wgt>
  <wgt id="699">3.81084e-12</wgt>
  <wgt id="700">3.67345e-12</wgt>
  <wgt id="701">4.04561e-12</wgt>
  <wgt id="702">3.84341e-12</wgt>
  <wgt id="703">4.50934e-12</wgt>
  <wgt id="704">4.27695e-12</wgt>
  <wgt id="705">4.16733e-12</wgt>
  <wgt id="706">3.79024e-12</wgt>
  <wgt id="707">3.90205e-12</wgt>
  <wgt id="708">4.00135e-12</wgt>
  <wgt id="709">3.98261e-12</wgt>
  <wgt id="710">3.64143e-12</wgt>
  <wgt id="711">4.06002e-12</wgt>
  <wgt id="712">4.00696e-12</wgt>
  <wgt id="713">4.25598e-12</wgt>
  <wgt id="714">4.06391e-12</wgt>
  <wgt id="715">3.99986e-12</wgt>
  <wgt id="716">3.91237e-12</wgt>
  <wgt id="717">3.91437e-12</wgt>
  <wgt id="718">3.92719e-12</wgt>
  <wgt id="719">3.74146e-12</wgt>
  <wgt id="720">3.87138e-12</wgt>
  <wgt id="721">3.94061e-12</wgt>
  <wgt id="722">3.73555e-12</wgt>
  <wgt id="723">4.23021e-12</wgt>
  <wgt id="724">4.17076e-12</wgt>
  <wgt id="725">4.27147e-12</wgt>
  <wgt id="726">4.09206e-12</wgt>
  <wgt id="727">3.95768e-12</wgt>
  <wgt id="728">4.04807e-12</wgt>
  <wgt id="729">3.69376e-12</wgt>
  <wgt id="730">4.22558e-12</wgt>
  <wgt id="731">4.01553e-12</wgt>
  <wgt id="732">4.36371e-12</wgt>
  <wgt id="733">4.0369e-12</wgt>
  <wgt id="734">4.13072e-12</wgt>
  <wgt id="735">4.01945e-12</wgt>
  <wgt id="736">4.01409e-12</wgt>
  <wgt id="737">4.10516e-12</wgt>
  <wgt id="738">3.942e-12</wgt>
  <wgt id="739">3.97901e-12</wgt>
  <wgt id="740">4.4331e-12</wgt>
  <wgt id="741">3.61892e-12</wgt>
  <wgt id="742">3.99208e-12</wgt>
  <wgt id="743">3.98133e-12</wgt>
  <wgt id="744">3.9686e-12</wgt>
  <wgt id="745">4.15712e-12</wgt>
  <wgt id="746">4.18795e-12</wgt>
  <wgt id="747">3.80398e-12</wgt>
  <wgt id="748">3.96408e-12</wgt>
  <wgt id="749">4.27525e-12</wgt>
  <wgt id="750">3.94372e-12</wgt>
  <wgt id="751">4.19907e-12</wgt>
  <wgt id="752">3.77735e-12</wgt>
  <wgt id="753">3.86497e-12</wgt>
  <wgt id="754">4.08602e-12</wgt>
  <wgt id="755">4.0774e-12</wgt>
  <wgt id="756">4.05576e-12</wgt>
  <wgt id="757">3.80929e-12</wgt>
  <wgt id="758">4.10725e-12</wgt>
  <wgt id="759">3.95775e-12</wgt>
  <wgt id="760">4.13766e-12</wgt>
  <wgt id="761">4.25122e-12</wgt>
  <wgt id="762">4.22874e-12</wgt>
  <wgt id="763">4.07707e-12</wgt>
  <wgt id="764">4.16275e-12</wgt>
  <wgt id="765">4.03477e-12</wgt>
  <wgt id="766">4.02186e-12</wgt>
  <wgt id="767">4.11743e-12</wgt>
  <wgt id="768">3.88254e-12</wgt>
  <wgt id="769">4.24758e-12</wgt>
  <wgt id="770">3.94332e-12</wgt>
  <wgt id="771">4.65241e-12</wgt>
  <wgt id="772">3.80779e-12</wgt>
  <wgt id="773">4.04273e-12</wgt>
  <wgt id="774">3.7248e-12</wgt>
  <wgt id="775">4.18051e-12</wgt>
  <wgt id="776">4.40313e-12</wgt>
  <wgt id="777">3.9972e-12</wgt>
  <wgt id="778">3.10484e-12</wgt>
  <wgt id="779">2.73122e-12</wgt>
  <wgt id="780">2.41942e-12</wgt>
  <wgt id="781">3.05684e-12</wgt>
  <wgt id="782">3.28507e-12</wgt>
  <wgt id="783">2.80353e-12</wgt>
  <wgt id="784">2.82992e-12</wgt>
  <wgt id="785">3.64617e-12</wgt>
  <wgt id="786">2.48447e-12</wgt>
  <wgt id="787">3.38652e-12</wgt>
  <wgt id="788">2.2478e-12</wgt>
  <wgt id="789">2.56028e-12</wgt>
  <wgt id="790">2.50351e-12</wgt>
  <wgt id="791">2.8711e-12</wgt>
  <wgt id="792">3.86486e-12</wgt>
  <wgt id="793">2.9718e-12</wgt>
  <wgt id="794">2.59727e-12</wgt>
  <wgt id="795">3.41777e-12</wgt>
  <wgt id="796">3.93271e-12</wgt>
  <wgt id="797">3.43022e-12</wgt>
  <wgt id="798">2.95264e-12</wgt>
  <wgt id="799">3.419e-12</wgt>
  <wgt id="800">2.59412e-12</wgt>
  <wgt id="801">2.98256e-12</wgt>
  <wgt id="802">2.62688e-12</wgt>
  <wgt id="803">4.03248e-12</wgt>
  <wgt id="804">3.40177e-12</wgt>
  <wgt id="805">3.46656e-12</wgt>
  <wgt id="806">3.52176e-12</wgt>
  <wgt id="807">3.01827e-12</wgt>
  <wgt id="808">3.0521e-12</wgt>
  <wgt id="809">2.88592e-12</wgt>
  <wgt id="810">3.54464e-12</wgt>
  <wgt id="811">3.3301e-12</wgt>
  <wgt id="812">2.57928e-12</wgt>
  <wgt id="813">2.58476e-12</wgt>
  <wgt id="814">2.60572e-12</wgt>
  <wgt id="815">2.7443e-12</wgt>
  <wgt id="816">2.48939e-12</wgt>
  <wgt id="817">3.27808e-12</wgt>
  <wgt id="818">2.96849e-12</wgt>
  <wgt id="819">2.75532e-12</wgt>
  <wgt id="820">3.12324e-12</wgt>
  <wgt id="821">3.42676e-12</wgt>
  <wgt id="822">2.81713e-12</wgt>
  <wgt id="823">3.41536e-12</wgt>
  <wgt id="824">4.03693e-12</wgt>
  <wgt id="825">2.49489e-12</wgt>
  <wgt id="826">3.14666e-12</wgt>
  <wgt id="827">2.16352e-12</wgt>
  <wgt id="828">3.94315e-12</wgt>
  <wgt id="829">3.15972e-12</wgt>
  <wgt id="830">2.38227e-12</wgt>
  <wgt id="831">3.25522e-12</wgt>
  <wgt id="832">4.76262e-12</wgt>
  <wgt id="833">3.01144e-12</wgt>
  <wgt id="834">4.48405e-12</wgt>
  <wgt id="835">2.59956e-12</wgt>
  <wgt id="836">3.16393e-12</wgt>
  <wgt id="837">3.38658e-12</wgt>
  <wgt id="838">2.99934e-12</wgt>
  <wgt id="839">3.25015e-12</wgt>
  <wgt id="840">3.00763e-12</wgt>
  <wgt id="841">3.57325e-12</wgt>
  <wgt id="842">2.92116e-12</wgt>
  <wgt id="843">2.98023e-12</wgt>
  <wgt id="844">3.1646e-12</wgt>
  <wgt id="845">3.99359e-12</wgt>
  <wgt id="846">2.87868e-12</wgt>
  <wgt id="847">2.99698e-12</wgt>
  <wgt id="848">2.86066e-12</wgt>
  <wgt id="849">3.1547e-12</wgt>
  <wgt id="850">3.78068e-12</wgt>
  <wgt id="851">3.33417e-12</wgt>
  <wgt id="852">2.81229e-12</wgt>
  <wgt id="853">3.29603e-12</wgt>
  <wgt id="854">3.62204e-12</wgt>
  <wgt id="855">3.40495e-12</wgt>
  <wgt id="856">2.43759e-12</wgt>
  <wgt id="857">3.16789e-12</wgt>
  <wgt id="858">3.07586e-12</wgt>
  <wgt id="859">2.92239e-12</wgt>
  <wgt id="860">3.17536e-12</wgt>
  <wgt id="861">2.89349e-12</wgt>
  <wgt id="862">3.13486e-12</wgt>
  <wgt id="863">3.18671e-12</wgt>
  <wgt id="864">3.19933e-12</wgt>
  <wgt id="865">4.12595e-12</wgt>
  <wgt id="866">4.50972e-12</wgt>
  <wgt id="867">3.07768e-12</wgt>
  <wgt id="868">3.02231e-12</wgt>
  <wgt id="869">2.57203e-12</wgt>
  <wgt id="870">2.70533e-12</wgt>
  <wgt id="871">2.64041e-12</wgt>
  <wgt id="872">3.48407e-12</wgt>
  <wgt id="873">2.67305e-12</wgt>
  <wgt id="874">3.18503e-12</wgt>
  <wgt id="875">2.75337e-12</wgt>
  <wgt id="876">3.48498e-12</wgt>
  <wgt id="877">3.39807e-12</wgt>
  <wgt id="878">2.83201e-12</wgt>
  <wgt id="879">4.04292e-12</wgt>
  <wgt id="880">4.10926e-12</wgt>
  <wgt id="881">4.21505e-12</wgt>
  <wgt id="882">3.91305e-12</wgt>
  <wgt id="883">3.86955e-12</wgt>
  <wgt id="884">4.1809e-12</wgt>
  <wgt id="885">4.05187e-12</wgt>
  <wgt id="886">4.02891e-12</wgt>
  <wgt id="887">4.20608e-12</wgt>
  <wgt id="888">3.83994e-12</wgt>
  <wgt id="889">4.1376e-12</wgt>
  <wgt id="890">4.19641e-12</wgt>
  <wgt id="891">4.00918e-12</wgt>
  <wgt id="892">4.28181e-12</wgt>
  <wgt id="893">4.28368e-12</wgt>
  <wgt id="894">4.2215e-12</wgt>
  <wgt id="895">4.0553e-12</wgt>
  <wgt id="896">4.5624e-12</wgt>
  <wgt id="897">4.25456e-12</wgt>
  <wgt id="898">3.90678e-12</wgt>
  <wgt id="899">3.88115e-12</wgt>
  <wgt id="900">3.89969e-12</wgt>
  <wgt id="901">3.87144e-12</wgt>
  <wgt id="902">3.81084e-12</wgt>
  <wgt id="903">3.67345e-12</wgt>
  <wgt id="904">4.04561e-12</wgt>
  <wgt id="905">3.84341e-12</wgt>
  <wgt id="906">4.50934e-12</wgt>
  <wgt id="907">4.27695e-12</wgt>
  <wgt id="908">4.16733e-12</wgt>
  <wgt id="909">3.79024e-12</wgt>
  <wgt id="910">3.90205e-12</wgt>
  <wgt id="911">4.00135e-12</wgt>
  <wgt id="912">3.98261e-12</wgt>
  <wgt id="913">3.64143e-12</wgt>
  <wgt id="914">4.06002e-12</wgt>
  <wgt id="915">4.00696e-12</wgt>
  <wgt id="916">4.25598e-12</wgt>
  <wgt id="917">4.06391e-12</wgt>
  <wgt id="918">3.99986e-12</wgt>
  <wgt id="919">3.91237e-12</wgt>
  <wgt id="920">3.91437e-12</wgt>
  <wgt id="921">3.92719e-12</wgt>
  <wgt id="922">3.74146e-12</wgt>
  <wgt id="923">3.87138e-12</wgt>
  <wgt id="924">3.94061e-12</wgt>
  <wgt id="925">3.73555e-12</wgt>
  <wgt id="926">4.23021e-12</wgt>
  <wgt id="927">4.17076e-12</wgt>
  <wgt id="928">4.27147e-12</wgt>
  <wgt id="929">4.09206e-12</wgt>
  <wgt id="930">3.95768e-12</wgt>
  <wgt id="931">4.04807e-12</wgt>
  <wgt id="932">3.69376e-12</wgt>
  <wgt id="933">4.22558e-12</wgt>
  <wgt id="934">4.01553e-12</wgt>
  <wgt id="935">4.36371e-12</wgt>
  <wgt id="936">4.0369e-12</wgt>
  <wgt id="937">4.13072e-12</wgt>
  <wgt id="938">4.01945e-12</wgt>
  <wgt id="939">4.01409e-12</wgt>
  <wgt id="940">4.10516e-12</wgt>
  <wgt id="941">3.942e-12</wgt>
  <wgt id="942">3.97901e-12</wgt>
  <wgt id="943">4.4331e-12</wgt>
  <wgt id="944">3.61892e-12</wgt>
  <wgt id="945">3.99208e-12</wgt>
  <wgt id="946">3.98133e-12</wgt>
  <wgt id="947">3.9686e-12</wgt>
  <wgt id="948">4.15712e-12</wgt>
  <wgt id="949">4.18795e-12</wgt>
  <wgt id="950">3.80398e-12</wgt>
  <wgt id="951">3.96408e-12</wgt>
  <wgt id="952">4.27525e-12</wgt>
  <wgt id="953">3.94372e-12</wgt>
  <wgt id="954">4.19907e-12</wgt>
  <wgt id="955">3.77735e-12</wgt>
  <wgt id="956">3.86497e-12</wgt>
  <wgt id="957">4.08602e-12</wgt>
  <wgt id="958">4.0774e-12</wgt>
  <wgt id="959">4.05576e-12</wgt>
  <wgt id="960">3.80929e-12</wgt>
  <wgt id="961">4.10725e-12</wgt>
  <wgt id="962">3.95775e-12</wgt>
  <wgt id="963">4.13766e-12</wgt>
  <wgt id="964">4.25122e-12</wgt>
  <wgt id="965">4.22874e-12</wgt>
  <wgt id="966">4.07707e-12</wgt>
  <wgt id="967">4.16275e-12</wgt>
  <wgt id="968">4.03477e-12</wgt>
  <wgt id="969">4.02186e-12</wgt>
  <wgt id="970">4.11743e-12</wgt>
  <wgt id="971">3.88254e-12</wgt>
  <wgt id="972">4.24758e-12</wgt>
  <wgt id="973">3.94332e-12</wgt>
  <wgt id="974">4.65241e-12</wgt>
  <wgt id="975">3.80779e-12</wgt>
  <wgt id="976">4.04273e-12</wgt>
  <wgt id="977">3.7248e-12</wgt>
  <wgt id="978">4.18051e-12</wgt>
  <wgt id="979">4.40313e-12</wgt>
  <wgt id="980">4.05928e-12</wgt>
  <wgt id="981">4.04715e-12</wgt>
  <wgt id="982">3.93737e-12</wgt>
</rwgt>
</event>
<event>
 5   1  0.3028200E-11  0.2440803E+04  0.7818608E-02  0.7663799E-01
       21   -1    0    0  502  501  0.00000000000E+00  0.00000000000E+00  0.11847502874E+04  0.11847502874E+04  0.00000000000E+00 0. -1.
       21   -1    0    0  501  502 -0.00000000000E+00 -0.00000000000E+00 -0.12571257639E+04  0.12571257639E+04  0.00000000000E+00 0.  1.
       39    2    1    2    0    0  0.00000000000E+00  0.00000000000E+00 -0.72375476464E+02  0.24418760512E+04  0.24408032366E+04 0.  0.
       25    1    3    3    0    0  0.77772103279E+03  0.82318530617E+03 -0.47372543245E+03  0.12339063329E+04  0.12500000000E+03 0.  0.
       25    1    3    3    0    0 -0.77772103279E+03 -0.82318530617E+03  0.40134995599E+03  0.12079697183E+04  0.12500000000E+03 0.  0.
<mgrwt>
<rscale>  0 0.24408032E+04</rscale>
<asrwt>0</asrwt>
<pdfrwt beam="1">  1       21 0.18226928E+00 0.24408032E+04</pdfrwt>
<pdfrwt beam="2">  1       21 0.19340396E+00 0.24408032E+04</pdfrwt>
<totfact> 0.92588384E+00</totfact>
</mgrwt>
<rwgt>
  <wgt id="1">3.0282e-12</wgt>
  <wgt id="2">2.62977e-12</wgt>
  <wgt id="3">3.52434e-12</wgt>
  <wgt id="4">3.0282e-12</wgt>
  <wgt id="5">2.62977e-12</wgt>
  <wgt id="6">3.52434e-12</wgt>
  <wgt id="7">3.0282e-12</wgt>
  <wgt id="8">2.62977e-12</wgt>
  <wgt id="9">3.52434e-12</wgt>
  <wgt id="10">3.14362e-12</wgt>
  <wgt id="11">3.14009e-12</wgt>
  <wgt id="12">3.13729e-12</wgt>
  <wgt id="13">3.13244e-12</wgt>
  <wgt id="14">3.15545e-12</wgt>
  <wgt id="15">3.1484e-12</wgt>
  <wgt id="16">3.13731e-12</wgt>
  <wgt id="17">3.14812e-12</wgt>
  <wgt id="18">3.1371e-12</wgt>
  <wgt id="19">3.15115e-12</wgt>
  <wgt id="20">3.13343e-12</wgt>
  <wgt id="21">3.12555e-12</wgt>
  <wgt id="22">3.13353e-12</wgt>
  <wgt id="23">3.11619e-12</wgt>
  <wgt id="24">3.13017e-12</wgt>
  <wgt id="25">3.13671e-12</wgt>
  <wgt id="26">3.15772e-12</wgt>
  <wgt id="27">3.14418e-12</wgt>
  <wgt id="28">3.1297e-12</wgt>
  <wgt id="29">3.14647e-12</wgt>
  <wgt id="30">3.1381e-12</wgt>
  <wgt id="31">3.151e-12</wgt>
  <wgt id="32">3.14095e-12</wgt>
  <wgt id="33">3.15227e-12</wgt>
  <wgt id="34">3.13462e-12</wgt>
  <wgt id="35">3.14427e-12</wgt>
  <wgt id="36">3.15461e-12</wgt>
  <wgt id="37">3.13568e-12</wgt>
  <wgt id="38">3.13361e-12</wgt>
  <wgt id="39">3.17373e-12</wgt>
  <wgt id="40">3.15051e-12</wgt>
  <wgt id="41">3.14333e-12</wgt>
  <wgt id="42">3.14965e-12</wgt>
  <wgt id="43">3.14369e-12</wgt>
  <wgt id="44">3.1338e-12</wgt>
  <wgt id="45">3.15187e-12</wgt>
  <wgt id="46">3.15082e-12</wgt>
  <wgt id="47">3.12961e-12</wgt>
  <wgt id="48">3.14272e-12</wgt>
  <wgt id="49">3.15004e-12</wgt>
  <wgt id="50">3.16406e-12</wgt>
  <wgt id="51">3.16075e-12</wgt>
  <wgt id="52">3.14142e-12</wgt>
  <wgt id="53">3.11564e-12</wgt>
  <wgt id="54">3.13507e-12</wgt>
  <wgt id="55">3.14355e-12</wgt>
  <wgt id="56">3.15543e-12</wgt>
  <wgt id="57">3.15495e-12</wgt>
  <wgt id="58">3.11968e-12</wgt>
  <wgt id="59">3.13102e-12</wgt>
  <wgt id="60">3.14484e-12</wgt>
  <wgt id="61">3.13567e-12</wgt>
  <wgt id="62">3.14256e-12</wgt>
  <wgt id="63">3.14714e-12</wgt>
  <wgt id="64">3.14756e-12</wgt>
  <wgt id="65">3.14742e-12</wgt>
  <wgt id="66">3.13885e-12</wgt>
  <wgt id="67">3.13782e-12</wgt>
  <wgt id="68">3.13979e-12</wgt>
  <wgt id="69">3.14349e-12</wgt>
  <wgt id="70">3.14071e-12</wgt>
  <wgt id="71">3.14386e-12</wgt>
  <wgt id="72">3.14049e-12</wgt>
  <wgt id="73">3.14519e-12</wgt>
  <wgt id="74">3.14623e-12</wgt>
  <wgt id="75">3.14074e-12</wgt>
  <wgt id="76">3.1528e-12</wgt>
  <wgt id="77">3.14327e-12</wgt>
  <wgt id="78">3.14463e-12</wgt>
  <wgt id="79">3.1495e-12</wgt>
  <wgt id="80">3.12981e-12</wgt>
  <wgt id="81">3.13916e-12</wgt>
  <wgt id="82">3.14357e-12</wgt>
  <wgt id="83">3.13052e-12</wgt>
  <wgt id="84">3.13617e-12</wgt>
  <wgt id="85">3.1374e-12</wgt>
  <wgt id="86">3.15146e-12</wgt>
  <wgt id="87">3.1266e-12</wgt>
  <wgt id="88">3.14788e-12</wgt>
  <wgt id="89">3.14686e-12</wgt>
  <wgt id="90">3.14783e-12</wgt>
  <wgt id="91">3.14582e-12</wgt>
  <wgt id="92">3.14979e-12</wgt>
  <wgt id="93">3.14271e-12</wgt>
  <wgt id="94">3.14039e-12</wgt>
  <wgt id="95">3.14525e-12</wgt>
  <wgt id="96">3.14598e-12</wgt>
  <wgt id="97">3.13947e-12</wgt>
  <wgt id="98">3.145e-12</wgt>
  <wgt id="99">3.14301e-12</wgt>
  <wgt id="100">3.14635e-12</wgt>
  <wgt id="101">3.1418e-12</wgt>
  <wgt id="102">3.13975e-12</wgt>
  <wgt id="103">3.1485e-12</wgt>
  <wgt id="104">3.14087e-12</wgt>
  <wgt id="105">3.1465e-12</wgt>
  <wgt id="106">3.13947e-12</wgt>
  <wgt id="107">3.152e-12</wgt>
  <wgt id="108">3.14071e-12</wgt>
  <wgt id="109">3.14445e-12</wgt>
  <wgt id="110">3.14318e-12</wgt>
  <wgt id="111">3.17257e-12</wgt>
  <wgt id="112">3.14221e-12</wgt>
  <wgt id="113">4.27239e-12</wgt>
  <wgt id="114">4.4049e-12</wgt>
  <wgt id="115">4.34488e-12</wgt>
  <wgt id="116">6.1936e-12</wgt>
  <wgt id="117">3.52743e-12</wgt>
  <wgt id="118">3.54044e-12</wgt>
  <wgt id="119">3.52023e-12</wgt>
  <wgt id="120">3.52778e-12</wgt>
  <wgt id="121">3.52726e-12</wgt>
  <wgt id="122">3.5215e-12</wgt>
  <wgt id="123">3.53586e-12</wgt>
  <wgt id="124">3.5225e-12</wgt>
  <wgt id="125">3.53079e-12</wgt>
  <wgt id="126">3.53433e-12</wgt>
  <wgt id="127">3.52289e-12</wgt>
  <wgt id="128">3.53858e-12</wgt>
  <wgt id="129">3.51649e-12</wgt>
  <wgt id="130">3.54827e-12</wgt>
  <wgt id="131">3.50611e-12</wgt>
  <wgt id="132">3.43419e-12</wgt>
  <wgt id="133">3.63809e-12</wgt>
  <wgt id="134">3.4886e-12</wgt>
  <wgt id="135">3.55787e-12</wgt>
  <wgt id="136">3.57395e-12</wgt>
  <wgt id="137">3.4713e-12</wgt>
  <wgt id="138">3.668e-12</wgt>
  <wgt id="139">3.39202e-12</wgt>
  <wgt id="140">3.50425e-12</wgt>
  <wgt id="141">3.54556e-12</wgt>
  <wgt id="142">3.52795e-12</wgt>
  <wgt id="143">3.53275e-12</wgt>
  <wgt id="144">3.42242e-12</wgt>
  <wgt id="145">3.62555e-12</wgt>
  <wgt id="146">3.56112e-12</wgt>
  <wgt id="147">3.50073e-12</wgt>
  <wgt id="148">3.53876e-12</wgt>
  <wgt id="149">3.52672e-12</wgt>
  <wgt id="150">3.55863e-12</wgt>
  <wgt id="151">3.51284e-12</wgt>
  <wgt id="152">3.52926e-12</wgt>
  <wgt id="153">3.5269e-12</wgt>
  <wgt id="154">3.55497e-12</wgt>
  <wgt id="155">3.49456e-12</wgt>
  <wgt id="156">3.60273e-12</wgt>
  <wgt id="157">3.44976e-12</wgt>
  <wgt id="158">4.2429e-12</wgt>
  <wgt id="159">4.2606e-12</wgt>
  <wgt id="160">4.22849e-12</wgt>
  <wgt id="161">4.23162e-12</wgt>
  <wgt id="162">4.25531e-12</wgt>
  <wgt id="163">4.23814e-12</wgt>
  <wgt id="164">4.25e-12</wgt>
  <wgt id="165">4.2444e-12</wgt>
  <wgt id="166">4.24172e-12</wgt>
  <wgt id="167">4.2398e-12</wgt>
  <wgt id="168">4.2471e-12</wgt>
  <wgt id="169">4.22497e-12</wgt>
  <wgt id="170">4.25429e-12</wgt>
  <wgt id="171">4.23793e-12</wgt>
  <wgt id="172">4.24981e-12</wgt>
  <wgt id="173">4.24236e-12</wgt>
  <wgt id="174">4.24294e-12</wgt>
  <wgt id="175">4.12084e-12</wgt>
  <wgt id="176">4.40223e-12</wgt>
  <wgt id="177">4.26655e-12</wgt>
  <wgt id="178">4.22107e-12</wgt>
  <wgt id="179">4.42598e-12</wgt>
  <wgt id="180">3.95454e-12</wgt>
  <wgt id="181">4.11585e-12</wgt>
  <wgt id="182">4.32676e-12</wgt>
  <wgt id="183">4.16532e-12</wgt>
  <wgt id="184">4.28144e-12</wgt>
  <wgt id="185">4.20807e-12</wgt>
  <wgt id="186">4.28573e-12</wgt>
  <wgt id="187">4.20427e-12</wgt>
  <wgt id="188">4.313e-12</wgt>
  <wgt id="189">4.21481e-12</wgt>
  <wgt id="190">4.25449e-12</wgt>
  <wgt id="191">4.25489e-12</wgt>
  <wgt id="192">4.2358e-12</wgt>
  <wgt id="193">4.30551e-12</wgt>
  <wgt id="194">4.21207e-12</wgt>
  <wgt id="195">4.12913e-12</wgt>
  <wgt id="196">4.44109e-12</wgt>
  <wgt id="197">4.26472e-12</wgt>
  <wgt id="198">4.23778e-12</wgt>
  <wgt id="199">4.2429e-12</wgt>
  <wgt id="200">4.28001e-12</wgt>
  <wgt id="201">4.26648e-12</wgt>
  <wgt id="202">4.25333e-12</wgt>
  <wgt id="203">4.23357e-12</wgt>
  <wgt id="204">4.22423e-12</wgt>
  <wgt id="205">4.21662e-12</wgt>
  <wgt id="206">4.10423e-12</wgt>
  <wgt id="207">4.12838e-12</wgt>
  <wgt id="208">4.08031e-12</wgt>
  <wgt id="209">4.11773e-12</wgt>
  <wgt id="210">4.0942e-12</wgt>
  <wgt id="211">4.10263e-12</wgt>
  <wgt id="212">4.10559e-12</wgt>
  <wgt id="213">4.10382e-12</wgt>
  <wgt id="214">4.10477e-12</wgt>
  <wgt id="215">4.10732e-12</wgt>
  <wgt id="216">4.10183e-12</wgt>
  <wgt id="217">4.1164e-12</wgt>
  <wgt id="218">4.09472e-12</wgt>
  <wgt id="219">4.10067e-12</wgt>
  <wgt id="220">4.10631e-12</wgt>
  <wgt id="221">4.10227e-12</wgt>
  <wgt id="222">4.10837e-12</wgt>
  <wgt id="223">3.88329e-12</wgt>
  <wgt id="224">4.30563e-12</wgt>
  <wgt id="225">4.05354e-12</wgt>
  <wgt id="226">4.16783e-12</wgt>
  <wgt id="227">4.06464e-12</wgt>
  <wgt id="228">4.12156e-12</wgt>
  <wgt id="229">4.04611e-12</wgt>
  <wgt id="230">4.1331e-12</wgt>
  <wgt id="231">4.22353e-12</wgt>
  <wgt id="232">4.00619e-12</wgt>
  <wgt id="233">4.08221e-12</wgt>
  <wgt id="234">4.13878e-12</wgt>
  <wgt id="235">4.01483e-12</wgt>
  <wgt id="236">4.18594e-12</wgt>
  <wgt id="237">4.04461e-12</wgt>
  <wgt id="238">4.12459e-12</wgt>
  <wgt id="239">4.07844e-12</wgt>
  <wgt id="240">4.15059e-12</wgt>
  <wgt id="241">4.06166e-12</wgt>
  <wgt id="242">4.15579e-12</wgt>
  <wgt id="243">4.16019e-12</wgt>
  <wgt id="244">4.12338e-12</wgt>
  <wgt id="245">4.10164e-12</wgt>
  <wgt id="246">4.1337e-12</wgt>
  <wgt id="247">4.10423e-12</wgt>
  <wgt id="248">4.1399e-12</wgt>
  <wgt id="249">4.12619e-12</wgt>
  <wgt id="250">4.11369e-12</wgt>
  <wgt id="251">4.09443e-12</wgt>
  <wgt id="252">4.08565e-12</wgt>
  <wgt id="253">4.0791e-12</wgt>
  <wgt id="254">4.02353e-12</wgt>
  <wgt id="255">4.02727e-12</wgt>
  <wgt id="256">4.01914e-12</wgt>
  <wgt id="257">4.02633e-12</wgt>
  <wgt id="258">4.02124e-12</wgt>
  <wgt id="259">4.05042e-12</wgt>
  <wgt id="260">3.99741e-12</wgt>
  <wgt id="261">4.02985e-12</wgt>
  <wgt id="262">4.01578e-12</wgt>
  <wgt id="263">4.02154e-12</wgt>
  <wgt id="264">4.02569e-12</wgt>
  <wgt id="265">4.01848e-12</wgt>
  <wgt id="266">4.0332e-12</wgt>
  <wgt id="267">4.02487e-12</wgt>
  <wgt id="268">4.02156e-12</wgt>
  <wgt id="269">4.03704e-12</wgt>
  <wgt id="270">4.01428e-12</wgt>
  <wgt id="271">4.0167e-12</wgt>
  <wgt id="272">4.03107e-12</wgt>
  <wgt id="273">4.01054e-12</wgt>
  <wgt id="274">4.03323e-12</wgt>
  <wgt id="275">4.00642e-12</wgt>
  <wgt id="276">4.04104e-12</wgt>
  <wgt id="277">4.00014e-12</wgt>
  <wgt id="278">4.04484e-12</wgt>
  <wgt id="279">3.94407e-12</wgt>
  <wgt id="280">4.12285e-12</wgt>
  <wgt id="281">4.00507e-12</wgt>
  <wgt id="282">4.02432e-12</wgt>
  <wgt id="283">3.90646e-12</wgt>
  <wgt id="284">4.16756e-12</wgt>
  <wgt id="285">3.82966e-12</wgt>
  <wgt id="286">4.18384e-12</wgt>
  <wgt id="287">4.03609e-12</wgt>
  <wgt id="288">4.00713e-12</wgt>
  <wgt id="289">4.05181e-12</wgt>
  <wgt id="290">3.95723e-12</wgt>
  <wgt id="291">4.0123e-12</wgt>
  <wgt id="292">4.026e-12</wgt>
  <wgt id="293">3.99204e-12</wgt>
  <wgt id="294">4.05451e-12</wgt>
  <wgt id="295">3.94658e-12</wgt>
  <wgt id="296">4.11718e-12</wgt>
  <wgt id="297">4.0227e-12</wgt>
  <wgt id="298">4.03933e-12</wgt>
  <wgt id="299">4.01008e-12</wgt>
  <wgt id="300">4.05824e-12</wgt>
  <wgt id="301">3.9639e-12</wgt>
  <wgt id="302">4.17074e-12</wgt>
  <wgt id="303">3.99144e-12</wgt>
  <wgt id="304">4.04178e-12</wgt>
  <wgt id="305">4.03503e-12</wgt>
  <wgt id="306">4.03941e-12</wgt>
  <wgt id="307">4.03067e-12</wgt>
  <wgt id="308">4.0384e-12</wgt>
  <wgt id="309">4.033e-12</wgt>
  <wgt id="310">4.06314e-12</wgt>
  <wgt id="311">4.00933e-12</wgt>
  <wgt id="312">4.04068e-12</wgt>
  <wgt id="313">4.02953e-12</wgt>
  <wgt id="314">4.03346e-12</wgt>
  <wgt id="315">4.03704e-12</wgt>
  <wgt id="316">4.03038e-12</wgt>
  <wgt id="317">4.04553e-12</wgt>
  <wgt id="318">4.03834e-12</wgt>
  <wgt id="319">4.03002e-12</wgt>
  <wgt id="320">4.04935e-12</wgt>
  <wgt id="321">4.02734e-12</wgt>
  <wgt id="322">4.02637e-12</wgt>
  <wgt id="323">4.04563e-12</wgt>
  <wgt id="324">4.02454e-12</wgt>
  <wgt id="325">4.04463e-12</wgt>
  <wgt id="326">4.02159e-12</wgt>
  <wgt id="327">4.05256e-12</wgt>
  <wgt id="328">4.01439e-12</wgt>
  <wgt id="329">4.04701e-12</wgt>
  <wgt id="330">4.15674e-12</wgt>
  <wgt id="331">3.91929e-12</wgt>
  <wgt id="332">4.01984e-12</wgt>
  <wgt id="333">4.03549e-12</wgt>
  <wgt id="334">3.94319e-12</wgt>
  <wgt id="335">4.14952e-12</wgt>
  <wgt id="336">3.89427e-12</wgt>
  <wgt id="337">4.20644e-12</wgt>
  <wgt id="338">4.08021e-12</wgt>
  <wgt id="339">3.99357e-12</wgt>
  <wgt id="340">4.06224e-12</wgt>
  <wgt id="341">3.96588e-12</wgt>
  <wgt id="342">4.02722e-12</wgt>
  <wgt id="343">4.03143e-12</wgt>
  <wgt id="344">4.00681e-12</wgt>
  <wgt id="345">4.0682e-12</wgt>
  <wgt id="346">3.95537e-12</wgt>
  <wgt id="347">4.12729e-12</wgt>
  <wgt id="348">4.03585e-12</wgt>
  <wgt id="349">4.04845e-12</wgt>
  <wgt id="350">4.01857e-12</wgt>
  <wgt id="351">4.07729e-12</wgt>
  <wgt id="352">3.96917e-12</wgt>
  <wgt id="353">4.18942e-12</wgt>
  <wgt id="354">3.98608e-12</wgt>
  <wgt id="355">4.06502e-12</wgt>
  <wgt id="356">4.02353e-12</wgt>
  <wgt id="357">4.05164e-12</wgt>
  <wgt id="358">4.03503e-12</wgt>
  <wgt id="359">4.03743e-12</wgt>
  <wgt id="360">4.05146e-12</wgt>
  <wgt id="361">4.03651e-12</wgt>
  <wgt id="362">4.1078e-12</wgt>
  <wgt id="363">4.09749e-12</wgt>
  <wgt id="364">4.08335e-12</wgt>
  <wgt id="365">4.06925e-12</wgt>
  <wgt id="366">4.05373e-12</wgt>
  <wgt id="367">4.02144e-12</wgt>
  <wgt id="368">4.00393e-12</wgt>
  <wgt id="369">3.98493e-12</wgt>
  <wgt id="370">4.03651e-12</wgt>
  <wgt id="371">4.05477e-12</wgt>
  <wgt id="372">4.04467e-12</wgt>
  <wgt id="373">4.02985e-12</wgt>
  <wgt id="374">4.02844e-12</wgt>
  <wgt id="375">4.3111e-12</wgt>
  <wgt id="376">4.31169e-12</wgt>
  <wgt id="377">4.31031e-12</wgt>
  <wgt id="378">4.32659e-12</wgt>
  <wgt id="379">4.29541e-12</wgt>
  <wgt id="380">4.32242e-12</wgt>
  <wgt id="381">4.30639e-12</wgt>
  <wgt id="382">4.33417e-12</wgt>
  <wgt id="383">4.28809e-12</wgt>
  <wgt id="384">4.31383e-12</wgt>
  <wgt id="385">4.30838e-12</wgt>
  <wgt id="386">4.32905e-12</wgt>
  <wgt id="387">4.30312e-12</wgt>
  <wgt id="388">4.30673e-12</wgt>
  <wgt id="389">4.31603e-12</wgt>
  <wgt id="390">4.32323e-12</wgt>
  <wgt id="391">4.29817e-12</wgt>
  <wgt id="392">4.27662e-12</wgt>
  <wgt id="393">4.33048e-12</wgt>
  <wgt id="394">4.31719e-12</wgt>
  <wgt id="395">4.30246e-12</wgt>
  <wgt id="396">4.31429e-12</wgt>
  <wgt id="397">4.30877e-12</wgt>
  <wgt id="398">4.29096e-12</wgt>
  <wgt id="399">4.33049e-12</wgt>
  <wgt id="400">4.30329e-12</wgt>
  <wgt id="401">4.32832e-12</wgt>
  <wgt id="402">4.27502e-12</wgt>
  <wgt id="403">4.32696e-12</wgt>
  <wgt id="404">4.41227e-12</wgt>
  <wgt id="405">4.06737e-12</wgt>
  <wgt id="406">4.23868e-12</wgt>
  <wgt id="407">4.46818e-12</wgt>
  <wgt id="408">4.34823e-12</wgt>
  <wgt id="409">4.23987e-12</wgt>
  <wgt id="410">4.1923e-12</wgt>
  <wgt id="411">4.36602e-12</wgt>
  <wgt id="412">4.30336e-12</wgt>
  <wgt id="413">4.32253e-12</wgt>
  <wgt id="414">4.26347e-12</wgt>
  <wgt id="415">4.34781e-12</wgt>
  <wgt id="416">4.42764e-12</wgt>
  <wgt id="417">4.15002e-12</wgt>
  <wgt id="418">4.31688e-12</wgt>
  <wgt id="419">4.28007e-12</wgt>
  <wgt id="420">4.37931e-12</wgt>
  <wgt id="421">4.27146e-12</wgt>
  <wgt id="422">4.30295e-12</wgt>
  <wgt id="423">4.31558e-12</wgt>
  <wgt id="424">4.40192e-12</wgt>
  <wgt id="425">4.2537e-12</wgt>
  <wgt id="426">4.3111e-12</wgt>
  <wgt id="427">4.27201e-12</wgt>
  <wgt id="428">4.42666e-12</wgt>
  <wgt id="429">4.35114e-12</wgt>
  <wgt id="430">4.47437e-12</wgt>
  <wgt id="431">4.44975e-12</wgt>
  <wgt id="432">4.42649e-12</wgt>
  <wgt id="433">4.4038e-12</wgt>
  <wgt id="434">4.37636e-12</wgt>
  <wgt id="435">4.3194e-12</wgt>
  <wgt id="436">4.29019e-12</wgt>
  <wgt id="437">4.26242e-12</wgt>
  <wgt id="438">4.35114e-12</wgt>
  <wgt id="439">4.36556e-12</wgt>
  <wgt id="440">4.35702e-12</wgt>
  <wgt id="441">4.34682e-12</wgt>
  <wgt id="442">4.34288e-12</wgt>
  <wgt id="443">4.21318e-12</wgt>
  <wgt id="444">4.23704e-12</wgt>
  <wgt id="445">4.19245e-12</wgt>
  <wgt id="446">4.18617e-12</wgt>
  <wgt id="447">4.19653e-12</wgt>
  <wgt id="448">4.0992e-12</wgt>
  <wgt id="449">4.27898e-12</wgt>
  <wgt id="450">4.1949e-12</wgt>
  <wgt id="451">4.20628e-12</wgt>
  <wgt id="452">4.31085e-12</wgt>
  <wgt id="453">4.25573e-12</wgt>
  <wgt id="454">4.04605e-12</wgt>
  <wgt id="455">4.21699e-12</wgt>
  <wgt id="456">4.17082e-12</wgt>
  <wgt id="457">4.23172e-12</wgt>
  <wgt id="458">4.26082e-12</wgt>
  <wgt id="459">4.24105e-12</wgt>
  <wgt id="460">4.23408e-12</wgt>
  <wgt id="461">4.13384e-12</wgt>
  <wgt id="462">4.17646e-12</wgt>
  <wgt id="463">4.16741e-12</wgt>
  <wgt id="464">4.18748e-12</wgt>
  <wgt id="465">4.25925e-12</wgt>
  <wgt id="466">4.16499e-12</wgt>
  <wgt id="467">4.17041e-12</wgt>
  <wgt id="468">4.20101e-12</wgt>
  <wgt id="469">4.20005e-12</wgt>
  <wgt id="470">4.17647e-12</wgt>
  <wgt id="471">4.17497e-12</wgt>
  <wgt id="472">4.23348e-12</wgt>
  <wgt id="473">4.0704e-12</wgt>
  <wgt id="474">3.0282e-12</wgt>
  <wgt id="475">3.22554e-12</wgt>
  <wgt id="476">2.95333e-12</wgt>
  <wgt id="477">2.91113e-12</wgt>
  <wgt id="478">3.04103e-12</wgt>
  <wgt id="479">2.96519e-12</wgt>
  <wgt id="480">3.14183e-12</wgt>
  <wgt id="481">2.96276e-12</wgt>
  <wgt id="482">2.9122e-12</wgt>
  <wgt id="483">2.94569e-12</wgt>
  <wgt id="484">3.24434e-12</wgt>
  <wgt id="485">3.03304e-12</wgt>
  <wgt id="486">3.11169e-12</wgt>
  <wgt id="487">3.09861e-12</wgt>
  <wgt id="488">3.07223e-12</wgt>
  <wgt id="489">2.93816e-12</wgt>
  <wgt id="490">2.93673e-12</wgt>
  <wgt id="491">2.99169e-12</wgt>
  <wgt id="492">2.93153e-12</wgt>
  <wgt id="493">2.91441e-12</wgt>
  <wgt id="494">2.93804e-12</wgt>
  <wgt id="495">3.10386e-12</wgt>
  <wgt id="496">2.92824e-12</wgt>
  <wgt id="497">2.90735e-12</wgt>
  <wgt id="498">3.07026e-12</wgt>
  <wgt id="499">2.9491e-12</wgt>
  <wgt id="500">2.9843e-12</wgt>
  <wgt id="501">3.17182e-12</wgt>
  <wgt id="502">2.94726e-12</wgt>
  <wgt id="503">3.02691e-12</wgt>
  <wgt id="504">3.05477e-12</wgt>
  <wgt id="505">2.99953e-12</wgt>
  <wgt id="506">3.12363e-12</wgt>
  <wgt id="507">2.99799e-12</wgt>
  <wgt id="508">3.06406e-12</wgt>
  <wgt id="509">2.96565e-12</wgt>
  <wgt id="510">3.11359e-12</wgt>
  <wgt id="511">2.97244e-12</wgt>
  <wgt id="512">3.07175e-12</wgt>
  <wgt id="513">3.17332e-12</wgt>
  <wgt id="514">3.00044e-12</wgt>
  <wgt id="515">2.98302e-12</wgt>
  <wgt id="516">3.10731e-12</wgt>
  <wgt id="517">3.0886e-12</wgt>
  <wgt id="518">3.09404e-12</wgt>
  <wgt id="519">2.93665e-12</wgt>
  <wgt id="520">3.05832e-12</wgt>
  <wgt id="521">3.13469e-12</wgt>
  <wgt id="522">3.14399e-12</wgt>
  <wgt id="523">3.11345e-12</wgt>
  <wgt id="524">3.07868e-12</wgt>
  <wgt id="525">3.13116e-12</wgt>
  <wgt id="526">3.03914e-12</wgt>
  <wgt id="527">3.07371e-12</wgt>
  <wgt id="528">3.04792e-12</wgt>
  <wgt id="529">2.96896e-12</wgt>
  <wgt id="530">3.05614e-12</wgt>
  <wgt id="531">3.00128e-12</wgt>
  <wgt id="532">3.19909e-12</wgt>
  <wgt id="533">2.84212e-12</wgt>
  <wgt id="534">3.04794e-12</wgt>
  <wgt id="535">3.10128e-12</wgt>
  <wgt id="536">3.01084e-12</wgt>
  <wgt id="537">3.04207e-12</wgt>
  <wgt id="538">3.06012e-12</wgt>
  <wgt id="539">2.97479e-12</wgt>
  <wgt id="540">2.95678e-12</wgt>
  <wgt id="541">2.94071e-12</wgt>
  <wgt id="542">2.97775e-12</wgt>
  <wgt id="543">3.02563e-12</wgt>
  <wgt id="544">3.18055e-12</wgt>
  <wgt id="545">2.99283e-12</wgt>
  <wgt id="546">2.99444e-12</wgt>
  <wgt id="547">2.93256e-12</wgt>
  <wgt id="548">2.90379e-12</wgt>
  <wgt id="549">2.97241e-12</wgt>
  <wgt id="550">3.01075e-12</wgt>
  <wgt id="551">3.05372e-12</wgt>
  <wgt id="552">3.01001e-12</wgt>
  <wgt id="553">3.02282e-12</wgt>
  <wgt id="554">3.2518e-12</wgt>
  <wgt id="555">3.10142e-12</wgt>
  <wgt id="556">2.93673e-12</wgt>
  <wgt id="557">3.07607e-12</wgt>
  <wgt id="558">2.92648e-12</wgt>
  <wgt id="559">2.98989e-12</wgt>
  <wgt id="560">3.2802e-12</wgt>
  <wgt id="561">2.96759e-12</wgt>
  <wgt id="562">3.07529e-12</wgt>
  <wgt id="563">2.92446e-12</wgt>
  <wgt id="564">3.02164e-12</wgt>
  <wgt id="565">2.90329e-12</wgt>
  <wgt id="566">3.08365e-12</wgt>
  <wgt id="567">2.98414e-12</wgt>
  <wgt id="568">3.01404e-12</wgt>
  <wgt id="569">3.09757e-12</wgt>
  <wgt id="570">2.93178e-12</wgt>
  <wgt id="571">3.35852e-12</wgt>
  <wgt id="572">2.95444e-12</wgt>
  <wgt id="573">2.89e-12</wgt>
  <wgt id="574">2.91751e-12</wgt>
  <wgt id="575">3.33842e-12</wgt>
  <wgt id="576">3.30521e-12</wgt>
  <wgt id="577">3.42276e-12</wgt>
  <wgt id="578">3.43184e-12</wgt>
  <wgt id="579">3.39723e-12</wgt>
  <wgt id="580">3.40002e-12</wgt>
  <wgt id="581">3.55315e-12</wgt>
  <wgt id="582">3.29783e-12</wgt>
  <wgt id="583">3.37702e-12</wgt>
  <wgt id="584">3.34601e-12</wgt>
  <wgt id="585">3.37479e-12</wgt>
  <wgt id="586">3.26911e-12</wgt>
  <wgt id="587">3.38862e-12</wgt>
  <wgt id="588">3.31618e-12</wgt>
  <wgt id="589">3.40264e-12</wgt>
  <wgt id="590">3.40311e-12</wgt>
  <wgt id="591">3.46398e-12</wgt>
  <wgt id="592">3.2764e-12</wgt>
  <wgt id="593">3.32718e-12</wgt>
  <wgt id="594">3.43594e-12</wgt>
  <wgt id="595">3.32311e-12</wgt>
  <wgt id="596">3.35205e-12</wgt>
  <wgt id="597">3.2355e-12</wgt>
  <wgt id="598">3.24157e-12</wgt>
  <wgt id="599">3.52826e-12</wgt>
  <wgt id="600">3.29964e-12</wgt>
  <wgt id="601">3.24686e-12</wgt>
  <wgt id="602">3.26989e-12</wgt>
  <wgt id="603">3.27551e-12</wgt>
  <wgt id="604">3.38871e-12</wgt>
  <wgt id="605">3.4761e-12</wgt>
  <wgt id="606">3.25771e-12</wgt>
  <wgt id="607">3.29137e-12</wgt>
  <wgt id="608">3.36619e-12</wgt>
  <wgt id="609">3.15465e-12</wgt>
  <wgt id="610">3.21283e-12</wgt>
  <wgt id="611">3.37255e-12</wgt>
  <wgt id="612">3.55746e-12</wgt>
  <wgt id="613">3.33442e-12</wgt>
  <wgt id="614">3.38854e-12</wgt>
  <wgt id="615">3.26615e-12</wgt>
  <wgt id="616">3.5299e-12</wgt>
  <wgt id="617">3.46471e-12</wgt>
  <wgt id="618">3.39153e-12</wgt>
  <wgt id="619">3.29579e-12</wgt>
  <wgt id="620">3.49381e-12</wgt>
  <wgt id="621">3.3919e-12</wgt>
  <wgt id="622">3.38862e-12</wgt>
  <wgt id="623">3.43983e-12</wgt>
  <wgt id="624">3.32785e-12</wgt>
  <wgt id="625">3.3043e-12</wgt>
  <wgt id="626">3.26112e-12</wgt>
  <wgt id="627">3.20801e-12</wgt>
  <wgt id="628">3.54479e-12</wgt>
  <wgt id="629">3.25548e-12</wgt>
  <wgt id="630">3.20115e-12</wgt>
  <wgt id="631">3.35731e-12</wgt>
  <wgt id="632">3.22494e-12</wgt>
  <wgt id="633">3.30075e-12</wgt>
  <wgt id="634">3.33159e-12</wgt>
  <wgt id="635">3.27171e-12</wgt>
  <wgt id="636">3.35521e-12</wgt>
  <wgt id="637">3.31949e-12</wgt>
  <wgt id="638">3.20532e-12</wgt>
  <wgt id="639">3.29332e-12</wgt>
  <wgt id="640">3.3402e-12</wgt>
  <wgt id="641">3.35629e-12</wgt>
  <wgt id="642">3.16497e-12</wgt>
  <wgt id="643">3.31819e-12</wgt>
  <wgt id="644">3.21864e-12</wgt>
  <wgt id="645">3.37429e-12</wgt>
  <wgt id="646">3.39238e-12</wgt>
  <wgt id="647">3.29757e-12</wgt>
  <wgt id="648">3.35381e-12</wgt>
  <wgt id="649">3.39232e-12</wgt>
  <wgt id="650">3.28027e-12</wgt>
  <wgt id="651">3.33899e-12</wgt>
  <wgt id="652">3.31543e-12</wgt>
  <wgt id="653">3.24386e-12</wgt>
  <wgt id="654">3.3226e-12</wgt>
  <wgt id="655">3.29027e-12</wgt>
  <wgt id="656">3.3681e-12</wgt>
  <wgt id="657">3.46075e-12</wgt>
  <wgt id="658">3.34172e-12</wgt>
  <wgt id="659">3.20493e-12</wgt>
  <wgt id="660">3.40967e-12</wgt>
  <wgt id="661">3.28118e-12</wgt>
  <wgt id="662">3.34664e-12</wgt>
  <wgt id="663">3.33831e-12</wgt>
  <wgt id="664">3.28815e-12</wgt>
  <wgt id="665">3.32752e-12</wgt>
  <wgt id="666">3.30897e-12</wgt>
  <wgt id="667">3.4394e-12</wgt>
  <wgt id="668">3.33659e-12</wgt>
  <wgt id="669">3.42067e-12</wgt>
  <wgt id="670">3.40588e-12</wgt>
  <wgt id="671">3.31114e-12</wgt>
  <wgt id="672">3.19915e-12</wgt>
  <wgt id="673">3.3438e-12</wgt>
  <wgt id="674">3.27777e-12</wgt>
  <wgt id="675">3.2987e-12</wgt>
  <wgt id="676">4.22064e-12</wgt>
  <wgt id="677">4.26469e-12</wgt>
  <wgt id="678">4.41789e-12</wgt>
  <wgt id="679">3.93e-12</wgt>
  <wgt id="680">4.11949e-12</wgt>
  <wgt id="681">4.31848e-12</wgt>
  <wgt id="682">4.35556e-12</wgt>
  <wgt id="683">4.16628e-12</wgt>
  <wgt id="684">4.41641e-12</wgt>
  <wgt id="685">3.98429e-12</wgt>
  <wgt id="686">4.13829e-12</wgt>
  <wgt id="687">4.4397e-12</wgt>
  <wgt id="688">4.22437e-12</wgt>
  <wgt id="689">4.59167e-12</wgt>
  <wgt id="690">4.44043e-12</wgt>
  <wgt id="691">4.50568e-12</wgt>
  <wgt id="692">4.16898e-12</wgt>
  <wgt id="693">4.9536e-12</wgt>
  <wgt id="694">4.46833e-12</wgt>
  <wgt id="695">4.09364e-12</wgt>
  <wgt id="696">3.97964e-12</wgt>
  <wgt id="697">4.13176e-12</wgt>
  <wgt id="698">3.87555e-12</wgt>
  <wgt id="699">3.84671e-12</wgt>
  <wgt id="700">3.66813e-12</wgt>
  <wgt id="701">4.23912e-12</wgt>
  <wgt id="702">4.07531e-12</wgt>
  <wgt id="703">4.84743e-12</wgt>
  <wgt id="704">4.61069e-12</wgt>
  <wgt id="705">4.39196e-12</wgt>
  <wgt id="706">3.92233e-12</wgt>
  <wgt id="707">4.05264e-12</wgt>
  <wgt id="708">4.16757e-12</wgt>
  <wgt id="709">4.14759e-12</wgt>
  <wgt id="710">3.77927e-12</wgt>
  <wgt id="711">4.18993e-12</wgt>
  <wgt id="712">4.15454e-12</wgt>
  <wgt id="713">4.58998e-12</wgt>
  <wgt id="714">4.16111e-12</wgt>
  <wgt id="715">4.18451e-12</wgt>
  <wgt id="716">4.05134e-12</wgt>
  <wgt id="717">4.03494e-12</wgt>
  <wgt id="718">4.20988e-12</wgt>
  <wgt id="719">3.82492e-12</wgt>
  <wgt id="720">3.95124e-12</wgt>
  <wgt id="721">3.88522e-12</wgt>
  <wgt id="722">3.74343e-12</wgt>
  <wgt id="723">4.50291e-12</wgt>
  <wgt id="724">4.42142e-12</wgt>
  <wgt id="725">4.45854e-12</wgt>
  <wgt id="726">4.26491e-12</wgt>
  <wgt id="727">4.11636e-12</wgt>
  <wgt id="728">4.1266e-12</wgt>
  <wgt id="729">3.79834e-12</wgt>
  <wgt id="730">4.5738e-12</wgt>
  <wgt id="731">4.16946e-12</wgt>
  <wgt id="732">4.63569e-12</wgt>
  <wgt id="733">4.23342e-12</wgt>
  <wgt id="734">4.32464e-12</wgt>
  <wgt id="735">4.19429e-12</wgt>
  <wgt id="736">4.14407e-12</wgt>
  <wgt id="737">4.29846e-12</wgt>
  <wgt id="738">3.99172e-12</wgt>
  <wgt id="739">4.27597e-12</wgt>
  <wgt id="740">4.68913e-12</wgt>
  <wgt id="741">3.74191e-12</wgt>
  <wgt id="742">4.14786e-12</wgt>
  <wgt id="743">4.02511e-12</wgt>
  <wgt id="744">4.1339e-12</wgt>
  <wgt id="745">4.41909e-12</wgt>
  <wgt id="746">4.49284e-12</wgt>
  <wgt id="747">3.82218e-12</wgt>
  <wgt id="748">4.17442e-12</wgt>
  <wgt id="749">4.44863e-12</wgt>
  <wgt id="750">4.27721e-12</wgt>
  <wgt id="751">4.36222e-12</wgt>
  <wgt id="752">3.86004e-12</wgt>
  <wgt id="753">4.02589e-12</wgt>
  <wgt id="754">4.44849e-12</wgt>
  <wgt id="755">4.23826e-12</wgt>
  <wgt id="756">4.25926e-12</wgt>
  <wgt id="757">3.87932e-12</wgt>
  <wgt id="758">4.2636e-12</wgt>
  <wgt id="759">4.29098e-12</wgt>
  <wgt id="760">4.27606e-12</wgt>
  <wgt id="761">4.44183e-12</wgt>
  <wgt id="762">4.4762e-12</wgt>
  <wgt id="763">4.19813e-12</wgt>
  <wgt id="764">4.39241e-12</wgt>
  <wgt id="765">4.32546e-12</wgt>
  <wgt id="766">4.21379e-12</wgt>
  <wgt id="767">4.33793e-12</wgt>
  <wgt id="768">3.97852e-12</wgt>
  <wgt id="769">4.48383e-12</wgt>
  <wgt id="770">4.08401e-12</wgt>
  <wgt id="771">5.00703e-12</wgt>
  <wgt id="772">3.97725e-12</wgt>
  <wgt id="773">4.186e-12</wgt>
  <wgt id="774">3.7577e-12</wgt>
  <wgt id="775">4.47483e-12</wgt>
  <wgt id="776">4.61186e-12</wgt>
  <wgt id="777">4.00374e-12</wgt>
  <wgt id="778">3.09808e-12</wgt>
  <wgt id="779">2.57308e-12</wgt>
  <wgt id="780">2.07624e-12</wgt>
  <wgt id="781">3.12966e-12</wgt>
  <wgt id="782">3.27657e-12</wgt>
  <wgt id="783">2.60066e-12</wgt>
  <wgt id="784">2.70006e-12</wgt>
  <wgt id="785">3.76952e-12</wgt>
  <wgt id="786">2.38225e-12</wgt>
  <wgt id="787">3.5474e-12</wgt>
  <wgt id="788">1.93034e-12</wgt>
  <wgt id="789">2.45127e-12</wgt>
  <wgt id="790">2.34693e-12</wgt>
  <wgt id="791">2.88258e-12</wgt>
  <wgt id="792">4.03743e-12</wgt>
  <wgt id="793">3.02513e-12</wgt>
  <wgt id="794">2.34678e-12</wgt>
  <wgt id="795">3.66321e-12</wgt>
  <wgt id="796">4.1061e-12</wgt>
  <wgt id="797">3.60815e-12</wgt>
  <wgt id="798">2.85248e-12</wgt>
  <wgt id="799">3.54868e-12</wgt>
  <wgt id="800">2.47972e-12</wgt>
  <wgt id="801">2.88174e-12</wgt>
  <wgt id="802">2.3636e-12</wgt>
  <wgt id="803">3.96729e-12</wgt>
  <wgt id="804">3.63175e-12</wgt>
  <wgt id="805">3.70596e-12</wgt>
  <wgt id="806">3.47846e-12</wgt>
  <wgt id="807">2.93761e-12</wgt>
  <wgt id="808">3.0149e-12</wgt>
  <wgt id="809">2.84637e-12</wgt>
  <wgt id="810">3.53851e-12</wgt>
  <wgt id="811">3.40308e-12</wgt>
  <wgt id="812">2.32321e-12</wgt>
  <wgt id="813">2.38083e-12</wgt>
  <wgt id="814">2.67777e-12</wgt>
  <wgt id="815">2.57888e-12</wgt>
  <wgt id="816">2.23509e-12</wgt>
  <wgt id="817">3.25978e-12</wgt>
  <wgt id="818">3.06639e-12</wgt>
  <wgt id="819">2.56577e-12</wgt>
  <wgt id="820">3.10625e-12</wgt>
  <wgt id="821">3.60092e-12</wgt>
  <wgt id="822">2.53962e-12</wgt>
  <wgt id="823">3.62394e-12</wgt>
  <wgt id="824">4.18514e-12</wgt>
  <wgt id="825">2.26655e-12</wgt>
  <wgt id="826">3.29057e-12</wgt>
  <wgt id="827">1.84744e-12</wgt>
  <wgt id="828">3.98791e-12</wgt>
  <wgt id="829">3.24411e-12</wgt>
  <wgt id="830">2.14648e-12</wgt>
  <wgt id="831">3.35263e-12</wgt>
  <wgt id="832">5.15874e-12</wgt>
  <wgt id="833">2.87673e-12</wgt>
  <wgt id="834">4.79514e-12</wgt>
  <wgt id="835">2.49743e-12</wgt>
  <wgt id="836">3.08527e-12</wgt>
  <wgt id="837">3.55425e-12</wgt>
  <wgt id="838">2.96531e-12</wgt>
  <wgt id="839">3.32736e-12</wgt>
  <wgt id="840">2.88363e-12</wgt>
  <wgt id="841">3.8618e-12</wgt>
  <wgt id="842">2.77808e-12</wgt>
  <wgt id="843">3.04965e-12</wgt>
  <wgt id="844">3.25192e-12</wgt>
  <wgt id="845">4.38582e-12</wgt>
  <wgt id="846">2.84231e-12</wgt>
  <wgt id="847">3.15906e-12</wgt>
  <wgt id="848">2.66109e-12</wgt>
  <wgt id="849">3.1837e-12</wgt>
  <wgt id="850">4.09121e-12</wgt>
  <wgt id="851">3.41012e-12</wgt>
  <wgt id="852">2.6553e-12</wgt>
  <wgt id="853">3.41378e-12</wgt>
  <wgt id="854">3.80069e-12</wgt>
  <wgt id="855">3.645e-12</wgt>
  <wgt id="856">2.20792e-12</wgt>
  <wgt id="857">3.10551e-12</wgt>
  <wgt id="858">3.09839e-12</wgt>
  <wgt id="859">2.86486e-12</wgt>
  <wgt id="860">3.35329e-12</wgt>
  <wgt id="861">2.69385e-12</wgt>
  <wgt id="862">3.1717e-12</wgt>
  <wgt id="863">3.29755e-12</wgt>
  <wgt id="864">3.32797e-12</wgt>
  <wgt id="865">4.5218e-12</wgt>
  <wgt id="866">4.94187e-12</wgt>
  <wgt id="867">3.18745e-12</wgt>
  <wgt id="868">3.08928e-12</wgt>
  <wgt id="869">2.38657e-12</wgt>
  <wgt id="870">2.50515e-12</wgt>
  <wgt id="871">2.42825e-12</wgt>
  <wgt id="872">3.7382e-12</wgt>
  <wgt id="873">2.51194e-12</wgt>
  <wgt id="874">3.2797e-12</wgt>
  <wgt id="875">2.68677e-12</wgt>
  <wgt id="876">3.75628e-12</wgt>
  <wgt id="877">3.60306e-12</wgt>
  <wgt id="878">2.63602e-12</wgt>
  <wgt id="879">4.22064e-12</wgt>
  <wgt id="880">4.26469e-12</wgt>
  <wgt id="881">4.41789e-12</wgt>
  <wgt id="882">3.93e-12</wgt>
  <wgt id="883">4.11949e-12</wgt>
  <wgt id="884">4.31848e-12</wgt>
  <wgt id="885">4.35556e-12</wgt>
  <wgt id="886">4.16628e-12</wgt>
  <wgt id="887">4.41641e-12</wgt>
  <wgt id="888">3.98429e-12</wgt>
  <wgt id="889">4.13829e-12</wgt>
  <wgt id="890">4.4397e-12</wgt>
  <wgt id="891">4.22437e-12</wgt>
  <wgt id="892">4.59167e-12</wgt>
  <wgt id="893">4.44043e-12</wgt>
  <wgt id="894">4.50568e-12</wgt>
  <wgt id="895">4.16898e-12</wgt>
  <wgt id="896">4.9536e-12</wgt>
  <wgt id="897">4.46833e-12</wgt>
  <wgt id="898">4.09364e-12</wgt>
  <wgt id="899">3.97964e-12</wgt>
  <wgt id="900">4.13176e-12</wgt>
  <wgt id="901">3.87555e-12</wgt>
  <wgt id="902">3.84671e-12</wgt>
  <wgt id="903">3.66813e-12</wgt>
  <wgt id="904">4.23912e-12</wgt>
  <wgt id="905">4.07531e-12</wgt>
  <wgt id="906">4.84743e-12</wgt>
  <wgt id="907">4.61069e-12</wgt>
  <wgt id="908">4.39196e-12</wgt>
  <wgt id="909">3.92233e-12</wgt>
  <wgt id="910">4.05264e-12</wgt>
  <wgt id="911">4.16757e-12</wgt>
  <wgt id="912">4.14759e-12</wgt>
  <wgt id="913">3.77927e-12</wgt>
  <wgt id="914">4.18993e-12</wgt>
  <wgt id="915">4.15454e-12</wgt>
  <wgt id="916">4.58998e-12</wgt>
  <wgt id="917">4.16111e-12</wgt>
  <wgt id="918">4.18451e-12</wgt>
  <wgt id="919">4.05134e-12</wgt>
  <wgt id="920">4.03494e-12</wgt>
  <wgt id="921">4.20988e-12</wgt>
  <wgt id="922">3.82492e-12</wgt>
  <wgt id="923">3.95124e-12</wgt>
  <wgt id="924">3.88522e-12</wgt>
  <wgt id="925">3.74343e-12</wgt>
  <wgt id="926">4.50291e-12</wgt>
  <wgt id="927">4.42142e-12</wgt>
  <wgt id="928">4.45854e-12</wgt>
  <wgt id="929">4.26491e-12</wgt>
  <wgt id="930">4.11636e-12</wgt>
  <wgt id="931">4.1266e-12</wgt>
  <wgt id="932">3.79834e-12</wgt>
  <wgt id="933">4.5738e-12</wgt>
  <wgt id="934">4.16946e-12</wgt>
  <wgt id="935">4.63569e-12</wgt>
  <wgt id="936">4.23342e-12</wgt>
  <wgt id="937">4.32464e-12</wgt>
  <wgt id="938">4.19429e-12</wgt>
  <wgt id="939">4.14407e-12</wgt>
  <wgt id="940">4.29846e-12</wgt>
  <wgt id="941">3.99172e-12</wgt>
  <wgt id="942">4.27597e-12</wgt>
  <wgt id="943">4.68913e-12</wgt>
  <wgt id="944">3.74191e-12</wgt>
  <wgt id="945">4.14786e-12</wgt>
  <wgt id="946">4.02511e-12</wgt>
  <wgt id="947">4.1339e-12</wgt>
  <wgt id="948">4.41909e-12</wgt>
  <wgt id="949">4.49284e-12</wgt>
  <wgt id="950">3.82218e-12</wgt>
  <wgt id="951">4.17442e-12</wgt>
  <wgt id="952">4.44863e-12</wgt>
  <wgt id="953">4.27721e-12</wgt>
  <wgt id="954">4.36222e-12</wgt>
  <wgt id="955">3.86004e-12</wgt>
  <wgt id="956">4.02589e-12</wgt>
  <wgt id="957">4.44849e-12</wgt>
  <wgt id="958">4.23826e-12</wgt>
  <wgt id="959">4.25926e-12</wgt>
  <wgt id="960">3.87932e-12</wgt>
  <wgt id="961">4.2636e-12</wgt>
  <wgt id="962">4.29098e-12</wgt>
  <wgt id="963">4.27606e-12</wgt>
  <wgt id="964">4.44183e-12</wgt>
  <wgt id="965">4.4762e-12</wgt>
  <wgt id="966">4.19813e-12</wgt>
  <wgt id="967">4.39241e-12</wgt>
  <wgt id="968">4.32546e-12</wgt>
  <wgt id="969">4.21379e-12</wgt>
  <wgt id="970">4.33793e-12</wgt>
  <wgt id="971">3.97852e-12</wgt>
  <wgt id="972">4.48383e-12</wgt>
  <wgt id="973">4.08401e-12</wgt>
  <wgt id="974">5.00703e-12</wgt>
  <wgt id="975">3.97725e-12</wgt>
  <wgt id="976">4.186e-12</wgt>
  <wgt id="977">3.7577e-12</wgt>
  <wgt id="978">4.47483e-12</wgt>
  <wgt id="979">4.61186e-12</wgt>
  <wgt id="980">4.21835e-12</wgt>
  <wgt id="981">4.24723e-12</wgt>
  <wgt id="982">4.099e-12</wgt>
</rwgt>
</event>
<event>
 5   1  0.3028200E-11  0.2385221E+04  0.7818608E-02  0.7682495E-01
       21   -1    0    0  502  501  0.00000000000E+00  0.00000000000E+00  0.65685832698E+03  0.65685832698E+03  0.00000000000E+00 0. -1.
       21   -1    0    0  501  502 -0.00000000000E+00 -0.00000000000E+00 -0.21653378681E+04  0.21653378681E+04  0.00000000000E+00 0.  1.
       39    2    1    2    0    0  0.00000000000E+00  0.00000000000E+00 -0.15084795412E+04  0.28221961951E+04  0.23852213393E+04 0.  0.
       25    1    3    3    0    0 -0.35554063532E+03 -0.11285834341E+04 -0.65822172979E+03  0.13597759215E+04  0.12500000000E+03 0.  0.
       25    1    3    3    0    0  0.35554063532E+03  0.11285834341E+04 -0.85025781138E+03  0.14624202737E+04  0.12500000000E+03 0.  0.
<mgrwt>
<rscale>  0 0.23852213E+04</rscale>
<asrwt>0</asrwt>
<pdfrwt beam="1">  1       21 0.10105513E+00 0.23852213E+04</pdfrwt>
<pdfrwt beam="2">  1       21 0.33312890E+00 0.23852213E+04</pdfrwt>
<totfact> 0.58503493E+00</totfact>
</mgrwt>
<rwgt>
  <wgt id="1">3.0282e-12</wgt>
  <wgt id="2">2.60846e-12</wgt>
  <wgt id="3">3.55559e-12</wgt>
  <wgt id="4">3.0282e-12</wgt>
  <wgt id="5">2.60846e-12</wgt>
  <wgt id="6">3.55559e-12</wgt>
  <wgt id="7">3.0282e-12</wgt>
  <wgt id="8">2.60846e-12</wgt>
  <wgt id="9">3.55559e-12</wgt>
  <wgt id="10">3.19938e-12</wgt>
  <wgt id="11">3.19872e-12</wgt>
  <wgt id="12">3.19108e-12</wgt>
  <wgt id="13">3.19323e-12</wgt>
  <wgt id="14">3.20923e-12</wgt>
  <wgt id="15">3.20455e-12</wgt>
  <wgt id="16">3.19061e-12</wgt>
  <wgt id="17">3.2183e-12</wgt>
  <wgt id="18">3.19709e-12</wgt>
  <wgt id="19">3.21338e-12</wgt>
  <wgt id="20">3.19904e-12</wgt>
  <wgt id="21">3.17279e-12</wgt>
  <wgt id="22">3.17494e-12</wgt>
  <wgt id="23">3.14711e-12</wgt>
  <wgt id="24">3.17295e-12</wgt>
  <wgt id="25">3.1867e-12</wgt>
  <wgt id="26">3.2078e-12</wgt>
  <wgt id="27">3.19237e-12</wgt>
  <wgt id="28">3.17764e-12</wgt>
  <wgt id="29">3.20021e-12</wgt>
  <wgt id="30">3.17051e-12</wgt>
  <wgt id="31">3.21405e-12</wgt>
  <wgt id="32">3.17157e-12</wgt>
  <wgt id="33">3.20313e-12</wgt>
  <wgt id="34">3.17673e-12</wgt>
  <wgt id="35">3.17356e-12</wgt>
  <wgt id="36">3.21517e-12</wgt>
  <wgt id="37">3.18794e-12</wgt>
  <wgt id="38">3.18496e-12</wgt>
  <wgt id="39">3.261e-12</wgt>
  <wgt id="40">3.20409e-12</wgt>
  <wgt id="41">3.19698e-12</wgt>
  <wgt id="42">3.20773e-12</wgt>
  <wgt id="43">3.20324e-12</wgt>
  <wgt id="44">3.21734e-12</wgt>
  <wgt id="45">3.20298e-12</wgt>
  <wgt id="46">3.18383e-12</wgt>
  <wgt id="47">3.23488e-12</wgt>
  <wgt id="48">3.22167e-12</wgt>
  <wgt id="49">3.18212e-12</wgt>
  <wgt id="50">3.16846e-12</wgt>
  <wgt id="51">3.1759e-12</wgt>
  <wgt id="52">3.20585e-12</wgt>
  <wgt id="53">3.2378e-12</wgt>
  <wgt id="54">3.21822e-12</wgt>
  <wgt id="55">3.19657e-12</wgt>
  <wgt id="56">3.17808e-12</wgt>
  <wgt id="57">3.17563e-12</wgt>
  <wgt id="58">3.19799e-12</wgt>
  <wgt id="59">3.20702e-12</wgt>
  <wgt id="60">3.16851e-12</wgt>
  <wgt id="61">3.18313e-12</wgt>
  <wgt id="62">3.19505e-12</wgt>
  <wgt id="63">3.19669e-12</wgt>
  <wgt id="64">3.19602e-12</wgt>
  <wgt id="65">3.18322e-12</wgt>
  <wgt id="66">3.20476e-12</wgt>
  <wgt id="67">3.19922e-12</wgt>
  <wgt id="68">3.19815e-12</wgt>
  <wgt id="69">3.19249e-12</wgt>
  <wgt id="70">3.187e-12</wgt>
  <wgt id="71">3.19975e-12</wgt>
  <wgt id="72">3.18281e-12</wgt>
  <wgt id="73">3.21096e-12</wgt>
  <wgt id="74">3.21378e-12</wgt>
  <wgt id="75">3.19556e-12</wgt>
  <wgt id="76">3.22234e-12</wgt>
  <wgt id="77">3.19273e-12</wgt>
  <wgt id="78">3.19652e-12</wgt>
  <wgt id="79">3.20765e-12</wgt>
  <wgt id="80">3.17082e-12</wgt>
  <wgt id="81">3.1978e-12</wgt>
  <wgt id="82">3.20275e-12</wgt>
  <wgt id="83">3.17706e-12</wgt>
  <wgt id="84">3.18675e-12</wgt>
  <wgt id="85">3.18474e-12</wgt>
  <wgt id="86">3.21467e-12</wgt>
  <wgt id="87">3.16605e-12</wgt>
  <wgt id="88">3.20998e-12</wgt>
  <wgt id="89">3.20643e-12</wgt>
  <wgt id="90">3.21184e-12</wgt>
  <wgt id="91">3.2037e-12</wgt>
  <wgt id="92">3.2097e-12</wgt>
  <wgt id="93">3.20309e-12</wgt>
  <wgt id="94">3.18925e-12</wgt>
  <wgt id="95">3.21057e-12</wgt>
  <wgt id="96">3.20882e-12</wgt>
  <wgt id="97">3.18501e-12</wgt>
  <wgt id="98">3.1993e-12</wgt>
  <wgt id="99">3.19556e-12</wgt>
  <wgt id="100">3.20658e-12</wgt>
  <wgt id="101">3.1939e-12</wgt>
  <wgt id="102">3.1924e-12</wgt>
  <wgt id="103">3.21208e-12</wgt>
  <wgt id="104">3.19312e-12</wgt>
  <wgt id="105">3.20801e-12</wgt>
  <wgt id="106">3.18997e-12</wgt>
  <wgt id="107">3.22021e-12</wgt>
  <wgt id="108">3.19279e-12</wgt>
  <wgt id="109">3.20115e-12</wgt>
  <wgt id="110">3.19855e-12</wgt>
  <wgt id="111">3.19844e-12</wgt>
  <wgt id="112">3.24373e-12</wgt>
  <wgt id="113">4.6507e-12</wgt>
  <wgt id="114">4.27176e-12</wgt>
  <wgt id="115">4.19184e-12</wgt>
  <wgt id="116">5.84554e-12</wgt>
  <wgt id="117">3.53484e-12</wgt>
  <wgt id="118">3.54844e-12</wgt>
  <wgt id="119">3.52705e-12</wgt>
  <wgt id="120">3.53486e-12</wgt>
  <wgt id="121">3.53478e-12</wgt>
  <wgt id="122">3.52938e-12</wgt>
  <wgt id="123">3.54241e-12</wgt>
  <wgt id="124">3.53024e-12</wgt>
  <wgt id="125">3.53781e-12</wgt>
  <wgt id="126">3.54012e-12</wgt>
  <wgt id="127">3.5313e-12</wgt>
  <wgt id="128">3.54556e-12</wgt>
  <wgt id="129">3.52416e-12</wgt>
  <wgt id="130">3.55226e-12</wgt>
  <wgt id="131">3.51672e-12</wgt>
  <wgt id="132">3.43522e-12</wgt>
  <wgt id="133">3.65373e-12</wgt>
  <wgt id="134">3.49626e-12</wgt>
  <wgt id="135">3.56514e-12</wgt>
  <wgt id="136">3.59069e-12</wgt>
  <wgt id="137">3.46776e-12</wgt>
  <wgt id="138">3.70034e-12</wgt>
  <wgt id="139">3.37821e-12</wgt>
  <wgt id="140">3.5186e-12</wgt>
  <wgt id="141">3.54705e-12</wgt>
  <wgt id="142">3.53386e-12</wgt>
  <wgt id="143">3.54637e-12</wgt>
  <wgt id="144">3.38091e-12</wgt>
  <wgt id="145">3.68532e-12</wgt>
  <wgt id="146">3.5846e-12</wgt>
  <wgt id="147">3.49401e-12</wgt>
  <wgt id="148">3.54814e-12</wgt>
  <wgt id="149">3.53387e-12</wgt>
  <wgt id="150">3.56486e-12</wgt>
  <wgt id="151">3.52076e-12</wgt>
  <wgt id="152">3.53579e-12</wgt>
  <wgt id="153">3.53448e-12</wgt>
  <wgt id="154">3.54096e-12</wgt>
  <wgt id="155">3.52028e-12</wgt>
  <wgt id="156">3.66213e-12</wgt>
  <wgt id="157">3.42035e-12</wgt>
  <wgt id="158">4.23202e-12</wgt>
  <wgt id="159">4.25009e-12</wgt>
  <wgt id="160">4.21742e-12</wgt>
  <wgt id="161">4.22089e-12</wgt>
  <wgt id="162">4.24441e-12</wgt>
  <wgt id="163">4.22704e-12</wgt>
  <wgt id="164">4.23933e-12</wgt>
  <wgt id="165">4.23354e-12</wgt>
  <wgt id="166">4.23079e-12</wgt>
  <wgt id="167">4.22906e-12</wgt>
  <wgt id="168">4.23605e-12</wgt>
  <wgt id="169">4.21487e-12</wgt>
  <wgt id="170">4.24265e-12</wgt>
  <wgt id="171">4.22873e-12</wgt>
  <wgt id="172">4.23659e-12</wgt>
  <wgt id="173">4.22364e-12</wgt>
  <wgt id="174">4.23483e-12</wgt>
  <wgt id="175">4.10586e-12</wgt>
  <wgt id="176">4.39752e-12</wgt>
  <wgt id="177">4.25192e-12</wgt>
  <wgt id="178">4.21396e-12</wgt>
  <wgt id="179">4.45468e-12</wgt>
  <wgt id="180">3.89002e-12</wgt>
  <wgt id="181">4.08652e-12</wgt>
  <wgt id="182">4.32919e-12</wgt>
  <wgt id="183">4.1438e-12</wgt>
  <wgt id="184">4.27581e-12</wgt>
  <wgt id="185">4.18331e-12</wgt>
  <wgt id="186">4.29097e-12</wgt>
  <wgt id="187">4.18303e-12</wgt>
  <wgt id="188">4.31826e-12</wgt>
  <wgt id="189">4.19771e-12</wgt>
  <wgt id="190">4.24589e-12</wgt>
  <wgt id="191">4.24761e-12</wgt>
  <wgt id="192">4.22276e-12</wgt>
  <wgt id="193">4.3055e-12</wgt>
  <wgt id="194">4.19501e-12</wgt>
  <wgt id="195">4.06995e-12</wgt>
  <wgt id="196">4.49556e-12</wgt>
  <wgt id="197">4.25534e-12</wgt>
  <wgt id="198">4.22637e-12</wgt>
  <wgt id="199">4.23202e-12</wgt>
  <wgt id="200">4.27413e-12</wgt>
  <wgt id="201">4.25991e-12</wgt>
  <wgt id="202">4.24607e-12</wgt>
  <wgt id="203">4.22629e-12</wgt>
  <wgt id="204">4.21626e-12</wgt>
  <wgt id="205">4.20808e-12</wgt>
  <wgt id="206">4.13733e-12</wgt>
  <wgt id="207">4.1623e-12</wgt>
  <wgt id="208">4.11259e-12</wgt>
  <wgt id="209">4.15042e-12</wgt>
  <wgt id="210">4.12783e-12</wgt>
  <wgt id="211">4.13574e-12</wgt>
  <wgt id="212">4.13854e-12</wgt>
  <wgt id="213">4.13695e-12</wgt>
  <wgt id="214">4.13786e-12</wgt>
  <wgt id="215">4.14058e-12</wgt>
  <wgt id="216">4.135e-12</wgt>
  <wgt id="217">4.14697e-12</wgt>
  <wgt id="218">4.12987e-12</wgt>
  <wgt id="219">4.1326e-12</wgt>
  <wgt id="220">4.14015e-12</wgt>
  <wgt id="221">4.13903e-12</wgt>
  <wgt id="222">4.13236e-12</wgt>
  <wgt id="223">3.89547e-12</wgt>
  <wgt id="224">4.3595e-12</wgt>
  <wgt id="225">4.08472e-12</wgt>
  <wgt id="226">4.20437e-12</wgt>
  <wgt id="227">4.09664e-12</wgt>
  <wgt id="228">4.15518e-12</wgt>
  <wgt id="229">4.07645e-12</wgt>
  <wgt id="230">4.1676e-12</wgt>
  <wgt id="231">4.28233e-12</wgt>
  <wgt id="232">4.01899e-12</wgt>
  <wgt id="233">4.11024e-12</wgt>
  <wgt id="234">4.18286e-12</wgt>
  <wgt id="235">3.95651e-12</wgt>
  <wgt id="236">4.28465e-12</wgt>
  <wgt id="237">4.03244e-12</wgt>
  <wgt id="238">4.17227e-12</wgt>
  <wgt id="239">4.09515e-12</wgt>
  <wgt id="240">4.2129e-12</wgt>
  <wgt id="241">4.08504e-12</wgt>
  <wgt id="242">4.19917e-12</wgt>
  <wgt id="243">4.21459e-12</wgt>
  <wgt id="244">4.13601e-12</wgt>
  <wgt id="245">4.13584e-12</wgt>
  <wgt id="246">4.16022e-12</wgt>
  <wgt id="247">4.13733e-12</wgt>
  <wgt id="248">4.18304e-12</wgt>
  <wgt id="249">4.16751e-12</wgt>
  <wgt id="250">4.15084e-12</wgt>
  <wgt id="251">4.12886e-12</wgt>
  <wgt id="252">4.11728e-12</wgt>
  <wgt id="253">4.10955e-12</wgt>
  <wgt id="254">3.98531e-12</wgt>
  <wgt id="255">3.98884e-12</wgt>
  <wgt id="256">3.98143e-12</wgt>
  <wgt id="257">3.9884e-12</wgt>
  <wgt id="258">3.98308e-12</wgt>
  <wgt id="259">4.01213e-12</wgt>
  <wgt id="260">3.95946e-12</wgt>
  <wgt id="261">3.99219e-12</wgt>
  <wgt id="262">3.97715e-12</wgt>
  <wgt id="263">3.98221e-12</wgt>
  <wgt id="264">3.98894e-12</wgt>
  <wgt id="265">3.98027e-12</wgt>
  <wgt id="266">3.99541e-12</wgt>
  <wgt id="267">3.98673e-12</wgt>
  <wgt id="268">3.98336e-12</wgt>
  <wgt id="269">3.99808e-12</wgt>
  <wgt id="270">3.97661e-12</wgt>
  <wgt id="271">3.97418e-12</wgt>
  <wgt id="272">3.99777e-12</wgt>
  <wgt id="273">3.97446e-12</wgt>
  <wgt id="274">3.99357e-12</wgt>
  <wgt id="275">3.96004e-12</wgt>
  <wgt id="276">4.01152e-12</wgt>
  <wgt id="277">3.96194e-12</wgt>
  <wgt id="278">4.00662e-12</wgt>
  <wgt id="279">3.90887e-12</wgt>
  <wgt id="280">4.08164e-12</wgt>
  <wgt id="281">3.96548e-12</wgt>
  <wgt id="282">3.99172e-12</wgt>
  <wgt id="283">3.85056e-12</wgt>
  <wgt id="284">4.15398e-12</wgt>
  <wgt id="285">3.76375e-12</wgt>
  <wgt id="286">4.17336e-12</wgt>
  <wgt id="287">3.99985e-12</wgt>
  <wgt id="288">3.9668e-12</wgt>
  <wgt id="289">4.01869e-12</wgt>
  <wgt id="290">3.91204e-12</wgt>
  <wgt id="291">3.96942e-12</wgt>
  <wgt id="292">3.98515e-12</wgt>
  <wgt id="293">3.9491e-12</wgt>
  <wgt id="294">4.02134e-12</wgt>
  <wgt id="295">3.89793e-12</wgt>
  <wgt id="296">4.09251e-12</wgt>
  <wgt id="297">3.97395e-12</wgt>
  <wgt id="298">4.00689e-12</wgt>
  <wgt id="299">3.97133e-12</wgt>
  <wgt id="300">4.02265e-12</wgt>
  <wgt id="301">3.89808e-12</wgt>
  <wgt id="302">4.18446e-12</wgt>
  <wgt id="303">3.93812e-12</wgt>
  <wgt id="304">4.01164e-12</wgt>
  <wgt id="305">3.94411e-12</wgt>
  <wgt id="306">3.9478e-12</wgt>
  <wgt id="307">3.94016e-12</wgt>
  <wgt id="308">3.94751e-12</wgt>
  <wgt id="309">3.94183e-12</wgt>
  <wgt id="310">3.97141e-12</wgt>
  <wgt id="311">3.91891e-12</wgt>
  <wgt id="312">3.95045e-12</wgt>
  <wgt id="313">3.93738e-12</wgt>
  <wgt id="314">3.94088e-12</wgt>
  <wgt id="315">3.94719e-12</wgt>
  <wgt id="316">3.93905e-12</wgt>
  <wgt id="317">3.95517e-12</wgt>
  <wgt id="318">3.9472e-12</wgt>
  <wgt id="319">3.93873e-12</wgt>
  <wgt id="320">3.95783e-12</wgt>
  <wgt id="321">3.93647e-12</wgt>
  <wgt id="322">3.93198e-12</wgt>
  <wgt id="323">3.95821e-12</wgt>
  <wgt id="324">3.93613e-12</wgt>
  <wgt id="325">3.95107e-12</wgt>
  <wgt id="326">3.92333e-12</wgt>
  <wgt id="327">3.9708e-12</wgt>
  <wgt id="328">3.92374e-12</wgt>
  <wgt id="329">3.95536e-12</wgt>
  <wgt id="330">4.05958e-12</wgt>
  <wgt id="331">3.83455e-12</wgt>
  <wgt id="332">3.92766e-12</wgt>
  <wgt id="333">3.94817e-12</wgt>
  <wgt id="334">3.842e-12</wgt>
  <wgt id="335">4.07257e-12</wgt>
  <wgt id="336">3.78759e-12</wgt>
  <wgt id="337">4.1389e-12</wgt>
  <wgt id="338">3.99437e-12</wgt>
  <wgt id="339">3.89791e-12</wgt>
  <wgt id="340">3.97405e-12</wgt>
  <wgt id="341">3.87081e-12</wgt>
  <wgt id="342">3.93278e-12</wgt>
  <wgt id="343">3.93565e-12</wgt>
  <wgt id="344">3.91259e-12</wgt>
  <wgt id="345">3.98074e-12</wgt>
  <wgt id="346">3.85513e-12</wgt>
  <wgt id="347">4.04619e-12</wgt>
  <wgt id="348">3.93323e-12</wgt>
  <wgt id="349">3.9637e-12</wgt>
  <wgt id="350">3.92685e-12</wgt>
  <wgt id="351">3.98801e-12</wgt>
  <wgt id="352">3.85579e-12</wgt>
  <wgt id="353">4.13741e-12</wgt>
  <wgt id="354">3.87748e-12</wgt>
  <wgt id="355">3.98353e-12</wgt>
  <wgt id="356">3.98531e-12</wgt>
  <wgt id="357">3.94564e-12</wgt>
  <wgt id="358">3.94411e-12</wgt>
  <wgt id="359">3.98285e-12</wgt>
  <wgt id="360">4.06054e-12</wgt>
  <wgt id="361">4.00738e-12</wgt>
  <wgt id="362">4.09081e-12</wgt>
  <wgt id="363">4.07995e-12</wgt>
  <wgt id="364">4.05872e-12</wgt>
  <wgt id="365">4.04258e-12</wgt>
  <wgt id="366">4.02633e-12</wgt>
  <wgt id="367">3.99563e-12</wgt>
  <wgt id="368">3.97587e-12</wgt>
  <wgt id="369">3.95453e-12</wgt>
  <wgt id="370">4.00738e-12</wgt>
  <wgt id="371">4.02408e-12</wgt>
  <wgt id="372">4.01465e-12</wgt>
  <wgt id="373">4.00151e-12</wgt>
  <wgt id="374">4.00722e-12</wgt>
  <wgt id="375">4.62431e-12</wgt>
  <wgt id="376">4.62469e-12</wgt>
  <wgt id="377">4.62384e-12</wgt>
  <wgt id="378">4.64215e-12</wgt>
  <wgt id="379">4.60666e-12</wgt>
  <wgt id="380">4.63762e-12</wgt>
  <wgt id="381">4.61902e-12</wgt>
  <wgt id="382">4.64628e-12</wgt>
  <wgt id="383">4.60265e-12</wgt>
  <wgt id="384">4.62734e-12</wgt>
  <wgt id="385">4.62146e-12</wgt>
  <wgt id="386">4.63959e-12</wgt>
  <wgt id="387">4.61778e-12</wgt>
  <wgt id="388">4.62029e-12</wgt>
  <wgt id="389">4.62937e-12</wgt>
  <wgt id="390">4.63494e-12</wgt>
  <wgt id="391">4.61306e-12</wgt>
  <wgt id="392">4.58105e-12</wgt>
  <wgt id="393">4.64881e-12</wgt>
  <wgt id="394">4.62741e-12</wgt>
  <wgt id="395">4.61988e-12</wgt>
  <wgt id="396">4.63324e-12</wgt>
  <wgt id="397">4.61802e-12</wgt>
  <wgt id="398">4.61561e-12</wgt>
  <wgt id="399">4.6327e-12</wgt>
  <wgt id="400">4.61672e-12</wgt>
  <wgt id="401">4.64141e-12</wgt>
  <wgt id="402">4.57925e-12</wgt>
  <wgt id="403">4.65386e-12</wgt>
  <wgt id="404">4.76523e-12</wgt>
  <wgt id="405">4.29054e-12</wgt>
  <wgt id="406">4.52305e-12</wgt>
  <wgt id="407">4.85006e-12</wgt>
  <wgt id="408">4.67737e-12</wgt>
  <wgt id="409">4.52689e-12</wgt>
  <wgt id="410">4.46058e-12</wgt>
  <wgt id="411">4.70356e-12</wgt>
  <wgt id="412">4.61302e-12</wgt>
  <wgt id="413">4.64099e-12</wgt>
  <wgt id="414">4.55921e-12</wgt>
  <wgt id="415">4.67499e-12</wgt>
  <wgt id="416">4.79202e-12</wgt>
  <wgt id="417">4.39499e-12</wgt>
  <wgt id="418">4.63425e-12</wgt>
  <wgt id="419">4.57095e-12</wgt>
  <wgt id="420">4.74828e-12</wgt>
  <wgt id="421">4.54145e-12</wgt>
  <wgt id="422">4.59185e-12</wgt>
  <wgt id="423">4.63941e-12</wgt>
  <wgt id="424">4.77383e-12</wgt>
  <wgt id="425">4.52262e-12</wgt>
  <wgt id="426">4.62431e-12</wgt>
  <wgt id="427">4.52307e-12</wgt>
  <wgt id="428">4.85376e-12</wgt>
  <wgt id="429">4.69232e-12</wgt>
  <wgt id="430">4.85481e-12</wgt>
  <wgt id="431">4.8215e-12</wgt>
  <wgt id="432">4.79165e-12</wgt>
  <wgt id="433">4.76235e-12</wgt>
  <wgt id="434">4.72454e-12</wgt>
  <wgt id="435">4.65201e-12</wgt>
  <wgt id="436">4.6155e-12</wgt>
  <wgt id="437">4.57976e-12</wgt>
  <wgt id="438">4.69232e-12</wgt>
  <wgt id="439">4.70655e-12</wgt>
  <wgt id="440">4.69761e-12</wgt>
  <wgt id="441">4.6887e-12</wgt>
  <wgt id="442">4.6859e-12</wgt>
  <wgt id="443">4.18423e-12</wgt>
  <wgt id="444">4.23161e-12</wgt>
  <wgt id="445">4.23241e-12</wgt>
  <wgt id="446">4.15347e-12</wgt>
  <wgt id="447">4.18423e-12</wgt>
  <wgt id="448">4.08074e-12</wgt>
  <wgt id="449">4.27852e-12</wgt>
  <wgt id="450">4.24337e-12</wgt>
  <wgt id="451">4.17177e-12</wgt>
  <wgt id="452">4.27944e-12</wgt>
  <wgt id="453">4.24363e-12</wgt>
  <wgt id="454">3.95526e-12</wgt>
  <wgt id="455">4.22275e-12</wgt>
  <wgt id="456">4.2687e-12</wgt>
  <wgt id="457">4.19898e-12</wgt>
  <wgt id="458">4.26255e-12</wgt>
  <wgt id="459">4.22345e-12</wgt>
  <wgt id="460">4.27682e-12</wgt>
  <wgt id="461">4.07688e-12</wgt>
  <wgt id="462">4.15169e-12</wgt>
  <wgt id="463">4.11323e-12</wgt>
  <wgt id="464">4.16252e-12</wgt>
  <wgt id="465">4.23133e-12</wgt>
  <wgt id="466">4.07215e-12</wgt>
  <wgt id="467">4.15084e-12</wgt>
  <wgt id="468">4.18195e-12</wgt>
  <wgt id="469">4.17147e-12</wgt>
  <wgt id="470">4.11336e-12</wgt>
  <wgt id="471">4.12677e-12</wgt>
  <wgt id="472">4.21662e-12</wgt>
  <wgt id="473">4.03682e-12</wgt>
  <wgt id="474">3.0282e-12</wgt>
  <wgt id="475">3.02826e-12</wgt>
  <wgt id="476">3.02164e-12</wgt>
  <wgt id="477">3.10591e-12</wgt>
  <wgt id="478">3.07979e-12</wgt>
  <wgt id="479">2.85801e-12</wgt>
  <wgt id="480">3.20086e-12</wgt>
  <wgt id="481">3.05134e-12</wgt>
  <wgt id="482">3.04461e-12</wgt>
  <wgt id="483">3.07518e-12</wgt>
  <wgt id="484">3.16866e-12</wgt>
  <wgt id="485">2.74826e-12</wgt>
  <wgt id="486">3.18433e-12</wgt>
  <wgt id="487">2.92646e-12</wgt>
  <wgt id="488">3.04713e-12</wgt>
  <wgt id="489">2.68543e-12</wgt>
  <wgt id="490">2.99146e-12</wgt>
  <wgt id="491">2.9811e-12</wgt>
  <wgt id="492">2.97657e-12</wgt>
  <wgt id="493">2.77149e-12</wgt>
  <wgt id="494">2.77912e-12</wgt>
  <wgt id="495">3.04758e-12</wgt>
  <wgt id="496">2.85253e-12</wgt>
  <wgt id="497">2.81433e-12</wgt>
  <wgt id="498">3.11563e-12</wgt>
  <wgt id="499">3.06596e-12</wgt>
  <wgt id="500">3.01354e-12</wgt>
  <wgt id="501">3.16046e-12</wgt>
  <wgt id="502">3.18397e-12</wgt>
  <wgt id="503">2.96225e-12</wgt>
  <wgt id="504">3.13608e-12</wgt>
  <wgt id="505">3.17192e-12</wgt>
  <wgt id="506">2.77639e-12</wgt>
  <wgt id="507">2.9477e-12</wgt>
  <wgt id="508">3.20243e-12</wgt>
  <wgt id="509">2.92771e-12</wgt>
  <wgt id="510">3.0421e-12</wgt>
  <wgt id="511">2.8579e-12</wgt>
  <wgt id="512">3.26444e-12</wgt>
  <wgt id="513">3.17325e-12</wgt>
  <wgt id="514">3.22987e-12</wgt>
  <wgt id="515">3.14039e-12</wgt>
  <wgt id="516">3.38215e-12</wgt>
  <wgt id="517">3.10583e-12</wgt>
  <wgt id="518">3.15839e-12</wgt>
  <wgt id="519">2.90206e-12</wgt>
  <wgt id="520">3.06071e-12</wgt>
  <wgt id="521">2.93468e-12</wgt>
  <wgt id="522">3.14753e-12</wgt>
  <wgt id="523">2.86758e-12</wgt>
  <wgt id="524">3.11971e-12</wgt>
  <wgt id="525">2.93879e-12</wgt>
  <wgt id="526">3.2127e-12</wgt>
  <wgt id="527">2.98616e-12</wgt>
  <wgt id="528">3.0068e-12</wgt>
  <wgt id="529">2.85958e-12</wgt>
  <wgt id="530">3.2013e-12</wgt>
  <wgt id="531">2.88625e-12</wgt>
  <wgt id="532">3.30152e-12</wgt>
  <wgt id="533">3.03702e-12</wgt>
  <wgt id="534">2.88379e-12</wgt>
  <wgt id="535">3.09021e-12</wgt>
  <wgt id="536">3.15328e-12</wgt>
  <wgt id="537">2.84777e-12</wgt>
  <wgt id="538">2.99999e-12</wgt>
  <wgt id="539">2.95133e-12</wgt>
  <wgt id="540">3.20733e-12</wgt>
  <wgt id="541">3.01621e-12</wgt>
  <wgt id="542">2.94593e-12</wgt>
  <wgt id="543">2.89954e-12</wgt>
  <wgt id="544">3.04824e-12</wgt>
  <wgt id="545">2.84227e-12</wgt>
  <wgt id="546">2.76616e-12</wgt>
  <wgt id="547">2.90689e-12</wgt>
  <wgt id="548">2.93531e-12</wgt>
  <wgt id="549">2.96773e-12</wgt>
  <wgt id="550">2.9144e-12</wgt>
  <wgt id="551">3.02959e-12</wgt>
  <wgt id="552">2.78013e-12</wgt>
  <wgt id="553">2.80765e-12</wgt>
  <wgt id="554">3.17604e-12</wgt>
  <wgt id="555">3.10077e-12</wgt>
  <wgt id="556">2.99146e-12</wgt>
  <wgt id="557">3.08369e-12</wgt>
  <wgt id="558">3.00285e-12</wgt>
  <wgt id="559">3.07167e-12</wgt>
  <wgt id="560">3.35876e-12</wgt>
  <wgt id="561">3.13399e-12</wgt>
  <wgt id="562">3.14753e-12</wgt>
  <wgt id="563">3.35732e-12</wgt>
  <wgt id="564">3.22718e-12</wgt>
  <wgt id="565">3.17968e-12</wgt>
  <wgt id="566">2.89592e-12</wgt>
  <wgt id="567">3.0357e-12</wgt>
  <wgt id="568">2.89425e-12</wgt>
  <wgt id="569">3.06179e-12</wgt>
  <wgt id="570">3.07228e-12</wgt>
  <wgt id="571">3.36708e-12</wgt>
  <wgt id="572">2.90675e-12</wgt>
  <wgt id="573">2.94118e-12</wgt>
  <wgt id="574">2.96453e-12</wgt>
  <wgt id="575">3.34975e-12</wgt>
  <wgt id="576">3.69758e-12</wgt>
  <wgt id="577">3.48626e-12</wgt>
  <wgt id="578">3.368e-12</wgt>
  <wgt id="579">3.48516e-12</wgt>
  <wgt id="580">3.57788e-12</wgt>
  <wgt id="581">3.71197e-12</wgt>
  <wgt id="582">3.61303e-12</wgt>
  <wgt id="583">3.43484e-12</wgt>
  <wgt id="584">3.31202e-12</wgt>
  <wgt id="585">3.07135e-12</wgt>
  <wgt id="586">3.13033e-12</wgt>
  <wgt id="587">3.41802e-12</wgt>
  <wgt id="588">3.74302e-12</wgt>
  <wgt id="589">3.71353e-12</wgt>
  <wgt id="590">3.3297e-12</wgt>
  <wgt id="591">3.44523e-12</wgt>
  <wgt id="592">3.14263e-12</wgt>
  <wgt id="593">3.23186e-12</wgt>
  <wgt id="594">3.24026e-12</wgt>
  <wgt id="595">3.56372e-12</wgt>
  <wgt id="596">3.99934e-12</wgt>
  <wgt id="597">3.41244e-12</wgt>
  <wgt id="598">3.44287e-12</wgt>
  <wgt id="599">3.59789e-12</wgt>
  <wgt id="600">3.64945e-12</wgt>
  <wgt id="601">3.19954e-12</wgt>
  <wgt id="602">3.22375e-12</wgt>
  <wgt id="603">3.10473e-12</wgt>
  <wgt id="604">3.45373e-12</wgt>
  <wgt id="605">3.35931e-12</wgt>
  <wgt id="606">3.40549e-12</wgt>
  <wgt id="607">3.54216e-12</wgt>
  <wgt id="608">3.48368e-12</wgt>
  <wgt id="609">3.31274e-12</wgt>
  <wgt id="610">3.18094e-12</wgt>
  <wgt id="611">3.16634e-12</wgt>
  <wgt id="612">3.43893e-12</wgt>
  <wgt id="613">3.16741e-12</wgt>
  <wgt id="614">3.31803e-12</wgt>
  <wgt id="615">3.43671e-12</wgt>
  <wgt id="616">3.1533e-12</wgt>
  <wgt id="617">3.49236e-12</wgt>
  <wgt id="618">3.69663e-12</wgt>
  <wgt id="619">3.28065e-12</wgt>
  <wgt id="620">3.4485e-12</wgt>
  <wgt id="621">3.29969e-12</wgt>
  <wgt id="622">3.41802e-12</wgt>
  <wgt id="623">3.34182e-12</wgt>
  <wgt id="624">3.36178e-12</wgt>
  <wgt id="625">3.17073e-12</wgt>
  <wgt id="626">2.90446e-12</wgt>
  <wgt id="627">2.98766e-12</wgt>
  <wgt id="628">3.3179e-12</wgt>
  <wgt id="629">3.49184e-12</wgt>
  <wgt id="630">3.25971e-12</wgt>
  <wgt id="631">3.45985e-12</wgt>
  <wgt id="632">3.03615e-12</wgt>
  <wgt id="633">3.32597e-12</wgt>
  <wgt id="634">3.18326e-12</wgt>
  <wgt id="635">3.07694e-12</wgt>
  <wgt id="636">3.37617e-12</wgt>
  <wgt id="637">3.33908e-12</wgt>
  <wgt id="638">3.17526e-12</wgt>
  <wgt id="639">3.17474e-12</wgt>
  <wgt id="640">3.24154e-12</wgt>
  <wgt id="641">3.53324e-12</wgt>
  <wgt id="642">2.98529e-12</wgt>
  <wgt id="643">3.24425e-12</wgt>
  <wgt id="644">3.00123e-12</wgt>
  <wgt id="645">3.34252e-12</wgt>
  <wgt id="646">3.01352e-12</wgt>
  <wgt id="647">3.41866e-12</wgt>
  <wgt id="648">3.54076e-12</wgt>
  <wgt id="649">3.36993e-12</wgt>
  <wgt id="650">3.20021e-12</wgt>
  <wgt id="651">3.60084e-12</wgt>
  <wgt id="652">3.18661e-12</wgt>
  <wgt id="653">3.20362e-12</wgt>
  <wgt id="654">3.42112e-12</wgt>
  <wgt id="655">3.17385e-12</wgt>
  <wgt id="656">3.3647e-12</wgt>
  <wgt id="657">3.69462e-12</wgt>
  <wgt id="658">3.3487e-12</wgt>
  <wgt id="659">3.20345e-12</wgt>
  <wgt id="660">3.19891e-12</wgt>
  <wgt id="661">3.24646e-12</wgt>
  <wgt id="662">3.2907e-12</wgt>
  <wgt id="663">3.4239e-12</wgt>
  <wgt id="664">3.41733e-12</wgt>
  <wgt id="665">3.29377e-12</wgt>
  <wgt id="666">3.25901e-12</wgt>
  <wgt id="667">3.54929e-12</wgt>
  <wgt id="668">3.2892e-12</wgt>
  <wgt id="669">3.31899e-12</wgt>
  <wgt id="670">3.53369e-12</wgt>
  <wgt id="671">3.40013e-12</wgt>
  <wgt id="672">3.294e-12</wgt>
  <wgt id="673">3.60696e-12</wgt>
  <wgt id="674">3.23275e-12</wgt>
  <wgt id="675">3.19372e-12</wgt>
  <wgt id="676">4.37413e-12</wgt>
  <wgt id="677">4.41285e-12</wgt>
  <wgt id="678">4.85605e-12</wgt>
  <wgt id="679">4.5866e-12</wgt>
  <wgt id="680">4.42035e-12</wgt>
  <wgt id="681">4.23912e-12</wgt>
  <wgt id="682">4.61156e-12</wgt>
  <wgt id="683">3.94949e-12</wgt>
  <wgt id="684">4.64657e-12</wgt>
  <wgt id="685">4.38616e-12</wgt>
  <wgt id="686">4.53481e-12</wgt>
  <wgt id="687">4.50649e-12</wgt>
  <wgt id="688">4.22654e-12</wgt>
  <wgt id="689">4.60019e-12</wgt>
  <wgt id="690">4.50076e-12</wgt>
  <wgt id="691">4.47246e-12</wgt>
  <wgt id="692">4.24637e-12</wgt>
  <wgt id="693">5.98549e-12</wgt>
  <wgt id="694">4.87041e-12</wgt>
  <wgt id="695">4.03976e-12</wgt>
  <wgt id="696">4.14741e-12</wgt>
  <wgt id="697">3.86852e-12</wgt>
  <wgt id="698">3.5187e-12</wgt>
  <wgt id="699">3.64598e-12</wgt>
  <wgt id="700">3.85011e-12</wgt>
  <wgt id="701">4.3704e-12</wgt>
  <wgt id="702">4.15319e-12</wgt>
  <wgt id="703">5.57213e-12</wgt>
  <wgt id="704">4.96773e-12</wgt>
  <wgt id="705">4.95461e-12</wgt>
  <wgt id="706">4.0304e-12</wgt>
  <wgt id="707">4.06022e-12</wgt>
  <wgt id="708">4.12881e-12</wgt>
  <wgt id="709">4.21135e-12</wgt>
  <wgt id="710">3.53105e-12</wgt>
  <wgt id="711">4.75276e-12</wgt>
  <wgt id="712">4.07073e-12</wgt>
  <wgt id="713">4.72113e-12</wgt>
  <wgt id="714">3.86233e-12</wgt>
  <wgt id="715">4.13116e-12</wgt>
  <wgt id="716">4.19007e-12</wgt>
  <wgt id="717">3.7165e-12</wgt>
  <wgt id="718">4.48098e-12</wgt>
  <wgt id="719">3.98726e-12</wgt>
  <wgt id="720">4.53596e-12</wgt>
  <wgt id="721">3.69671e-12</wgt>
  <wgt id="722">3.32158e-12</wgt>
  <wgt id="723">5.00623e-12</wgt>
  <wgt id="724">4.79245e-12</wgt>
  <wgt id="725">4.59358e-12</wgt>
  <wgt id="726">4.34462e-12</wgt>
  <wgt id="727">4.41397e-12</wgt>
  <wgt id="728">4.32819e-12</wgt>
  <wgt id="729">3.8987e-12</wgt>
  <wgt id="730">4.90709e-12</wgt>
  <wgt id="731">4.31345e-12</wgt>
  <wgt id="732">5.17079e-12</wgt>
  <wgt id="733">4.01568e-12</wgt>
  <wgt id="734">4.54766e-12</wgt>
  <wgt id="735">4.34207e-12</wgt>
  <wgt id="736">4.00398e-12</wgt>
  <wgt id="737">3.94494e-12</wgt>
  <wgt id="738">4.142e-12</wgt>
  <wgt id="739">4.63765e-12</wgt>
  <wgt id="740">5.29261e-12</wgt>
  <wgt id="741">4.6838e-12</wgt>
  <wgt id="742">4.11928e-12</wgt>
  <wgt id="743">3.94815e-12</wgt>
  <wgt id="744">4.27787e-12</wgt>
  <wgt id="745">4.86054e-12</wgt>
  <wgt id="746">5.00335e-12</wgt>
  <wgt id="747">3.56817e-12</wgt>
  <wgt id="748">4.18144e-12</wgt>
  <wgt id="749">4.57553e-12</wgt>
  <wgt id="750">4.75344e-12</wgt>
  <wgt id="751">4.41526e-12</wgt>
  <wgt id="752">3.90016e-12</wgt>
  <wgt id="753">3.86098e-12</wgt>
  <wgt id="754">4.57817e-12</wgt>
  <wgt id="755">4.24738e-12</wgt>
  <wgt id="756">4.21382e-12</wgt>
  <wgt id="757">3.70681e-12</wgt>
  <wgt id="758">4.24315e-12</wgt>
  <wgt id="759">4.79969e-12</wgt>
  <wgt id="760">4.14599e-12</wgt>
  <wgt id="761">4.93144e-12</wgt>
  <wgt id="762">4.95631e-12</wgt>
  <wgt id="763">4.54271e-12</wgt>
  <wgt id="764">4.73045e-12</wgt>
  <wgt id="765">4.43522e-12</wgt>
  <wgt id="766">4.45798e-12</wgt>
  <wgt id="767">4.47704e-12</wgt>
  <wgt id="768">3.93345e-12</wgt>
  <wgt id="769">4.60182e-12</wgt>
  <wgt id="770">4.02592e-12</wgt>
  <wgt id="771">5.48353e-12</wgt>
  <wgt id="772">4.25229e-12</wgt>
  <wgt id="773">4.41822e-12</wgt>
  <wgt id="774">3.39565e-12</wgt>
  <wgt id="775">4.60031e-12</wgt>
  <wgt id="776">5.17701e-12</wgt>
  <wgt id="777">3.7808e-12</wgt>
  <wgt id="778">2.75572e-12</wgt>
  <wgt id="779">1.54184e-12</wgt>
  <wgt id="780">7.77438e-13</wgt>
  <wgt id="781">3.10428e-12</wgt>
  <wgt id="782">3.4375e-12</wgt>
  <wgt id="783">1.28311e-12</wgt>
  <wgt id="784">1.77413e-12</wgt>
  <wgt id="785">4.29288e-12</wgt>
  <wgt id="786">1.24956e-12</wgt>
  <wgt id="787">3.74219e-12</wgt>
  <wgt id="788">1.31128e-13</wgt>
  <wgt id="789">1.73804e-12</wgt>
  <wgt id="790">1.32571e-12</wgt>
  <wgt id="791">3.30187e-12</wgt>
  <wgt id="792">3.80011e-12</wgt>
  <wgt id="793">2.50705e-12</wgt>
  <wgt id="794">1.16185e-12</wgt>
  <wgt id="795">4.03191e-12</wgt>
  <wgt id="796">4.07659e-12</wgt>
  <wgt id="797">3.66242e-12</wgt>
  <wgt id="798">1.98147e-12</wgt>
  <wgt id="799">3.6898e-12</wgt>
  <wgt id="800">2.00463e-12</wgt>
  <wgt id="801">2.80336e-12</wgt>
  <wgt id="802">1.1118e-12</wgt>
  <wgt id="803">4.59781e-12</wgt>
  <wgt id="804">4.0437e-12</wgt>
  <wgt id="805">3.91722e-12</wgt>
  <wgt id="806">3.11188e-12</wgt>
  <wgt id="807">2.74572e-12</wgt>
  <wgt id="808">2.68483e-12</wgt>
  <wgt id="809">2.42547e-12</wgt>
  <wgt id="810">3.64354e-12</wgt>
  <wgt id="811">2.92276e-12</wgt>
  <wgt id="812">1.36505e-12</wgt>
  <wgt id="813">1.49441e-12</wgt>
  <wgt id="814">1.76715e-12</wgt>
  <wgt id="815">1.3441e-12</wgt>
  <wgt id="816">1.61948e-12</wgt>
  <wgt id="817">2.83558e-12</wgt>
  <wgt id="818">3.95764e-12</wgt>
  <wgt id="819">1.50073e-12</wgt>
  <wgt id="820">2.54567e-12</wgt>
  <wgt id="821">3.48543e-12</wgt>
  <wgt id="822">2.18029e-12</wgt>
  <wgt id="823">3.7249e-12</wgt>
  <wgt id="824">4.30431e-12</wgt>
  <wgt id="825">9.77387e-13</wgt>
  <wgt id="826">3.71502e-12</wgt>
  <wgt id="827">9.43282e-13</wgt>
  <wgt id="828">3.65446e-12</wgt>
  <wgt id="829">2.87266e-12</wgt>
  <wgt id="830">9.42062e-13</wgt>
  <wgt id="831">3.42092e-12</wgt>
  <wgt id="832">5.27732e-12</wgt>
  <wgt id="833">2.09336e-12</wgt>
  <wgt id="834">5.20056e-12</wgt>
  <wgt id="835">1.7422e-12</wgt>
  <wgt id="836">2.1052e-12</wgt>
  <wgt id="837">3.3834e-12</wgt>
  <wgt id="838">2.05709e-12</wgt>
  <wgt id="839">3.43879e-12</wgt>
  <wgt id="840">2.29313e-12</wgt>
  <wgt id="841">4.11752e-12</wgt>
  <wgt id="842">2.85329e-12</wgt>
  <wgt id="843">3.02297e-12</wgt>
  <wgt id="844">3.20456e-12</wgt>
  <wgt id="845">5.32287e-12</wgt>
  <wgt id="846">2.64245e-12</wgt>
  <wgt id="847">3.04017e-12</wgt>
  <wgt id="848">1.40192e-12</wgt>
  <wgt id="849">3.14713e-12</wgt>
  <wgt id="850">4.61663e-12</wgt>
  <wgt id="851">3.42694e-12</wgt>
  <wgt id="852">1.06202e-12</wgt>
  <wgt id="853">3.61319e-12</wgt>
  <wgt id="854">4.16188e-12</wgt>
  <wgt id="855">3.57237e-12</wgt>
  <wgt id="856">9.21509e-13</wgt>
  <wgt id="857">2.28207e-12</wgt>
  <wgt id="858">2.65793e-12</wgt>
  <wgt id="859">2.67241e-12</wgt>
  <wgt id="860">3.74397e-12</wgt>
  <wgt id="861">2.17137e-12</wgt>
  <wgt id="862">2.89246e-12</wgt>
  <wgt id="863">3.34562e-12</wgt>
  <wgt id="864">2.84304e-12</wgt>
  <wgt id="865">4.83454e-12</wgt>
  <wgt id="866">5.31413e-12</wgt>
  <wgt id="867">2.81209e-12</wgt>
  <wgt id="868">2.99754e-12</wgt>
  <wgt id="869">1.29952e-12</wgt>
  <wgt id="870">1.73688e-12</wgt>
  <wgt id="871">1.83382e-12</wgt>
  <wgt id="872">4.34731e-12</wgt>
  <wgt id="873">2.09177e-12</wgt>
  <wgt id="874">3.18532e-12</wgt>
  <wgt id="875">1.97834e-12</wgt>
  <wgt id="876">4.1041e-12</wgt>
  <wgt id="877">3.25971e-12</wgt>
  <wgt id="878">2.18582e-12</wgt>
  <wgt id="879">4.37413e-12</wgt>
  <wgt id="880">4.41285e-12</wgt>
  <wgt id="881">4.85605e-12</wgt>
  <wgt id="882">4.5866e-12</wgt>
  <wgt id="883">4.42035e-12</wgt>
  <wgt id="884">4.23912e-12</wgt>
  <wgt id="885">4.61156e-12</wgt>
  <wgt id="886">3.94949e-12</wgt>
  <wgt id="887">4.64657e-12</wgt>
  <wgt id="888">4.38616e-12</wgt>
  <wgt id="889">4.53481e-12</wgt>
  <wgt id="890">4.50649e-12</wgt>
  <wgt id="891">4.22654e-12</wgt>
  <wgt id="892">4.60019e-12</wgt>
  <wgt id="893">4.50076e-12</wgt>
  <wgt id="894">4.47246e-12</wgt>
  <wgt id="895">4.24637e-12</wgt>
  <wgt id="896">5.98549e-12</wgt>
  <wgt id="897">4.87041e-12</wgt>
  <wgt id="898">4.03976e-12</wgt>
  <wgt id="899">4.14741e-12</wgt>
  <wgt id="900">3.86852e-12</wgt>
  <wgt id="901">3.5187e-12</wgt>
  <wgt id="902">3.64598e-12</wgt>
  <wgt id="903">3.85011e-12</wgt>
  <wgt id="904">4.3704e-12</wgt>
  <wgt id="905">4.15319e-12</wgt>
  <wgt id="906">5.57213e-12</wgt>
  <wgt id="907">4.96773e-12</wgt>
  <wgt id="908">4.95461e-12</wgt>
  <wgt id="909">4.0304e-12</wgt>
  <wgt id="910">4.06022e-12</wgt>
  <wgt id="911">4.12881e-12</wgt>
  <wgt id="912">4.21135e-12</wgt>
  <wgt id="913">3.53105e-12</wgt>
  <wgt id="914">4.75276e-12</wgt>
  <wgt id="915">4.07073e-12</wgt>
  <wgt id="916">4.72113e-12</wgt>
  <wgt id="917">3.86233e-12</wgt>
  <wgt id="918">4.13116e-12</wgt>
  <wgt id="919">4.19007e-12</wgt>
  <wgt id="920">3.7165e-12</wgt>
  <wgt id="921">4.48098e-12</wgt>
  <wgt id="922">3.98726e-12</wgt>
  <wgt id="923">4.53596e-12</wgt>
  <wgt id="924">3.69671e-12</wgt>
  <wgt id="925">3.32158e-12</wgt>
  <wgt id="926">5.00623e-12</wgt>
  <wgt id="927">4.79245e-12</wgt>
  <wgt id="928">4.59358e-12</wgt>
  <wgt id="929">4.34462e-12</wgt>
  <wgt id="930">4.41397e-12</wgt>
  <wgt id="931">4.32819e-12</wgt>
  <wgt id="932">3.8987e-12</wgt>
  <wgt id="933">4.90709e-12</wgt>
  <wgt id="934">4.31345e-12</wgt>
  <wgt id="935">5.17079e-12</wgt>
  <wgt id="936">4.01568e-12</wgt>
  <wgt id="937">4.54766e-12</wgt>
  <wgt id="938">4.34207e-12</wgt>
  <wgt id="939">4.00398e-12</wgt>
  <wgt id="940">3.94494e-12</wgt>
  <wgt id="941">4.142e-12</wgt>
  <wgt id="942">4.63765e-12</wgt>
  <wgt id="943">5.29261e-12</wgt>
  <wgt id="944">4.6838e-12</wgt>
  <wgt id="945">4.11928e-12</wgt>
  <wgt id="946">3.94815e-12</wgt>
  <wgt id="947">4.27787e-12</wgt>
  <wgt id="948">4.86054e-12</wgt>
  <wgt id="949">5.00335e-12</wgt>
  <wgt id="950">3.56817e-12</wgt>
  <wgt id="951">4.18144e-12</wgt>
  <wgt id="952">4.57553e-12</wgt>
  <wgt id="953">4.75344e-12</wgt>
  <wgt id="954">4.41526e-12</wgt>
  <wgt id="955">3.90016e-12</wgt>
  <wgt id="956">3.86098e-12</wgt>
  <wgt id="957">4.57817e-12</wgt>
  <wgt id="958">4.24738e-12</wgt>
  <wgt id="959">4.21382e-12</wgt>
  <wgt id="960">3.70681e-12</wgt>
  <wgt id="961">4.24315e-12</wgt>
  <wgt id="962">4.79969e-12</wgt>
  <wgt id="963">4.14599e-12</wgt>
  <wgt id="964">4.93144e-12</wgt>
  <wgt id="965">4.95631e-12</wgt>
  <wgt id="966">4.54271e-12</wgt>
  <wgt id="967">4.73045e-12</wgt>
  <wgt id="968">4.43522e-12</wgt>
  <wgt id="969">4.45798e-12</wgt>
  <wgt id="970">4.47704e-12</wgt>
  <wgt id="971">3.93345e-12</wgt>
  <wgt id="972">4.60182e-12</wgt>
  <wgt id="973">4.02592e-12</wgt>
  <wgt id="974">5.48353e-12</wgt>
  <wgt id="975">4.25229e-12</wgt>
  <wgt id="976">4.41822e-12</wgt>
  <wgt id="977">3.39565e-12</wgt>
  <wgt id="978">4.60031e-12</wgt>
  <wgt id="979">5.17701e-12</wgt>
  <wgt id="980">4.34017e-12</wgt>
  <wgt id="981">4.49529e-12</wgt>
  <wgt id="982">4.24479e-12</wgt>
</rwgt>
</event>
<event>
 5   1  0.3028200E-11  0.2434999E+04  0.7818608E-02  0.7665727E-01
       21   -1    0    0  502  501  0.00000000000E+00  0.00000000000E+00  0.60795661061E+03  0.60795661061E+03  0.00000000000E+00 0.  1.
       21   -1    0    0  501  502 -0.00000000000E+00 -0.00000000000E+00 -0.24381766438E+04  0.24381766438E+04  0.00000000000E+00 0. -1.
       39    2    1    2    0    0  0.00000000000E+00  0.00000000000E+00 -0.18302200331E+04  0.30461332544E+04  0.24349994730E+04 0.  0.
       25    1    3    3    0    0 -0.25207684914E+03 -0.11440034440E+04 -0.53076416335E+03  0.12921386206E+04  0.12500000000E+03 0.  0.
       25    1    3    3    0    0  0.25207684914E+03  0.11440034440E+04 -0.12994558698E+04  0.17539946338E+04  0.12500000000E+03 0.  0.
<mgrwt>
<rscale>  0 0.24349995E+04</rscale>
<asrwt>0</asrwt>
<pdfrwt beam="1">  1       21 0.93531787E-01 0.24349995E+04</pdfrwt>
<pdfrwt beam="2">  1       21 0.37510410E+00 0.24349995E+04</pdfrwt>
<totfact> 0.38351087E+00</totfact>
</mgrwt>
<rwgt>
  <wgt id="1">3.0282e-12</wgt>
  <wgt id="2">2.59164e-12</wgt>
  <wgt id="3">3.58167e-12</wgt>
  <wgt id="4">3.0282e-12</wgt>
  <wgt id="5">2.59164e-12</wgt>
  <wgt id="6">3.58167e-12</wgt>
  <wgt id="7">3.0282e-12</wgt>
  <wgt id="8">2.59164e-12</wgt>
  <wgt id="9">3.58167e-12</wgt>
  <wgt id="10">3.23218e-12</wgt>
  <wgt id="11">3.23342e-12</wgt>
  <wgt id="12">3.22165e-12</wgt>
  <wgt id="13">3.22821e-12</wgt>
  <wgt id="14">3.23755e-12</wgt>
  <wgt id="15">3.23652e-12</wgt>
  <wgt id="16">3.21785e-12</wgt>
  <wgt id="17">3.25763e-12</wgt>
  <wgt id="18">3.23198e-12</wgt>
  <wgt id="19">3.24976e-12</wgt>
  <wgt id="20">3.23549e-12</wgt>
  <wgt id="21">3.20167e-12</wgt>
  <wgt id="22">3.20397e-12</wgt>
  <wgt id="23">3.17314e-12</wgt>
  <wgt id="24">3.20238e-12</wgt>
  <wgt id="25">3.22101e-12</wgt>
  <wgt id="26">3.23926e-12</wgt>
  <wgt id="27">3.2239e-12</wgt>
  <wgt id="28">3.20946e-12</wgt>
  <wgt id="29">3.23243e-12</wgt>
  <wgt id="30">3.19758e-12</wgt>
  <wgt id="31">3.2466e-12</wgt>
  <wgt id="32">3.19484e-12</wgt>
  <wgt id="33">3.23431e-12</wgt>
  <wgt id="34">3.20422e-12</wgt>
  <wgt id="35">3.19561e-12</wgt>
  <wgt id="36">3.24897e-12</wgt>
  <wgt id="37">3.22109e-12</wgt>
  <wgt id="38">3.21543e-12</wgt>
  <wgt id="39">3.3045e-12</wgt>
  <wgt id="40">3.24082e-12</wgt>
  <wgt id="41">3.22895e-12</wgt>
  <wgt id="42">3.24155e-12</wgt>
  <wgt id="43">3.23902e-12</wgt>
  <wgt id="44">3.25656e-12</wgt>
  <wgt id="45">3.23644e-12</wgt>
  <wgt id="46">3.20802e-12</wgt>
  <wgt id="47">3.28656e-12</wgt>
  <wgt id="48">3.2679e-12</wgt>
  <wgt id="49">3.21612e-12</wgt>
  <wgt id="50">3.18941e-12</wgt>
  <wgt id="51">3.2001e-12</wgt>
  <wgt id="52">3.23626e-12</wgt>
  <wgt id="53">3.30293e-12</wgt>
  <wgt id="54">3.25971e-12</wgt>
  <wgt id="55">3.22345e-12</wgt>
  <wgt id="56">3.18308e-12</wgt>
  <wgt id="57">3.18894e-12</wgt>
  <wgt id="58">3.2323e-12</wgt>
  <wgt id="59">3.24715e-12</wgt>
  <wgt id="60">3.18114e-12</wgt>
  <wgt id="61">3.22685e-12</wgt>
  <wgt id="62">3.24288e-12</wgt>
  <wgt id="63">3.22786e-12</wgt>
  <wgt id="64">3.22662e-12</wgt>
  <wgt id="65">3.20508e-12</wgt>
  <wgt id="66">3.25016e-12</wgt>
  <wgt id="67">3.25412e-12</wgt>
  <wgt id="68">3.23029e-12</wgt>
  <wgt id="69">3.22425e-12</wgt>
  <wgt id="70">3.20596e-12</wgt>
  <wgt id="71">3.24592e-12</wgt>
  <wgt id="72">3.23134e-12</wgt>
  <wgt id="73">3.23075e-12</wgt>
  <wgt id="74">3.25539e-12</wgt>
  <wgt id="75">3.20765e-12</wgt>
  <wgt id="76">3.25876e-12</wgt>
  <wgt id="77">3.22297e-12</wgt>
  <wgt id="78">3.22917e-12</wgt>
  <wgt id="79">3.23985e-12</wgt>
  <wgt id="80">3.20208e-12</wgt>
  <wgt id="81">3.22697e-12</wgt>
  <wgt id="82">3.23548e-12</wgt>
  <wgt id="83">3.20269e-12</wgt>
  <wgt id="84">3.21059e-12</wgt>
  <wgt id="85">3.20854e-12</wgt>
  <wgt id="86">3.26088e-12</wgt>
  <wgt id="87">3.18416e-12</wgt>
  <wgt id="88">3.24742e-12</wgt>
  <wgt id="89">3.24408e-12</wgt>
  <wgt id="90">3.25021e-12</wgt>
  <wgt id="91">3.23644e-12</wgt>
  <wgt id="92">3.24767e-12</wgt>
  <wgt id="93">3.23611e-12</wgt>
  <wgt id="94">3.21591e-12</wgt>
  <wgt id="95">3.24701e-12</wgt>
  <wgt id="96">3.24807e-12</wgt>
  <wgt id="97">3.20942e-12</wgt>
  <wgt id="98">3.23323e-12</wgt>
  <wgt id="99">3.22967e-12</wgt>
  <wgt id="100">3.23878e-12</wgt>
  <wgt id="101">3.22121e-12</wgt>
  <wgt id="102">3.22232e-12</wgt>
  <wgt id="103">3.24883e-12</wgt>
  <wgt id="104">3.22716e-12</wgt>
  <wgt id="105">3.24954e-12</wgt>
  <wgt id="106">3.21716e-12</wgt>
  <wgt id="107">3.26161e-12</wgt>
  <wgt id="108">3.22334e-12</wgt>
  <wgt id="109">3.22932e-12</wgt>
  <wgt id="110">3.23373e-12</wgt>
  <wgt id="111">3.2079e-12</wgt>
  <wgt id="112">3.29073e-12</wgt>
  <wgt id="113">4.90099e-12</wgt>
  <wgt id="114">4.2248e-12</wgt>
  <wgt id="115">4.14274e-12</wgt>
  <wgt id="116">5.78499e-12</wgt>
  <wgt id="117">3.56897e-12</wgt>
  <wgt id="118">3.58346e-12</wgt>
  <wgt id="119">3.56073e-12</wgt>
  <wgt id="120">3.56882e-12</wgt>
  <wgt id="121">3.56896e-12</wgt>
  <wgt id="122">3.56371e-12</wgt>
  <wgt id="123">3.57618e-12</wgt>
  <wgt id="124">3.56446e-12</wgt>
  <wgt id="125">3.57177e-12</wgt>
  <wgt id="126">3.57376e-12</wgt>
  <wgt id="127">3.56577e-12</wgt>
  <wgt id="128">3.57957e-12</wgt>
  <wgt id="129">3.55841e-12</wgt>
  <wgt id="130">3.58504e-12</wgt>
  <wgt id="131">3.55225e-12</wgt>
  <wgt id="132">3.46424e-12</wgt>
  <wgt id="133">3.69438e-12</wgt>
  <wgt id="134">3.53002e-12</wgt>
  <wgt id="135">3.59961e-12</wgt>
  <wgt id="136">3.63103e-12</wgt>
  <wgt id="137">3.49471e-12</wgt>
  <wgt id="138">3.75124e-12</wgt>
  <wgt id="139">3.39828e-12</wgt>
  <wgt id="140">3.55629e-12</wgt>
  <wgt id="141">3.57812e-12</wgt>
  <wgt id="142">3.56738e-12</wgt>
  <wgt id="143">3.58348e-12</wgt>
  <wgt id="144">3.3865e-12</wgt>
  <wgt id="145">3.75167e-12</wgt>
  <wgt id="146">3.62964e-12</wgt>
  <wgt id="147">3.51882e-12</wgt>
  <wgt id="148">3.58307e-12</wgt>
  <wgt id="149">3.56797e-12</wgt>
  <wgt id="150">3.59899e-12</wgt>
  <wgt id="151">3.55489e-12</wgt>
  <wgt id="152">3.56955e-12</wgt>
  <wgt id="153">3.56868e-12</wgt>
  <wgt id="154">3.56365e-12</wgt>
  <wgt id="155">3.56451e-12</wgt>
  <wgt id="156">3.72807e-12</wgt>
  <wgt id="157">3.43242e-12</wgt>
  <wgt id="158">4.2567e-12</wgt>
  <wgt id="159">4.27528e-12</wgt>
  <wgt id="160">4.24194e-12</wgt>
  <wgt id="161">4.24522e-12</wgt>
  <wgt id="162">4.26967e-12</wgt>
  <wgt id="163">4.25162e-12</wgt>
  <wgt id="164">4.26444e-12</wgt>
  <wgt id="165">4.25826e-12</wgt>
  <wgt id="166">4.25561e-12</wgt>
  <wgt id="167">4.25395e-12</wgt>
  <wgt id="168">4.26067e-12</wgt>
  <wgt id="169">4.2402e-12</wgt>
  <wgt id="170">4.26719e-12</wgt>
  <wgt id="171">4.25424e-12</wgt>
  <wgt id="172">4.26041e-12</wgt>
  <wgt id="173">4.2446e-12</wgt>
  <wgt id="174">4.26104e-12</wgt>
  <wgt id="175">4.12579e-12</wgt>
  <wgt id="176">4.42917e-12</wgt>
  <wgt id="177">4.27493e-12</wgt>
  <wgt id="178">4.24055e-12</wgt>
  <wgt id="179">4.50484e-12</wgt>
  <wgt id="180">3.88096e-12</wgt>
  <wgt id="181">4.09897e-12</wgt>
  <wgt id="182">4.3628e-12</wgt>
  <wgt id="183">4.16129e-12</wgt>
  <wgt id="184">4.30439e-12</wgt>
  <wgt id="185">4.20141e-12</wgt>
  <wgt id="186">4.32386e-12</wgt>
  <wgt id="187">4.20183e-12</wgt>
  <wgt id="188">4.35308e-12</wgt>
  <wgt id="189">4.21901e-12</wgt>
  <wgt id="190">4.27215e-12</wgt>
  <wgt id="191">4.27443e-12</wgt>
  <wgt id="192">4.24618e-12</wgt>
  <wgt id="193">4.33747e-12</wgt>
  <wgt id="194">4.21593e-12</wgt>
  <wgt id="195">4.06407e-12</wgt>
  <wgt id="196">4.5644e-12</wgt>
  <wgt id="197">4.28103e-12</wgt>
  <wgt id="198">4.25093e-12</wgt>
  <wgt id="199">4.2567e-12</wgt>
  <wgt id="200">4.302e-12</wgt>
  <wgt id="201">4.28736e-12</wgt>
  <wgt id="202">4.27266e-12</wgt>
  <wgt id="203">4.25273e-12</wgt>
  <wgt id="204">4.24208e-12</wgt>
  <wgt id="205">4.23356e-12</wgt>
  <wgt id="206">4.17923e-12</wgt>
  <wgt id="207">4.20485e-12</wgt>
  <wgt id="208">4.15375e-12</wgt>
  <wgt id="209">4.19257e-12</wgt>
  <wgt id="210">4.16943e-12</wgt>
  <wgt id="211">4.1776e-12</wgt>
  <wgt id="212">4.18047e-12</wgt>
  <wgt id="213">4.1788e-12</wgt>
  <wgt id="214">4.17957e-12</wgt>
  <wgt id="215">4.1826e-12</wgt>
  <wgt id="216">4.17686e-12</wgt>
  <wgt id="217">4.18778e-12</wgt>
  <wgt id="218">4.17231e-12</wgt>
  <wgt id="219">4.17446e-12</wgt>
  <wgt id="220">4.18213e-12</wgt>
  <wgt id="221">4.18234e-12</wgt>
  <wgt id="222">4.17008e-12</wgt>
  <wgt id="223">3.92064e-12</wgt>
  <wgt id="224">4.41731e-12</wgt>
  <wgt id="225">4.12461e-12</wgt>
  <wgt id="226">4.24892e-12</wgt>
  <wgt id="227">4.13708e-12</wgt>
  <wgt id="228">4.19767e-12</wgt>
  <wgt id="229">4.11529e-12</wgt>
  <wgt id="230">4.21086e-12</wgt>
  <wgt id="231">4.34033e-12</wgt>
  <wgt id="232">4.04806e-12</wgt>
  <wgt id="233">4.14804e-12</wgt>
  <wgt id="234">4.23214e-12</wgt>
  <wgt id="235">3.94606e-12</wgt>
  <wgt id="236">4.36629e-12</wgt>
  <wgt id="237">4.04794e-12</wgt>
  <wgt id="238">4.22264e-12</wgt>
  <wgt id="239">4.12731e-12</wgt>
  <wgt id="240">4.27205e-12</wgt>
  <wgt id="241">4.1207e-12</wgt>
  <wgt id="242">4.2478e-12</wgt>
  <wgt id="243">4.27172e-12</wgt>
  <wgt id="244">4.16747e-12</wgt>
  <wgt id="245">4.17841e-12</wgt>
  <wgt id="246">4.1988e-12</wgt>
  <wgt id="247">4.17923e-12</wgt>
  <wgt id="248">4.23015e-12</wgt>
  <wgt id="249">4.21335e-12</wgt>
  <wgt id="250">4.19447e-12</wgt>
  <wgt id="251">4.17061e-12</wgt>
  <wgt id="252">4.15754e-12</wgt>
  <wgt id="253">4.14915e-12</wgt>
  <wgt id="254">3.99421e-12</wgt>
  <wgt id="255">3.99778e-12</wgt>
  <wgt id="256">3.9904e-12</wgt>
  <wgt id="257">3.99742e-12</wgt>
  <wgt id="258">3.99201e-12</wgt>
  <wgt id="259">4.02127e-12</wgt>
  <wgt id="260">3.96819e-12</wgt>
  <wgt id="261">4.00186e-12</wgt>
  <wgt id="262">3.98532e-12</wgt>
  <wgt id="263">3.99062e-12</wgt>
  <wgt id="264">3.99853e-12</wgt>
  <wgt id="265">3.98908e-12</wgt>
  <wgt id="266">4.00485e-12</wgt>
  <wgt id="267">3.99564e-12</wgt>
  <wgt id="268">3.99227e-12</wgt>
  <wgt id="269">4.00705e-12</wgt>
  <wgt id="270">3.98564e-12</wgt>
  <wgt id="271">3.98099e-12</wgt>
  <wgt id="272">4.00919e-12</wgt>
  <wgt id="273">3.984e-12</wgt>
  <wgt id="274">4.00211e-12</wgt>
  <wgt id="275">3.96459e-12</wgt>
  <wgt id="276">4.02517e-12</wgt>
  <wgt id="277">3.97135e-12</wgt>
  <wgt id="278">4.01506e-12</wgt>
  <wgt id="279">3.91656e-12</wgt>
  <wgt id="280">4.09244e-12</wgt>
  <wgt id="281">3.97189e-12</wgt>
  <wgt id="282">4.00525e-12</wgt>
  <wgt id="283">3.8472e-12</wgt>
  <wgt id="284">4.17974e-12</wgt>
  <wgt id="285">3.75387e-12</wgt>
  <wgt id="286">4.2009e-12</wgt>
  <wgt id="287">4.00973e-12</wgt>
  <wgt id="288">3.97461e-12</wgt>
  <wgt id="289">4.03065e-12</wgt>
  <wgt id="290">3.91628e-12</wgt>
  <wgt id="291">3.97649e-12</wgt>
  <wgt id="292">3.99166e-12</wgt>
  <wgt id="293">3.955e-12</wgt>
  <wgt id="294">4.03345e-12</wgt>
  <wgt id="295">3.89961e-12</wgt>
  <wgt id="296">4.11053e-12</wgt>
  <wgt id="297">3.97636e-12</wgt>
  <wgt id="298">4.01937e-12</wgt>
  <wgt id="299">3.97954e-12</wgt>
  <wgt id="300">4.03369e-12</wgt>
  <wgt id="301">3.88907e-12</wgt>
  <wgt id="302">4.22904e-12</wgt>
  <wgt id="303">3.93753e-12</wgt>
  <wgt id="304">4.02569e-12</wgt>
  <wgt id="305">3.92478e-12</wgt>
  <wgt id="306">3.92836e-12</wgt>
  <wgt id="307">3.92088e-12</wgt>
  <wgt id="308">3.92805e-12</wgt>
  <wgt id="309">3.92253e-12</wgt>
  <wgt id="310">3.95192e-12</wgt>
  <wgt id="311">3.89975e-12</wgt>
  <wgt id="312">3.93203e-12</wgt>
  <wgt id="313">3.9169e-12</wgt>
  <wgt id="314">3.92078e-12</wgt>
  <wgt id="315">3.92849e-12</wgt>
  <wgt id="316">3.91947e-12</wgt>
  <wgt id="317">3.93663e-12</wgt>
  <wgt id="318">3.92796e-12</wgt>
  <wgt id="319">3.91927e-12</wgt>
  <wgt id="320">3.93864e-12</wgt>
  <wgt id="321">3.91708e-12</wgt>
  <wgt id="322">3.91106e-12</wgt>
  <wgt id="323">3.94088e-12</wgt>
  <wgt id="324">3.91784e-12</wgt>
  <wgt id="325">3.93072e-12</wgt>
  <wgt id="326">3.90023e-12</wgt>
  <wgt id="327">3.9564e-12</wgt>
  <wgt id="328">3.9058e-12</wgt>
  <wgt id="329">3.93504e-12</wgt>
  <wgt id="330">4.04057e-12</wgt>
  <wgt id="331">3.81521e-12</wgt>
  <wgt id="332">3.90616e-12</wgt>
  <wgt id="333">3.93239e-12</wgt>
  <wgt id="334">3.81529e-12</wgt>
  <wgt id="335">4.06319e-12</wgt>
  <wgt id="336">3.75759e-12</wgt>
  <wgt id="337">4.13498e-12</wgt>
  <wgt id="338">3.97804e-12</wgt>
  <wgt id="339">3.87621e-12</wgt>
  <wgt id="340">3.95635e-12</wgt>
  <wgt id="341">3.84867e-12</wgt>
  <wgt id="342">3.91273e-12</wgt>
  <wgt id="343">3.91246e-12</wgt>
  <wgt id="344">3.89133e-12</wgt>
  <wgt id="345">3.96377e-12</wgt>
  <wgt id="346">3.82947e-12</wgt>
  <wgt id="347">4.03363e-12</wgt>
  <wgt id="348">3.90708e-12</wgt>
  <wgt id="349">3.94826e-12</wgt>
  <wgt id="350">3.90692e-12</wgt>
  <wgt id="351">3.97048e-12</wgt>
  <wgt id="352">3.82117e-12</wgt>
  <wgt id="353">4.14558e-12</wgt>
  <wgt id="354">3.84696e-12</wgt>
  <wgt id="355">3.97036e-12</wgt>
  <wgt id="356">3.99421e-12</wgt>
  <wgt id="357">3.91884e-12</wgt>
  <wgt id="358">3.92478e-12</wgt>
  <wgt id="359">3.98277e-12</wgt>
  <wgt id="360">4.09603e-12</wgt>
  <wgt id="361">4.02137e-12</wgt>
  <wgt id="362">4.11353e-12</wgt>
  <wgt id="363">4.10179e-12</wgt>
  <wgt id="364">4.07638e-12</wgt>
  <wgt id="365">4.05873e-12</wgt>
  <wgt id="366">4.0416e-12</wgt>
  <wgt id="367">4.01054e-12</wgt>
  <wgt id="368">3.98929e-12</wgt>
  <wgt id="369">3.96629e-12</wgt>
  <wgt id="370">4.02137e-12</wgt>
  <wgt id="371">4.03743e-12</wgt>
  <wgt id="372">4.02827e-12</wgt>
  <wgt id="373">4.01568e-12</wgt>
  <wgt id="374">4.02516e-12</wgt>
  <wgt id="375">4.85742e-12</wgt>
  <wgt id="376">4.85759e-12</wgt>
  <wgt id="377">4.85694e-12</wgt>
  <wgt id="378">4.87668e-12</wgt>
  <wgt id="379">4.83811e-12</wgt>
  <wgt id="380">4.87178e-12</wgt>
  <wgt id="381">4.85155e-12</wgt>
  <wgt id="382">4.87921e-12</wgt>
  <wgt id="383">4.83577e-12</wgt>
  <wgt id="384">4.86063e-12</wgt>
  <wgt id="385">4.85431e-12</wgt>
  <wgt id="386">4.87119e-12</wgt>
  <wgt id="387">4.85145e-12</wgt>
  <wgt id="388">4.85324e-12</wgt>
  <wgt id="389">4.86224e-12</wgt>
  <wgt id="390">4.86726e-12</wgt>
  <wgt id="391">4.84688e-12</wgt>
  <wgt id="392">4.80793e-12</wgt>
  <wgt id="393">4.8853e-12</wgt>
  <wgt id="394">4.85899e-12</wgt>
  <wgt id="395">4.85498e-12</wgt>
  <wgt id="396">4.86919e-12</wgt>
  <wgt id="397">4.84903e-12</wgt>
  <wgt id="398">4.85292e-12</wgt>
  <wgt id="399">4.86179e-12</wgt>
  <wgt id="400">4.84873e-12</wgt>
  <wgt id="401">4.87686e-12</wgt>
  <wgt id="402">4.80386e-12</wgt>
  <wgt id="403">4.89782e-12</wgt>
  <wgt id="404">5.02687e-12</wgt>
  <wgt id="405">4.45891e-12</wgt>
  <wgt id="406">4.73535e-12</wgt>
  <wgt id="407">5.13176e-12</wgt>
  <wgt id="408">4.92146e-12</wgt>
  <wgt id="409">4.7409e-12</wgt>
  <wgt id="410">4.66144e-12</wgt>
  <wgt id="411">4.95347e-12</wgt>
  <wgt id="412">4.84404e-12</wgt>
  <wgt id="413">4.8765e-12</wgt>
  <wgt id="414">4.77983e-12</wgt>
  <wgt id="415">4.91758e-12</wgt>
  <wgt id="416">5.06218e-12</wgt>
  <wgt id="417">4.57922e-12</wgt>
  <wgt id="418">4.86984e-12</wgt>
  <wgt id="419">4.79021e-12</wgt>
  <wgt id="420">5.02194e-12</wgt>
  <wgt id="421">4.74414e-12</wgt>
  <wgt id="422">4.8073e-12</wgt>
  <wgt id="423">4.87992e-12</wgt>
  <wgt id="424">5.04994e-12</wgt>
  <wgt id="425">4.72425e-12</wgt>
  <wgt id="426">4.85742e-12</wgt>
  <wgt id="427">4.71395e-12</wgt>
  <wgt id="428">5.16656e-12</wgt>
  <wgt id="429">4.94485e-12</wgt>
  <wgt id="430">5.139e-12</wgt>
  <wgt id="431">5.09853e-12</wgt>
  <wgt id="432">5.06316e-12</wgt>
  <wgt id="433">5.02834e-12</wgt>
  <wgt id="434">4.98254e-12</wgt>
  <wgt id="435">4.89807e-12</wgt>
  <wgt id="436">4.85616e-12</wgt>
  <wgt id="437">4.81446e-12</wgt>
  <wgt id="438">4.94485e-12</wgt>
  <wgt id="439">4.95942e-12</wgt>
  <wgt id="440">4.9499e-12</wgt>
  <wgt id="441">4.94182e-12</wgt>
  <wgt id="442">4.93967e-12</wgt>
  <wgt id="443">4.1712e-12</wgt>
  <wgt id="444">4.2296e-12</wgt>
  <wgt id="445">4.24808e-12</wgt>
  <wgt id="446">4.14224e-12</wgt>
  <wgt id="447">4.17027e-12</wgt>
  <wgt id="448">4.07366e-12</wgt>
  <wgt id="449">4.28573e-12</wgt>
  <wgt id="450">4.25629e-12</wgt>
  <wgt id="451">4.1578e-12</wgt>
  <wgt id="452">4.26432e-12</wgt>
  <wgt id="453">4.24993e-12</wgt>
  <wgt id="454">3.91275e-12</wgt>
  <wgt id="455">4.22535e-12</wgt>
  <wgt id="456">4.28959e-12</wgt>
  <wgt id="457">4.18526e-12</wgt>
  <wgt id="458">4.25952e-12</wgt>
  <wgt id="459">4.2111e-12</wgt>
  <wgt id="460">4.29623e-12</wgt>
  <wgt id="461">4.05141e-12</wgt>
  <wgt id="462">4.13691e-12</wgt>
  <wgt id="463">4.09152e-12</wgt>
  <wgt id="464">4.15056e-12</wgt>
  <wgt id="465">4.21709e-12</wgt>
  <wgt id="466">4.02197e-12</wgt>
  <wgt id="467">4.14319e-12</wgt>
  <wgt id="468">4.17611e-12</wgt>
  <wgt id="469">4.1549e-12</wgt>
  <wgt id="470">4.08542e-12</wgt>
  <wgt id="471">4.10223e-12</wgt>
  <wgt id="472">4.21044e-12</wgt>
  <wgt id="473">4.01463e-12</wgt>
  <wgt id="474">3.0282e-12</wgt>
  <wgt id="475">3.04295e-12</wgt>
  <wgt id="476">3.06533e-12</wgt>
  <wgt id="477">3.18658e-12</wgt>
  <wgt id="478">3.13531e-12</wgt>
  <wgt id="479">2.7692e-12</wgt>
  <wgt id="480">3.24918e-12</wgt>
  <wgt id="481">3.06803e-12</wgt>
  <wgt id="482">3.11391e-12</wgt>
  <wgt id="483">3.23289e-12</wgt>
  <wgt id="484">3.20709e-12</wgt>
  <wgt id="485">2.67214e-12</wgt>
  <wgt id="486">3.18654e-12</wgt>
  <wgt id="487">2.86406e-12</wgt>
  <wgt id="488">2.99159e-12</wgt>
  <wgt id="489">2.54678e-12</wgt>
  <wgt id="490">3.04387e-12</wgt>
  <wgt id="491">2.96263e-12</wgt>
  <wgt id="492">2.97523e-12</wgt>
  <wgt id="493">2.66623e-12</wgt>
  <wgt id="494">2.65304e-12</wgt>
  <wgt id="495">3.10212e-12</wgt>
  <wgt id="496">2.76612e-12</wgt>
  <wgt id="497">2.77554e-12</wgt>
  <wgt id="498">3.10459e-12</wgt>
  <wgt id="499">3.11208e-12</wgt>
  <wgt id="500">3.12059e-12</wgt>
  <wgt id="501">3.20563e-12</wgt>
  <wgt id="502">3.32741e-12</wgt>
  <wgt id="503">2.92622e-12</wgt>
  <wgt id="504">3.15078e-12</wgt>
  <wgt id="505">3.25478e-12</wgt>
  <wgt id="506">2.61685e-12</wgt>
  <wgt id="507">2.84101e-12</wgt>
  <wgt id="508">3.23023e-12</wgt>
  <wgt id="509">2.99433e-12</wgt>
  <wgt id="510">2.98733e-12</wgt>
  <wgt id="511">2.82753e-12</wgt>
  <wgt id="512">3.35082e-12</wgt>
  <wgt id="513">3.24549e-12</wgt>
  <wgt id="514">3.35645e-12</wgt>
  <wgt id="515">3.27124e-12</wgt>
  <wgt id="516">3.48974e-12</wgt>
  <wgt id="517">3.11321e-12</wgt>
  <wgt id="518">3.23213e-12</wgt>
  <wgt id="519">2.91161e-12</wgt>
  <wgt id="520">2.98284e-12</wgt>
  <wgt id="521">2.83949e-12</wgt>
  <wgt id="522">3.11145e-12</wgt>
  <wgt id="523">2.85467e-12</wgt>
  <wgt id="524">3.19751e-12</wgt>
  <wgt id="525">2.86459e-12</wgt>
  <wgt id="526">3.31347e-12</wgt>
  <wgt id="527">2.98073e-12</wgt>
  <wgt id="528">2.94066e-12</wgt>
  <wgt id="529">2.71942e-12</wgt>
  <wgt id="530">3.26643e-12</wgt>
  <wgt id="531">2.84228e-12</wgt>
  <wgt id="532">3.33188e-12</wgt>
  <wgt id="533">3.13172e-12</wgt>
  <wgt id="534">2.78397e-12</wgt>
  <wgt id="535">3.16484e-12</wgt>
  <wgt id="536">3.22785e-12</wgt>
  <wgt id="537">2.74724e-12</wgt>
  <wgt id="538">2.98285e-12</wgt>
  <wgt id="539">2.94591e-12</wgt>
  <wgt id="540">3.12357e-12</wgt>
  <wgt id="541">3.01255e-12</wgt>
  <wgt id="542">2.86471e-12</wgt>
  <wgt id="543">2.81377e-12</wgt>
  <wgt id="544">3.01708e-12</wgt>
  <wgt id="545">2.76645e-12</wgt>
  <wgt id="546">2.69469e-12</wgt>
  <wgt id="547">2.85044e-12</wgt>
  <wgt id="548">3.00401e-12</wgt>
  <wgt id="549">2.96628e-12</wgt>
  <wgt id="550">2.77002e-12</wgt>
  <wgt id="551">2.97092e-12</wgt>
  <wgt id="552">2.83794e-12</wgt>
  <wgt id="553">2.68665e-12</wgt>
  <wgt id="554">3.13424e-12</wgt>
  <wgt id="555">3.08354e-12</wgt>
  <wgt id="556">3.04387e-12</wgt>
  <wgt id="557">3.02208e-12</wgt>
  <wgt id="558">3.02372e-12</wgt>
  <wgt id="559">3.14655e-12</wgt>
  <wgt id="560">3.35544e-12</wgt>
  <wgt id="561">3.25691e-12</wgt>
  <wgt id="562">3.1631e-12</wgt>
  <wgt id="563">3.33261e-12</wgt>
  <wgt id="564">3.29916e-12</wgt>
  <wgt id="565">3.35451e-12</wgt>
  <wgt id="566">2.74614e-12</wgt>
  <wgt id="567">3.08402e-12</wgt>
  <wgt id="568">2.7955e-12</wgt>
  <wgt id="569">3.08325e-12</wgt>
  <wgt id="570">3.21989e-12</wgt>
  <wgt id="571">3.41057e-12</wgt>
  <wgt id="572">2.83238e-12</wgt>
  <wgt id="573">2.9451e-12</wgt>
  <wgt id="574">2.99875e-12</wgt>
  <wgt id="575">3.33515e-12</wgt>
  <wgt id="576">3.81023e-12</wgt>
  <wgt id="577">3.38306e-12</wgt>
  <wgt id="578">3.22561e-12</wgt>
  <wgt id="579">3.47283e-12</wgt>
  <wgt id="580">3.51808e-12</wgt>
  <wgt id="581">3.70523e-12</wgt>
  <wgt id="582">3.67744e-12</wgt>
  <wgt id="583">3.49887e-12</wgt>
  <wgt id="584">3.31073e-12</wgt>
  <wgt id="585">2.97328e-12</wgt>
  <wgt id="586">3.07309e-12</wgt>
  <wgt id="587">3.41353e-12</wgt>
  <wgt id="588">3.9776e-12</wgt>
  <wgt id="589">3.8598e-12</wgt>
  <wgt id="590">3.36653e-12</wgt>
  <wgt id="591">3.44316e-12</wgt>
  <wgt id="592">3.19601e-12</wgt>
  <wgt id="593">3.18347e-12</wgt>
  <wgt id="594">3.11032e-12</wgt>
  <wgt id="595">3.70912e-12</wgt>
  <wgt id="596">3.96757e-12</wgt>
  <wgt id="597">3.42633e-12</wgt>
  <wgt id="598">3.54693e-12</wgt>
  <wgt id="599">3.66729e-12</wgt>
  <wgt id="600">3.88105e-12</wgt>
  <wgt id="601">3.16131e-12</wgt>
  <wgt id="602">3.12624e-12</wgt>
  <wgt id="603">2.98941e-12</wgt>
  <wgt id="604">3.51576e-12</wgt>
  <wgt id="605">3.27102e-12</wgt>
  <wgt id="606">3.31547e-12</wgt>
  <wgt id="607">3.644e-12</wgt>
  <wgt id="608">3.46365e-12</wgt>
  <wgt id="609">3.26678e-12</wgt>
  <wgt id="610">3.10397e-12</wgt>
  <wgt id="611">3.06816e-12</wgt>
  <wgt id="612">3.35105e-12</wgt>
  <wgt id="613">3.08489e-12</wgt>
  <wgt id="614">3.32644e-12</wgt>
  <wgt id="615">3.53271e-12</wgt>
  <wgt id="616">2.9465e-12</wgt>
  <wgt id="617">3.50452e-12</wgt>
  <wgt id="618">3.711e-12</wgt>
  <wgt id="619">3.27083e-12</wgt>
  <wgt id="620">3.39781e-12</wgt>
  <wgt id="621">3.27295e-12</wgt>
  <wgt id="622">3.41353e-12</wgt>
  <wgt id="623">3.27357e-12</wgt>
  <wgt id="624">3.30518e-12</wgt>
  <wgt id="625">3.11228e-12</wgt>
  <wgt id="626">2.62593e-12</wgt>
  <wgt id="627">2.86969e-12</wgt>
  <wgt id="628">3.2888e-12</wgt>
  <wgt id="629">3.8282e-12</wgt>
  <wgt id="630">3.2859e-12</wgt>
  <wgt id="631">3.53937e-12</wgt>
  <wgt id="632">2.981e-12</wgt>
  <wgt id="633">3.30324e-12</wgt>
  <wgt id="634">3.11017e-12</wgt>
  <wgt id="635">3.0685e-12</wgt>
  <wgt id="636">3.29589e-12</wgt>
  <wgt id="637">3.39147e-12</wgt>
  <wgt id="638">3.11657e-12</wgt>
  <wgt id="639">3.07487e-12</wgt>
  <wgt id="640">3.14179e-12</wgt>
  <wgt id="641">3.57981e-12</wgt>
  <wgt id="642">2.80268e-12</wgt>
  <wgt id="643">3.18983e-12</wgt>
  <wgt id="644">3.01499e-12</wgt>
  <wgt id="645">3.34727e-12</wgt>
  <wgt id="646">2.82021e-12</wgt>
  <wgt id="647">3.51601e-12</wgt>
  <wgt id="648">3.62996e-12</wgt>
  <wgt id="649">3.38787e-12</wgt>
  <wgt id="650">3.25493e-12</wgt>
  <wgt id="651">3.57129e-12</wgt>
  <wgt id="652">3.12143e-12</wgt>
  <wgt id="653">3.16496e-12</wgt>
  <wgt id="654">3.40002e-12</wgt>
  <wgt id="655">3.03673e-12</wgt>
  <wgt id="656">3.38753e-12</wgt>
  <wgt id="657">3.73599e-12</wgt>
  <wgt id="658">3.27319e-12</wgt>
  <wgt id="659">3.2046e-12</wgt>
  <wgt id="660">3.05761e-12</wgt>
  <wgt id="661">3.18939e-12</wgt>
  <wgt id="662">3.28833e-12</wgt>
  <wgt id="663">3.45843e-12</wgt>
  <wgt id="664">3.50072e-12</wgt>
  <wgt id="665">3.2243e-12</wgt>
  <wgt id="666">3.21739e-12</wgt>
  <wgt id="667">3.55857e-12</wgt>
  <wgt id="668">3.23623e-12</wgt>
  <wgt id="669">3.23248e-12</wgt>
  <wgt id="670">3.57227e-12</wgt>
  <wgt id="671">3.42617e-12</wgt>
  <wgt id="672">3.4247e-12</wgt>
  <wgt id="673">3.72073e-12</wgt>
  <wgt id="674">3.18156e-12</wgt>
  <wgt id="675">3.09295e-12</wgt>
  <wgt id="676">4.41472e-12</wgt>
  <wgt id="677">4.42099e-12</wgt>
  <wgt id="678">5.05999e-12</wgt>
  <wgt id="679">4.94408e-12</wgt>
  <wgt id="680">4.49438e-12</wgt>
  <wgt id="681">4.20252e-12</wgt>
  <wgt id="682">4.71497e-12</wgt>
  <wgt id="683">3.80217e-12</wgt>
  <wgt id="684">4.81127e-12</wgt>
  <wgt id="685">4.51514e-12</wgt>
  <wgt id="686">4.74773e-12</wgt>
  <wgt id="687">4.47776e-12</wgt>
  <wgt id="688">4.27073e-12</wgt>
  <wgt id="689">4.75012e-12</wgt>
  <wgt id="690">4.60049e-12</wgt>
  <wgt id="691">4.51789e-12</wgt>
  <wgt id="692">4.22279e-12</wgt>
  <wgt id="693">6.5805e-12</wgt>
  <wgt id="694">5.06635e-12</wgt>
  <wgt id="695">3.9052e-12</wgt>
  <wgt id="696">4.04849e-12</wgt>
  <wgt id="697">3.66894e-12</wgt>
  <wgt id="698">3.30702e-12</wgt>
  <wgt id="699">3.5878e-12</wgt>
  <wgt id="700">3.84076e-12</wgt>
  <wgt id="701">4.42149e-12</wgt>
  <wgt id="702">4.04959e-12</wgt>
  <wgt id="703">6.03368e-12</wgt>
  <wgt id="704">5.10293e-12</wgt>
  <wgt id="705">5.04232e-12</wgt>
  <wgt id="706">3.90092e-12</wgt>
  <wgt id="707">4.00775e-12</wgt>
  <wgt id="708">4.00281e-12</wgt>
  <wgt id="709">4.1669e-12</wgt>
  <wgt id="710">3.10972e-12</wgt>
  <wgt id="711">5.02533e-12</wgt>
  <wgt id="712">4.04482e-12</wgt>
  <wgt id="713">4.77392e-12</wgt>
  <wgt id="714">3.68819e-12</wgt>
  <wgt id="715">4.03491e-12</wgt>
  <wgt id="716">4.17487e-12</wgt>
  <wgt id="717">3.49399e-12</wgt>
  <wgt id="718">4.52214e-12</wgt>
  <wgt id="719">4.0595e-12</wgt>
  <wgt id="720">4.74168e-12</wgt>
  <wgt id="721">3.65828e-12</wgt>
  <wgt id="722">2.97348e-12</wgt>
  <wgt id="723">5.30167e-12</wgt>
  <wgt id="724">4.95421e-12</wgt>
  <wgt id="725">4.6935e-12</wgt>
  <wgt id="726">4.36537e-12</wgt>
  <wgt id="727">4.52668e-12</wgt>
  <wgt id="728">4.57816e-12</wgt>
  <wgt id="729">3.59052e-12</wgt>
  <wgt id="730">5.09858e-12</wgt>
  <wgt id="731">4.38977e-12</wgt>
  <wgt id="732">5.3819e-12</wgt>
  <wgt id="733">3.92531e-12</wgt>
  <wgt id="734">4.64369e-12</wgt>
  <wgt id="735">4.24029e-12</wgt>
  <wgt id="736">3.91013e-12</wgt>
  <wgt id="737">3.50421e-12</wgt>
  <wgt id="738">4.12961e-12</wgt>
  <wgt id="739">4.53643e-12</wgt>
  <wgt id="740">5.65754e-12</wgt>
  <wgt id="741">5.0353e-12</wgt>
  <wgt id="742">3.87841e-12</wgt>
  <wgt id="743">3.91487e-12</wgt>
  <wgt id="744">4.2454e-12</wgt>
  <wgt id="745">5.12278e-12</wgt>
  <wgt id="746">5.28814e-12</wgt>
  <wgt id="747">3.45587e-12</wgt>
  <wgt id="748">4.12882e-12</wgt>
  <wgt id="749">4.72353e-12</wgt>
  <wgt id="750">4.88275e-12</wgt>
  <wgt id="751">4.4973e-12</wgt>
  <wgt id="752">3.85346e-12</wgt>
  <wgt id="753">3.76142e-12</wgt>
  <wgt id="754">4.61869e-12</wgt>
  <wgt id="755">4.19292e-12</wgt>
  <wgt id="756">4.16412e-12</wgt>
  <wgt id="757">3.58198e-12</wgt>
  <wgt id="758">4.26579e-12</wgt>
  <wgt id="759">4.80575e-12</wgt>
  <wgt id="760">4.03352e-12</wgt>
  <wgt id="761">5.20289e-12</wgt>
  <wgt id="762">5.24326e-12</wgt>
  <wgt id="763">4.84826e-12</wgt>
  <wgt id="764">4.94279e-12</wgt>
  <wgt id="765">4.51837e-12</wgt>
  <wgt id="766">4.6045e-12</wgt>
  <wgt id="767">4.57525e-12</wgt>
  <wgt id="768">3.85499e-12</wgt>
  <wgt id="769">4.60537e-12</wgt>
  <wgt id="770">3.77786e-12</wgt>
  <wgt id="771">5.82635e-12</wgt>
  <wgt id="772">4.23242e-12</wgt>
  <wgt id="773">4.56689e-12</wgt>
  <wgt id="774">3.29013e-12</wgt>
  <wgt id="775">4.6919e-12</wgt>
  <wgt id="776">5.65834e-12</wgt>
  <wgt id="777">3.5018e-12</wgt>
  <wgt id="778">2.44559e-12</wgt>
  <wgt id="779">9.26148e-13</wgt>
  <wgt id="780">1.56323e-20</wgt>
  <wgt id="781">2.63497e-12</wgt>
  <wgt id="782">3.14814e-12</wgt>
  <wgt id="783">3.84144e-13</wgt>
  <wgt id="784">1.05429e-12</wgt>
  <wgt id="785">4.28049e-12</wgt>
  <wgt id="786">2.03892e-13</wgt>
  <wgt id="787">3.76699e-12</wgt>
  <wgt id="788">1.50963e-20</wgt>
  <wgt id="789">9.63226e-13</wgt>
  <wgt id="790">4.83693e-13</wgt>
  <wgt id="791">3.09364e-12</wgt>
  <wgt id="792">3.51983e-12</wgt>
  <wgt id="793">1.89275e-12</wgt>
  <wgt id="794">2.74205e-13</wgt>
  <wgt id="795">4.12031e-12</wgt>
  <wgt id="796">4.10061e-12</wgt>
  <wgt id="797">3.4983e-12</wgt>
  <wgt id="798">1.41316e-12</wgt>
  <wgt id="799">3.83981e-12</wgt>
  <wgt id="800">1.45521e-12</wgt>
  <wgt id="801">2.98808e-12</wgt>
  <wgt id="802">2.97066e-13</wgt>
  <wgt id="803">4.42855e-12</wgt>
  <wgt id="804">4.16781e-12</wgt>
  <wgt id="805">4.00154e-12</wgt>
  <wgt id="806">3.04195e-12</wgt>
  <wgt id="807">2.53371e-12</wgt>
  <wgt id="808">2.57458e-12</wgt>
  <wgt id="809">1.99511e-12</wgt>
  <wgt id="810">4.35558e-12</wgt>
  <wgt id="811">2.72873e-12</wgt>
  <wgt id="812">4.37016e-13</wgt>
  <wgt id="813">6.29165e-13</wgt>
  <wgt id="814">1.23225e-12</wgt>
  <wgt id="815">5.19429e-13</wgt>
  <wgt id="816">9.10346e-13</wgt>
  <wgt id="817">2.69883e-12</wgt>
  <wgt id="818">4.005e-12</wgt>
  <wgt id="819">8.56686e-13</wgt>
  <wgt id="820">2.10622e-12</wgt>
  <wgt id="821">3.40332e-12</wgt>
  <wgt id="822">1.70877e-12</wgt>
  <wgt id="823">3.78811e-12</wgt>
  <wgt id="824">4.04476e-12</wgt>
  <wgt id="825">1.55586e-20</wgt>
  <wgt id="826">3.92939e-12</wgt>
  <wgt id="827">5.83754e-14</wgt>
  <wgt id="828">3.45414e-12</wgt>
  <wgt id="829">2.64013e-12</wgt>
  <wgt id="830">1.07126e-15</wgt>
  <wgt id="831">3.43122e-12</wgt>
  <wgt id="832">5.40046e-12</wgt>
  <wgt id="833">1.62086e-12</wgt>
  <wgt id="834">5.41521e-12</wgt>
  <wgt id="835">1.06578e-12</wgt>
  <wgt id="836">1.47307e-12</wgt>
  <wgt id="837">3.30097e-12</wgt>
  <wgt id="838">1.42038e-12</wgt>
  <wgt id="839">3.55799e-12</wgt>
  <wgt id="840">1.95287e-12</wgt>
  <wgt id="841">4.0522e-12</wgt>
  <wgt id="842">2.73233e-12</wgt>
  <wgt id="843">2.65006e-12</wgt>
  <wgt id="844">3.17862e-12</wgt>
  <wgt id="845">5.5991e-12</wgt>
  <wgt id="846">1.91721e-12</wgt>
  <wgt id="847">2.9261e-12</wgt>
  <wgt id="848">5.12177e-13</wgt>
  <wgt id="849">3.14987e-12</wgt>
  <wgt id="850">4.90489e-12</wgt>
  <wgt id="851">3.40018e-12</wgt>
  <wgt id="852">2.52636e-14</wgt>
  <wgt id="853">3.6037e-12</wgt>
  <wgt id="854">4.36728e-12</wgt>
  <wgt id="855">3.44482e-12</wgt>
  <wgt id="856">3.92827e-16</wgt>
  <wgt id="857">1.68613e-12</wgt>
  <wgt id="858">2.60959e-12</wgt>
  <wgt id="859">2.4009e-12</wgt>
  <wgt id="860">3.51141e-12</wgt>
  <wgt id="861">1.62391e-12</wgt>
  <wgt id="862">2.75939e-12</wgt>
  <wgt id="863">3.31912e-12</wgt>
  <wgt id="864">2.52277e-12</wgt>
  <wgt id="865">5.02241e-12</wgt>
  <wgt id="866">5.39057e-12</wgt>
  <wgt id="867">2.51359e-12</wgt>
  <wgt id="868">2.99742e-12</wgt>
  <wgt id="869">4.61228e-13</wgt>
  <wgt id="870">1.2134e-12</wgt>
  <wgt id="871">1.58651e-12</wgt>
  <wgt id="872">4.70766e-12</wgt>
  <wgt id="873">1.65092e-12</wgt>
  <wgt id="874">3.12062e-12</wgt>
  <wgt id="875">1.3443e-12</wgt>
  <wgt id="876">4.32589e-12</wgt>
  <wgt id="877">3.15709e-12</wgt>
  <wgt id="878">1.7333e-12</wgt>
  <wgt id="879">4.41472e-12</wgt>
  <wgt id="880">4.42099e-12</wgt>
  <wgt id="881">5.05999e-12</wgt>
  <wgt id="882">4.94408e-12</wgt>
  <wgt id="883">4.49438e-12</wgt>
  <wgt id="884">4.20252e-12</wgt>
  <wgt id="885">4.71497e-12</wgt>
  <wgt id="886">3.80217e-12</wgt>
  <wgt id="887">4.81127e-12</wgt>
  <wgt id="888">4.51514e-12</wgt>
  <wgt id="889">4.74773e-12</wgt>
  <wgt id="890">4.47776e-12</wgt>
  <wgt id="891">4.27073e-12</wgt>
  <wgt id="892">4.75012e-12</wgt>
  <wgt id="893">4.60049e-12</wgt>
  <wgt id="894">4.51789e-12</wgt>
  <wgt id="895">4.22279e-12</wgt>
  <wgt id="896">6.5805e-12</wgt>
  <wgt id="897">5.06635e-12</wgt>
  <wgt id="898">3.9052e-12</wgt>
  <wgt id="899">4.04849e-12</wgt>
  <wgt id="900">3.66894e-12</wgt>
  <wgt id="901">3.30702e-12</wgt>
  <wgt id="902">3.5878e-12</wgt>
  <wgt id="903">3.84076e-12</wgt>
  <wgt id="904">4.42149e-12</wgt>
  <wgt id="905">4.04959e-12</wgt>
  <wgt id="906">6.03368e-12</wgt>
  <wgt id="907">5.10293e-12</wgt>
  <wgt id="908">5.04232e-12</wgt>
  <wgt id="909">3.90092e-12</wgt>
  <wgt id="910">4.00775e-12</wgt>
  <wgt id="911">4.00281e-12</wgt>
  <wgt id="912">4.1669e-12</wgt>
  <wgt id="913">3.10972e-12</wgt>
  <wgt id="914">5.02533e-12</wgt>
  <wgt id="915">4.04482e-12</wgt>
  <wgt id="916">4.77392e-12</wgt>
  <wgt id="917">3.68819e-12</wgt>
  <wgt id="918">4.03491e-12</wgt>
  <wgt id="919">4.17487e-12</wgt>
  <wgt id="920">3.49399e-12</wgt>
  <wgt id="921">4.52214e-12</wgt>
  <wgt id="922">4.0595e-12</wgt>
  <wgt id="923">4.74168e-12</wgt>
  <wgt id="924">3.65828e-12</wgt>
  <wgt id="925">2.97348e-12</wgt>
  <wgt id="926">5.30167e-12</wgt>
  <wgt id="927">4.95421e-12</wgt>
  <wgt id="928">4.6935e-12</wgt>
  <wgt id="929">4.36537e-12</wgt>
  <wgt id="930">4.52668e-12</wgt>
  <wgt id="931">4.57816e-12</wgt>
  <wgt id="932">3.59052e-12</wgt>
  <wgt id="933">5.09858e-12</wgt>
  <wgt id="934">4.38977e-12</wgt>
  <wgt id="935">5.3819e-12</wgt>
  <wgt id="936">3.92531e-12</wgt>
  <wgt id="937">4.64369e-12</wgt>
  <wgt id="938">4.24029e-12</wgt>
  <wgt id="939">3.91013e-12</wgt>
  <wgt id="940">3.50421e-12</wgt>
  <wgt id="941">4.12961e-12</wgt>
  <wgt id="942">4.53643e-12</wgt>
  <wgt id="943">5.65754e-12</wgt>
  <wgt id="944">5.0353e-12</wgt>
  <wgt id="945">3.87841e-12</wgt>
  <wgt id="946">3.91487e-12</wgt>
  <wgt id="947">4.2454e-12</wgt>
  <wgt id="948">5.12278e-12</wgt>
  <wgt id="949">5.28814e-12</wgt>
  <wgt id="950">3.45587e-12</wgt>
  <wgt id="951">4.12882e-12</wgt>
  <wgt id="952">4.72353e-12</wgt>
  <wgt id="953">4.88275e-12</wgt>
  <wgt id="954">4.4973e-12</wgt>
  <wgt id="955">3.85346e-12</wgt>
  <wgt id="956">3.76142e-12</wgt>
  <wgt id="957">4.61869e-12</wgt>
  <wgt id="958">4.19292e-12</wgt>
  <wgt id="959">4.16412e-12</wgt>
  <wgt id="960">3.58198e-12</wgt>
  <wgt id="961">4.26579e-12</wgt>
  <wgt id="962">4.80575e-12</wgt>
  <wgt id="963">4.03352e-12</wgt>
  <wgt id="964">5.20289e-12</wgt>
  <wgt id="965">5.24326e-12</wgt>
  <wgt id="966">4.84826e-12</wgt>
  <wgt id="967">4.94279e-12</wgt>
  <wgt id="968">4.51837e-12</wgt>
  <wgt id="969">4.6045e-12</wgt>
  <wgt id="970">4.57525e-12</wgt>
  <wgt id="971">3.85499e-12</wgt>
  <wgt id="972">4.60537e-12</wgt>
  <wgt id="973">3.77786e-12</wgt>
  <wgt id="974">5.82635e-12</wgt>
  <wgt id="975">4.23242e-12</wgt>
  <wgt id="976">4.56689e-12</wgt>
  <wgt id="977">3.29013e-12</wgt>
  <wgt id="978">4.6919e-12</wgt>
  <wgt id="979">5.65834e-12</wgt>
  <wgt id="980">4.37397e-12</wgt>
  <wgt id="981">4.61065e-12</wgt>
  <wgt id="982">4.31802e-12</wgt>
</rwgt>
</event>
<event>
 5   1  0.3028200E-11  0.2421167E+04  0.7818608E-02  0.7670344E-01
       21   -1    0    0  502  501  0.00000000000E+00  0.00000000000E+00  0.57111036138E+03  0.57111036138E+03  0.00000000000E+00 0.  1.
       21   -1    0    0  501  502 -0.00000000000E+00 -0.00000000000E+00 -0.25660763829E+04  0.25660763829E+04  0.00000000000E+00 0. -1.
       39    2    1    2    0    0  0.00000000000E+00  0.00000000000E+00 -0.19949660215E+04  0.31371867442E+04  0.24211673303E+04 0.  0.
       25    1    3    3    0    0  0.29562071427E+03  0.11436627128E+04 -0.69490281819E+03  0.13761798335E+04  0.12500000000E+03 0.  0.
       25    1    3    3    0    0 -0.29562071427E+03 -0.11436627128E+04 -0.13000632033E+04  0.17610069108E+04  0.12500000000E+03 0.  0.
<mgrwt>
<rscale>  0 0.24211673E+04</rscale>
<asrwt>0</asrwt>
<pdfrwt beam="1">  1       21 0.87863131E-01 0.24211673E+04</pdfrwt>
<pdfrwt beam="2">  1       21 0.39478099E+00 0.24211673E+04</pdfrwt>
<totfact> 0.33806201E+00</totfact>
</mgrwt>
<rwgt>
  <wgt id="1">3.0282e-12</wgt>
  <wgt id="2">2.58459e-12</wgt>
  <wgt id="3">3.59286e-12</wgt>
  <wgt id="4">3.0282e-12</wgt>
  <wgt id="5">2.58459e-12</wgt>
  <wgt id="6">3.59286e-12</wgt>
  <wgt id="7">3.0282e-12</wgt>
  <wgt id="8">2.58459e-12</wgt>
  <wgt id="9">3.59286e-12</wgt>
  <wgt id="10">3.24477e-12</wgt>
  <wgt id="11">3.24733e-12</wgt>
  <wgt id="12">3.23343e-12</wgt>
  <wgt id="13">3.24217e-12</wgt>
  <wgt id="14">3.24699e-12</wgt>
  <wgt id="15">3.24801e-12</wgt>
  <wgt id="16">3.22736e-12</wgt>
  <wgt id="17">3.27307e-12</wgt>
  <wgt id="18">3.24528e-12</wgt>
  <wgt id="19">3.26347e-12</wgt>
  <wgt id="20">3.25005e-12</wgt>
  <wgt id="21">3.21072e-12</wgt>
  <wgt id="22">3.21467e-12</wgt>
  <wgt id="23">3.18416e-12</wgt>
  <wgt id="24">3.21484e-12</wgt>
  <wgt id="25">3.23554e-12</wgt>
  <wgt id="26">3.25179e-12</wgt>
  <wgt id="27">3.23673e-12</wgt>
  <wgt id="28">3.22225e-12</wgt>
  <wgt id="29">3.24464e-12</wgt>
  <wgt id="30">3.2089e-12</wgt>
  <wgt id="31">3.25882e-12</wgt>
  <wgt id="32">3.20397e-12</wgt>
  <wgt id="33">3.24651e-12</wgt>
  <wgt id="34">3.21437e-12</wgt>
  <wgt id="35">3.20447e-12</wgt>
  <wgt id="36">3.26205e-12</wgt>
  <wgt id="37">3.23432e-12</wgt>
  <wgt id="38">3.22683e-12</wgt>
  <wgt id="39">3.32127e-12</wgt>
  <wgt id="40">3.25554e-12</wgt>
  <wgt id="41">3.24073e-12</wgt>
  <wgt id="42">3.25272e-12</wgt>
  <wgt id="43">3.25219e-12</wgt>
  <wgt id="44">3.27144e-12</wgt>
  <wgt id="45">3.25058e-12</wgt>
  <wgt id="46">3.21689e-12</wgt>
  <wgt id="47">3.30729e-12</wgt>
  <wgt id="48">3.2862e-12</wgt>
  <wgt id="49">3.23041e-12</wgt>
  <wgt id="50">3.19811e-12</wgt>
  <wgt id="51">3.21058e-12</wgt>
  <wgt id="52">3.24829e-12</wgt>
  <wgt id="53">3.3298e-12</wgt>
  <wgt id="54">3.27545e-12</wgt>
  <wgt id="55">3.23251e-12</wgt>
  <wgt id="56">3.1816e-12</wgt>
  <wgt id="57">3.19193e-12</wgt>
  <wgt id="58">3.2448e-12</wgt>
  <wgt id="59">3.26276e-12</wgt>
  <wgt id="60">3.18539e-12</wgt>
  <wgt id="61">3.24739e-12</wgt>
  <wgt id="62">3.26525e-12</wgt>
  <wgt id="63">3.23796e-12</wgt>
  <wgt id="64">3.23863e-12</wgt>
  <wgt id="65">3.21494e-12</wgt>
  <wgt id="66">3.27154e-12</wgt>
  <wgt id="67">3.28038e-12</wgt>
  <wgt id="68">3.24314e-12</wgt>
  <wgt id="69">3.23799e-12</wgt>
  <wgt id="70">3.21065e-12</wgt>
  <wgt id="71">3.268e-12</wgt>
  <wgt id="72">3.2578e-12</wgt>
  <wgt id="73">3.23174e-12</wgt>
  <wgt id="74">3.27192e-12</wgt>
  <wgt id="75">3.20422e-12</wgt>
  <wgt id="76">3.27135e-12</wgt>
  <wgt id="77">3.2339e-12</wgt>
  <wgt id="78">3.24117e-12</wgt>
  <wgt id="79">3.25163e-12</wgt>
  <wgt id="80">3.21758e-12</wgt>
  <wgt id="81">3.23791e-12</wgt>
  <wgt id="82">3.2471e-12</wgt>
  <wgt id="83">3.21298e-12</wgt>
  <wgt id="84">3.21849e-12</wgt>
  <wgt id="85">3.21563e-12</wgt>
  <wgt id="86">3.28162e-12</wgt>
  <wgt id="87">3.18954e-12</wgt>
  <wgt id="88">3.26095e-12</wgt>
  <wgt id="89">3.25814e-12</wgt>
  <wgt id="90">3.26739e-12</wgt>
  <wgt id="91">3.24819e-12</wgt>
  <wgt id="92">3.26234e-12</wgt>
  <wgt id="93">3.25007e-12</wgt>
  <wgt id="94">3.22504e-12</wgt>
  <wgt id="95">3.26504e-12</wgt>
  <wgt id="96">3.2656e-12</wgt>
  <wgt id="97">3.21614e-12</wgt>
  <wgt id="98">3.2462e-12</wgt>
  <wgt id="99">3.23985e-12</wgt>
  <wgt id="100">3.25269e-12</wgt>
  <wgt id="101">3.23128e-12</wgt>
  <wgt id="102">3.23481e-12</wgt>
  <wgt id="103">3.26456e-12</wgt>
  <wgt id="104">3.24056e-12</wgt>
  <wgt id="105">3.2676e-12</wgt>
  <wgt id="106">3.22563e-12</wgt>
  <wgt id="107">3.28051e-12</wgt>
  <wgt id="108">3.23412e-12</wgt>
  <wgt id="109">3.24089e-12</wgt>
  <wgt id="110">3.24675e-12</wgt>
  <wgt id="111">3.20789e-12</wgt>
  <wgt id="112">3.30999e-12</wgt>
  <wgt id="113">5.01788e-12</wgt>
  <wgt id="114">4.17614e-12</wgt>
  <wgt id="115">4.09426e-12</wgt>
  <wgt id="116">5.69374e-12</wgt>
  <wgt id="117">3.57233e-12</wgt>
  <wgt id="118">3.58695e-12</wgt>
  <wgt id="119">3.56399e-12</wgt>
  <wgt id="120">3.57224e-12</wgt>
  <wgt id="121">3.57237e-12</wgt>
  <wgt id="122">3.56735e-12</wgt>
  <wgt id="123">3.57931e-12</wgt>
  <wgt id="124">3.56796e-12</wgt>
  <wgt id="125">3.57511e-12</wgt>
  <wgt id="126">3.57682e-12</wgt>
  <wgt id="127">3.56934e-12</wgt>
  <wgt id="128">3.58289e-12</wgt>
  <wgt id="129">3.56182e-12</wgt>
  <wgt id="130">3.58752e-12</wgt>
  <wgt id="131">3.55641e-12</wgt>
  <wgt id="132">3.46581e-12</wgt>
  <wgt id="133">3.70017e-12</wgt>
  <wgt id="134">3.53366e-12</wgt>
  <wgt id="135">3.6028e-12</wgt>
  <wgt id="136">3.63714e-12</wgt>
  <wgt id="137">3.495e-12</wgt>
  <wgt id="138">3.76192e-12</wgt>
  <wgt id="139">3.39574e-12</wgt>
  <wgt id="140">3.56164e-12</wgt>
  <wgt id="141">3.57973e-12</wgt>
  <wgt id="142">3.57042e-12</wgt>
  <wgt id="143">3.58807e-12</wgt>
  <wgt id="144">3.37701e-12</wgt>
  <wgt id="145">3.76995e-12</wgt>
  <wgt id="146">3.63812e-12</wgt>
  <wgt id="147">3.51764e-12</wgt>
  <wgt id="148">3.58667e-12</wgt>
  <wgt id="149">3.5713e-12</wgt>
  <wgt id="150">3.60203e-12</wgt>
  <wgt id="151">3.55846e-12</wgt>
  <wgt id="152">3.5727e-12</wgt>
  <wgt id="153">3.57213e-12</wgt>
  <wgt id="154">3.56106e-12</wgt>
  <wgt id="155">3.57325e-12</wgt>
  <wgt id="156">3.74666e-12</wgt>
  <wgt id="157">3.42561e-12</wgt>
  <wgt id="158">4.25195e-12</wgt>
  <wgt id="159">4.27069e-12</wgt>
  <wgt id="160">4.2371e-12</wgt>
  <wgt id="161">4.24054e-12</wgt>
  <wgt id="162">4.265e-12</wgt>
  <wgt id="163">4.24687e-12</wgt>
  <wgt id="164">4.25968e-12</wgt>
  <wgt id="165">4.2535e-12</wgt>
  <wgt id="166">4.25099e-12</wgt>
  <wgt id="167">4.24944e-12</wgt>
  <wgt id="168">4.25594e-12</wgt>
  <wgt id="169">4.23584e-12</wgt>
  <wgt id="170">4.26227e-12</wgt>
  <wgt id="171">4.24991e-12</wgt>
  <wgt id="172">4.25503e-12</wgt>
  <wgt id="173">4.23807e-12</wgt>
  <wgt id="174">4.25721e-12</wgt>
  <wgt id="175">4.12001e-12</wgt>
  <wgt id="176">4.42607e-12</wgt>
  <wgt id="177">4.26879e-12</wgt>
  <wgt id="178">4.23714e-12</wgt>
  <wgt id="179">4.51115e-12</wgt>
  <wgt id="180">3.86225e-12</wgt>
  <wgt id="181">4.08945e-12</wgt>
  <wgt id="182">4.36157e-12</wgt>
  <wgt id="183">4.15359e-12</wgt>
  <wgt id="184">4.30115e-12</wgt>
  <wgt id="185">4.19394e-12</wgt>
  <wgt id="186">4.32255e-12</wgt>
  <wgt id="187">4.19424e-12</wgt>
  <wgt id="188">4.35328e-12</wgt>
  <wgt id="189">4.21281e-12</wgt>
  <wgt id="190">4.26814e-12</wgt>
  <wgt id="191">4.27076e-12</wgt>
  <wgt id="192">4.24082e-12</wgt>
  <wgt id="193">4.33551e-12</wgt>
  <wgt id="194">4.20967e-12</wgt>
  <wgt id="195">4.04611e-12</wgt>
  <wgt id="196">4.57901e-12</wgt>
  <wgt id="197">4.27644e-12</wgt>
  <wgt id="198">4.24627e-12</wgt>
  <wgt id="199">4.25195e-12</wgt>
  <wgt id="200">4.29852e-12</wgt>
  <wgt id="201">4.28361e-12</wgt>
  <wgt id="202">4.26892e-12</wgt>
  <wgt id="203">4.24906e-12</wgt>
  <wgt id="204">4.23815e-12</wgt>
  <wgt id="205">4.22942e-12</wgt>
  <wgt id="206">4.1867e-12</wgt>
  <wgt id="207">4.21242e-12</wgt>
  <wgt id="208">4.16102e-12</wgt>
  <wgt id="209">4.19984e-12</wgt>
  <wgt id="210">4.17704e-12</wgt>
  <wgt id="211">4.18506e-12</wgt>
  <wgt id="212">4.18786e-12</wgt>
  <wgt id="213">4.18613e-12</wgt>
  <wgt id="214">4.18701e-12</wgt>
  <wgt id="215">4.19003e-12</wgt>
  <wgt id="216">4.18441e-12</wgt>
  <wgt id="217">4.1944e-12</wgt>
  <wgt id="218">4.18025e-12</wgt>
  <wgt id="219">4.18167e-12</wgt>
  <wgt id="220">4.18978e-12</wgt>
  <wgt id="221">4.19059e-12</wgt>
  <wgt id="222">4.17527e-12</wgt>
  <wgt id="223">3.92161e-12</wgt>
  <wgt id="224">4.4311e-12</wgt>
  <wgt id="225">4.13181e-12</wgt>
  <wgt id="226">4.2568e-12</wgt>
  <wgt id="227">4.14442e-12</wgt>
  <wgt id="228">4.2053e-12</wgt>
  <wgt id="229">4.12171e-12</wgt>
  <wgt id="230">4.2187e-12</wgt>
  <wgt id="231">4.35505e-12</wgt>
  <wgt id="232">4.04984e-12</wgt>
  <wgt id="233">4.15342e-12</wgt>
  <wgt id="234">4.24336e-12</wgt>
  <wgt id="235">3.92767e-12</wgt>
  <wgt id="236">4.39396e-12</wgt>
  <wgt id="237">4.04262e-12</wgt>
  <wgt id="238">4.23449e-12</wgt>
  <wgt id="239">4.13009e-12</wgt>
  <wgt id="240">4.28813e-12</wgt>
  <wgt id="241">4.12531e-12</wgt>
  <wgt id="242">4.25802e-12</wgt>
  <wgt id="243">4.28591e-12</wgt>
  <wgt id="244">4.16976e-12</wgt>
  <wgt id="245">4.18629e-12</wgt>
  <wgt id="246">4.20433e-12</wgt>
  <wgt id="247">4.1867e-12</wgt>
  <wgt id="248">4.23983e-12</wgt>
  <wgt id="249">4.22266e-12</wgt>
  <wgt id="250">4.20252e-12</wgt>
  <wgt id="251">4.1781e-12</wgt>
  <wgt id="252">4.1642e-12</wgt>
  <wgt id="253">4.15546e-12</wgt>
  <wgt id="254">3.98506e-12</wgt>
  <wgt id="255">3.98833e-12</wgt>
  <wgt id="256">3.98126e-12</wgt>
  <wgt id="257">3.98804e-12</wgt>
  <wgt id="258">3.98262e-12</wgt>
  <wgt id="259">4.01194e-12</wgt>
  <wgt id="260">3.95896e-12</wgt>
  <wgt id="261">3.99268e-12</wgt>
  <wgt id="262">3.97603e-12</wgt>
  <wgt id="263">3.98093e-12</wgt>
  <wgt id="264">3.98944e-12</wgt>
  <wgt id="265">3.97978e-12</wgt>
  <wgt id="266">3.99556e-12</wgt>
  <wgt id="267">3.98643e-12</wgt>
  <wgt id="268">3.98316e-12</wgt>
  <wgt id="269">3.99744e-12</wgt>
  <wgt id="270">3.97646e-12</wgt>
  <wgt id="271">3.97062e-12</wgt>
  <wgt id="272">4.00133e-12</wgt>
  <wgt id="273">3.97518e-12</wgt>
  <wgt id="274">3.99249e-12</wgt>
  <wgt id="275">3.95326e-12</wgt>
  <wgt id="276">4.01805e-12</wgt>
  <wgt id="277">3.96274e-12</wgt>
  <wgt id="278">4.00534e-12</wgt>
  <wgt id="279">3.90749e-12</wgt>
  <wgt id="280">4.08295e-12</wgt>
  <wgt id="281">3.96117e-12</wgt>
  <wgt id="282">3.99891e-12</wgt>
  <wgt id="283">3.83308e-12</wgt>
  <wgt id="284">4.17744e-12</wgt>
  <wgt id="285">3.73667e-12</wgt>
  <wgt id="286">4.19973e-12</wgt>
  <wgt id="287">4.00069e-12</wgt>
  <wgt id="288">3.96484e-12</wgt>
  <wgt id="289">4.02249e-12</wgt>
  <wgt id="290">3.90531e-12</wgt>
  <wgt id="291">3.96659e-12</wgt>
  <wgt id="292">3.98076e-12</wgt>
  <wgt id="293">3.94456e-12</wgt>
  <wgt id="294">4.02547e-12</wgt>
  <wgt id="295">3.88699e-12</wgt>
  <wgt id="296">4.10521e-12</wgt>
  <wgt id="297">3.96381e-12</wgt>
  <wgt id="298">4.01171e-12</wgt>
  <wgt id="299">3.97004e-12</wgt>
  <wgt id="300">4.0248e-12</wgt>
  <wgt id="301">3.87185e-12</wgt>
  <wgt id="302">4.23563e-12</wgt>
  <wgt id="303">3.92388e-12</wgt>
  <wgt id="304">4.01871e-12</wgt>
  <wgt id="305">3.90101e-12</wgt>
  <wgt id="306">3.90454e-12</wgt>
  <wgt id="307">3.89715e-12</wgt>
  <wgt id="308">3.90443e-12</wgt>
  <wgt id="309">3.89901e-12</wgt>
  <wgt id="310">3.92812e-12</wgt>
  <wgt id="311">3.8763e-12</wgt>
  <wgt id="312">3.90855e-12</wgt>
  <wgt id="313">3.89306e-12</wgt>
  <wgt id="314">3.89685e-12</wgt>
  <wgt id="315">3.9051e-12</wgt>
  <wgt id="316">3.89574e-12</wgt>
  <wgt id="317">3.9131e-12</wgt>
  <wgt id="318">3.90418e-12</wgt>
  <wgt id="319">3.8955e-12</wgt>
  <wgt id="320">3.91476e-12</wgt>
  <wgt id="321">3.8937e-12</wgt>
  <wgt id="322">3.8865e-12</wgt>
  <wgt id="323">3.91812e-12</wgt>
  <wgt id="324">3.89493e-12</wgt>
  <wgt id="325">3.90638e-12</wgt>
  <wgt id="326">3.87469e-12</wgt>
  <wgt id="327">3.93499e-12</wgt>
  <wgt id="328">3.88307e-12</wgt>
  <wgt id="329">3.91055e-12</wgt>
  <wgt id="330">4.01572e-12</wgt>
  <wgt id="331">3.7927e-12</wgt>
  <wgt id="332">3.88123e-12</wgt>
  <wgt id="333">3.911e-12</wgt>
  <wgt id="334">3.78904e-12</wgt>
  <wgt id="335">4.04327e-12</wgt>
  <wgt id="336">3.72961e-12</wgt>
  <wgt id="337">4.11764e-12</wgt>
  <wgt id="338">3.95548e-12</wgt>
  <wgt id="339">3.85178e-12</wgt>
  <wgt id="340">3.9332e-12</wgt>
  <wgt id="341">3.82441e-12</wgt>
  <wgt id="342">3.8892e-12</wgt>
  <wgt id="343">3.88659e-12</wgt>
  <wgt id="344">3.86693e-12</wgt>
  <wgt id="345">3.94093e-12</wgt>
  <wgt id="346">3.80333e-12</wgt>
  <wgt id="347">4.01274e-12</wgt>
  <wgt id="348">3.87998e-12</wgt>
  <wgt id="349">3.92622e-12</wgt>
  <wgt id="350">3.88311e-12</wgt>
  <wgt id="351">3.94727e-12</wgt>
  <wgt id="352">3.79137e-12</wgt>
  <wgt id="353">4.13325e-12</wgt>
  <wgt id="354">3.81847e-12</wgt>
  <wgt id="355">3.94916e-12</wgt>
  <wgt id="356">3.98506e-12</wgt>
  <wgt id="357">3.89123e-12</wgt>
  <wgt id="358">3.90101e-12</wgt>
  <wgt id="359">3.96878e-12</wgt>
  <wgt id="360">4.10009e-12</wgt>
  <wgt id="361">4.01448e-12</wgt>
  <wgt id="362">4.11059e-12</wgt>
  <wgt id="363">4.09839e-12</wgt>
  <wgt id="364">4.07093e-12</wgt>
  <wgt id="365">4.05274e-12</wgt>
  <wgt id="366">4.03533e-12</wgt>
  <wgt id="367">4.00439e-12</wgt>
  <wgt id="368">3.9825e-12</wgt>
  <wgt id="369">3.95865e-12</wgt>
  <wgt id="370">4.01448e-12</wgt>
  <wgt id="371">4.02996e-12</wgt>
  <wgt id="372">4.02101e-12</wgt>
  <wgt id="373">4.00899e-12</wgt>
  <wgt id="374">4.02032e-12</wgt>
  <wgt id="375">4.96978e-12</wgt>
  <wgt id="376">4.96989e-12</wgt>
  <wgt id="377">4.96956e-12</wgt>
  <wgt id="378">4.98999e-12</wgt>
  <wgt id="379">4.94976e-12</wgt>
  <wgt id="380">4.9847e-12</wgt>
  <wgt id="381">4.96375e-12</wgt>
  <wgt id="382">4.99103e-12</wgt>
  <wgt id="383">4.94874e-12</wgt>
  <wgt id="384">4.97315e-12</wgt>
  <wgt id="385">4.9666e-12</wgt>
  <wgt id="386">4.98233e-12</wgt>
  <wgt id="387">4.9644e-12</wgt>
  <wgt id="388">4.96572e-12</wgt>
  <wgt id="389">4.97459e-12</wgt>
  <wgt id="390">4.97922e-12</wgt>
  <wgt id="391">4.95994e-12</wgt>
  <wgt id="392">4.91779e-12</wgt>
  <wgt id="393">4.99917e-12</wgt>
  <wgt id="394">4.97053e-12</wgt>
  <wgt id="395">4.96872e-12</wgt>
  <wgt id="396">4.98293e-12</wgt>
  <wgt id="397">4.96054e-12</wgt>
  <wgt id="398">4.96793e-12</wgt>
  <wgt id="399">4.97154e-12</wgt>
  <wgt id="400">4.9607e-12</wgt>
  <wgt id="401">4.99012e-12</wgt>
  <wgt id="402">4.91169e-12</wgt>
  <wgt id="403">5.01639e-12</wgt>
  <wgt id="404">5.15413e-12</wgt>
  <wgt id="405">4.53794e-12</wgt>
  <wgt id="406">4.8369e-12</wgt>
  <wgt id="407">5.26993e-12</wgt>
  <wgt id="408">5.03956e-12</wgt>
  <wgt id="409">4.84336e-12</wgt>
  <wgt id="410">4.75702e-12</wgt>
  <wgt id="411">5.07472e-12</wgt>
  <wgt id="412">4.95525e-12</wgt>
  <wgt id="413">4.98999e-12</wgt>
  <wgt id="414">4.88596e-12</wgt>
  <wgt id="415">5.03502e-12</wgt>
  <wgt id="416">5.19398e-12</wgt>
  <wgt id="417">4.6664e-12</wgt>
  <wgt id="418">4.9836e-12</wgt>
  <wgt id="419">4.89508e-12</wgt>
  <wgt id="420">5.15549e-12</wgt>
  <wgt id="421">4.84065e-12</wgt>
  <wgt id="422">4.91025e-12</wgt>
  <wgt id="423">4.99639e-12</wgt>
  <wgt id="424">5.18511e-12</wgt>
  <wgt id="425">4.81988e-12</wgt>
  <wgt id="426">4.96978e-12</wgt>
  <wgt id="427">4.80294e-12</wgt>
  <wgt id="428">5.32243e-12</wgt>
  <wgt id="429">5.06767e-12</wgt>
  <wgt id="430">5.27886e-12</wgt>
  <wgt id="431">5.23419e-12</wgt>
  <wgt id="432">5.19607e-12</wgt>
  <wgt id="433">5.15815e-12</wgt>
  <wgt id="434">5.1082e-12</wgt>
  <wgt id="435">5.01738e-12</wgt>
  <wgt id="436">4.97285e-12</wgt>
  <wgt id="437">4.92797e-12</wgt>
  <wgt id="438">5.06767e-12</wgt>
  <wgt id="439">5.08235e-12</wgt>
  <wgt id="440">5.07235e-12</wgt>
  <wgt id="441">5.06499e-12</wgt>
  <wgt id="442">5.06307e-12</wgt>
  <wgt id="443">4.15089e-12</wgt>
  <wgt id="444">4.21435e-12</wgt>
  <wgt id="445">4.24202e-12</wgt>
  <wgt id="446">4.12347e-12</wgt>
  <wgt id="447">4.14856e-12</wgt>
  <wgt id="448">4.05811e-12</wgt>
  <wgt id="449">4.27556e-12</wgt>
  <wgt id="450">4.24722e-12</wgt>
  <wgt id="451">4.13747e-12</wgt>
  <wgt id="452">4.24112e-12</wgt>
  <wgt id="453">4.24029e-12</wgt>
  <wgt id="454">3.88058e-12</wgt>
  <wgt id="455">4.21268e-12</wgt>
  <wgt id="456">4.28277e-12</wgt>
  <wgt id="457">4.16413e-12</wgt>
  <wgt id="458">4.24324e-12</wgt>
  <wgt id="459">4.19034e-12</wgt>
  <wgt id="460">4.29155e-12</wgt>
  <wgt id="461">4.02609e-12</wgt>
  <wgt id="462">4.11638e-12</wgt>
  <wgt id="463">4.06771e-12</wgt>
  <wgt id="464">4.13219e-12</wgt>
  <wgt id="465">4.19511e-12</wgt>
  <wgt id="466">3.98378e-12</wgt>
  <wgt id="467">4.12619e-12</wgt>
  <wgt id="468">4.15996e-12</wgt>
  <wgt id="469">4.1332e-12</wgt>
  <wgt id="470">4.05873e-12</wgt>
  <wgt id="471">4.07686e-12</wgt>
  <wgt id="472">4.19206e-12</wgt>
  <wgt id="473">3.99222e-12</wgt>
  <wgt id="474">3.0282e-12</wgt>
  <wgt id="475">3.05901e-12</wgt>
  <wgt id="476">3.09203e-12</wgt>
  <wgt id="477">3.22816e-12</wgt>
  <wgt id="478">3.17542e-12</wgt>
  <wgt id="479">2.71147e-12</wgt>
  <wgt id="480">3.27969e-12</wgt>
  <wgt id="481">3.08021e-12</wgt>
  <wgt id="482">3.17301e-12</wgt>
  <wgt id="483">3.32237e-12</wgt>
  <wgt id="484">3.23596e-12</wgt>
  <wgt id="485">2.65937e-12</wgt>
  <wgt id="486">3.19081e-12</wgt>
  <wgt id="487">2.83871e-12</wgt>
  <wgt id="488">2.95054e-12</wgt>
  <wgt id="489">2.47105e-12</wgt>
  <wgt id="490">3.07313e-12</wgt>
  <wgt id="491">2.95837e-12</wgt>
  <wgt id="492">2.97807e-12</wgt>
  <wgt id="493">2.60304e-12</wgt>
  <wgt id="494">2.58205e-12</wgt>
  <wgt id="495">3.14601e-12</wgt>
  <wgt id="496">2.70822e-12</wgt>
  <wgt id="497">2.76293e-12</wgt>
  <wgt id="498">3.09704e-12</wgt>
  <wgt id="499">3.1297e-12</wgt>
  <wgt id="500">3.17031e-12</wgt>
  <wgt id="501">3.23727e-12</wgt>
  <wgt id="502">3.408e-12</wgt>
  <wgt id="503">2.9145e-12</wgt>
  <wgt id="504">3.15658e-12</wgt>
  <wgt id="505">3.29409e-12</wgt>
  <wgt id="506">2.54202e-12</wgt>
  <wgt id="507">2.79552e-12</wgt>
  <wgt id="508">3.23724e-12</wgt>
  <wgt id="509">3.0329e-12</wgt>
  <wgt id="510">2.95157e-12</wgt>
  <wgt id="511">2.82061e-12</wgt>
  <wgt id="512">3.37766e-12</wgt>
  <wgt id="513">3.29953e-12</wgt>
  <wgt id="514">3.41991e-12</wgt>
  <wgt id="515">3.35113e-12</wgt>
  <wgt id="516">3.53287e-12</wgt>
  <wgt id="517">3.11144e-12</wgt>
  <wgt id="518">3.28029e-12</wgt>
  <wgt id="519">2.92894e-12</wgt>
  <wgt id="520">2.92532e-12</wgt>
  <wgt id="521">2.79769e-12</wgt>
  <wgt id="522">3.07578e-12</wgt>
  <wgt id="523">2.87168e-12</wgt>
  <wgt id="524">3.2097e-12</wgt>
  <wgt id="525">2.86561e-12</wgt>
  <wgt id="526">3.35546e-12</wgt>
  <wgt id="527">2.98672e-12</wgt>
  <wgt id="528">2.89276e-12</wgt>
  <wgt id="529">2.62799e-12</wgt>
  <wgt id="530">3.30194e-12</wgt>
  <wgt id="531">2.82737e-12</wgt>
  <wgt id="532">3.3254e-12</wgt>
  <wgt id="533">3.17499e-12</wgt>
  <wgt id="534">2.73104e-12</wgt>
  <wgt id="535">3.20585e-12</wgt>
  <wgt id="536">3.26716e-12</wgt>
  <wgt id="537">2.69906e-12</wgt>
  <wgt id="538">2.97577e-12</wgt>
  <wgt id="539">2.94914e-12</wgt>
  <wgt id="540">3.04281e-12</wgt>
  <wgt id="541">3.0107e-12</wgt>
  <wgt id="542">2.8105e-12</wgt>
  <wgt id="543">2.76825e-12</wgt>
  <wgt id="544">2.9928e-12</wgt>
  <wgt id="545">2.73038e-12</wgt>
  <wgt id="546">2.6683e-12</wgt>
  <wgt id="547">2.81872e-12</wgt>
  <wgt id="548">3.05801e-12</wgt>
  <wgt id="549">2.96594e-12</wgt>
  <wgt id="550">2.67516e-12</wgt>
  <wgt id="551">2.92618e-12</wgt>
  <wgt id="552">2.92596e-12</wgt>
  <wgt id="553">2.63193e-12</wgt>
  <wgt id="554">3.10644e-12</wgt>
  <wgt id="555">3.06237e-12</wgt>
  <wgt id="556">3.07313e-12</wgt>
  <wgt id="557">2.97817e-12</wgt>
  <wgt id="558">3.02668e-12</wgt>
  <wgt id="559">3.18353e-12</wgt>
  <wgt id="560">3.34344e-12</wgt>
  <wgt id="561">3.3268e-12</wgt>
  <wgt id="562">3.17456e-12</wgt>
  <wgt id="563">3.29217e-12</wgt>
  <wgt id="564">3.33967e-12</wgt>
  <wgt id="565">3.43779e-12</wgt>
  <wgt id="566">2.66436e-12</wgt>
  <wgt id="567">3.12072e-12</wgt>
  <wgt id="568">2.73601e-12</wgt>
  <wgt id="569">3.09438e-12</wgt>
  <wgt id="570">3.27064e-12</wgt>
  <wgt id="571">3.43635e-12</wgt>
  <wgt id="572">2.78613e-12</wgt>
  <wgt id="573">2.94798e-12</wgt>
  <wgt id="574">3.01965e-12</wgt>
  <wgt id="575">3.31427e-12</wgt>
  <wgt id="576">3.81706e-12</wgt>
  <wgt id="577">3.31943e-12</wgt>
  <wgt id="578">3.12069e-12</wgt>
  <wgt id="579">3.45236e-12</wgt>
  <wgt id="580">3.44084e-12</wgt>
  <wgt id="581">3.67996e-12</wgt>
  <wgt id="582">3.66749e-12</wgt>
  <wgt id="583">3.52769e-12</wgt>
  <wgt id="584">3.30904e-12</wgt>
  <wgt id="585">2.92998e-12</wgt>
  <wgt id="586">3.04343e-12</wgt>
  <wgt id="587">3.39844e-12</wgt>
  <wgt id="588">4.06135e-12</wgt>
  <wgt id="589">3.90436e-12</wgt>
  <wgt id="590">3.38716e-12</wgt>
  <wgt id="591">3.43828e-12</wgt>
  <wgt id="592">3.22099e-12</wgt>
  <wgt id="593">3.15935e-12</wgt>
  <wgt id="594">3.04862e-12</wgt>
  <wgt id="595">3.76402e-12</wgt>
  <wgt id="596">3.85384e-12</wgt>
  <wgt id="597">3.40111e-12</wgt>
  <wgt id="598">3.59596e-12</wgt>
  <wgt id="599">3.6918e-12</wgt>
  <wgt id="600">3.96889e-12</wgt>
  <wgt id="601">3.13366e-12</wgt>
  <wgt id="602">3.04877e-12</wgt>
  <wgt id="603">2.91277e-12</wgt>
  <wgt id="604">3.55073e-12</wgt>
  <wgt id="605">3.21392e-12</wgt>
  <wgt id="606">3.21023e-12</wgt>
  <wgt id="607">3.66325e-12</wgt>
  <wgt id="608">3.42769e-12</wgt>
  <wgt id="609">3.19511e-12</wgt>
  <wgt id="610">3.04706e-12</wgt>
  <wgt id="611">3.01192e-12</wgt>
  <wgt id="612">3.28859e-12</wgt>
  <wgt id="613">3.03533e-12</wgt>
  <wgt id="614">3.33726e-12</wgt>
  <wgt id="615">3.57415e-12</wgt>
  <wgt id="616">2.83581e-12</wgt>
  <wgt id="617">3.49316e-12</wgt>
  <wgt id="618">3.70575e-12</wgt>
  <wgt id="619">3.25325e-12</wgt>
  <wgt id="620">3.36102e-12</wgt>
  <wgt id="621">3.26206e-12</wgt>
  <wgt id="622">3.39844e-12</wgt>
  <wgt id="623">3.23484e-12</wgt>
  <wgt id="624">3.25208e-12</wgt>
  <wgt id="625">3.08082e-12</wgt>
  <wgt id="626">2.44891e-12</wgt>
  <wgt id="627">2.81413e-12</wgt>
  <wgt id="628">3.27816e-12</wgt>
  <wgt id="629">3.96559e-12</wgt>
  <wgt id="630">3.30312e-12</wgt>
  <wgt id="631">3.58276e-12</wgt>
  <wgt id="632">2.95647e-12</wgt>
  <wgt id="633">3.28262e-12</wgt>
  <wgt id="634">3.05344e-12</wgt>
  <wgt id="635">3.06667e-12</wgt>
  <wgt id="636">3.22292e-12</wgt>
  <wgt id="637">3.42259e-12</wgt>
  <wgt id="638">3.07781e-12</wgt>
  <wgt id="639">3.01008e-12</wgt>
  <wgt id="640">3.07169e-12</wgt>
  <wgt id="641">3.59445e-12</wgt>
  <wgt id="642">2.71702e-12</wgt>
  <wgt id="643">3.15627e-12</wgt>
  <wgt id="644">3.02621e-12</wgt>
  <wgt id="645">3.35534e-12</wgt>
  <wgt id="646">2.71461e-12</wgt>
  <wgt id="647">3.56679e-12</wgt>
  <wgt id="648">3.66705e-12</wgt>
  <wgt id="649">3.40048e-12</wgt>
  <wgt id="650">3.29498e-12</wgt>
  <wgt id="651">3.5223e-12</wgt>
  <wgt id="652">3.08083e-12</wgt>
  <wgt id="653">3.13832e-12</wgt>
  <wgt id="654">3.31388e-12</wgt>
  <wgt id="655">2.95038e-12</wgt>
  <wgt id="656">3.40354e-12</wgt>
  <wgt id="657">3.74613e-12</wgt>
  <wgt id="658">3.20948e-12</wgt>
  <wgt id="659">3.20749e-12</wgt>
  <wgt id="660">2.97492e-12</wgt>
  <wgt id="661">3.14864e-12</wgt>
  <wgt id="662">3.28868e-12</wgt>
  <wgt id="663">3.47201e-12</wgt>
  <wgt id="664">3.54409e-12</wgt>
  <wgt id="665">3.17355e-12</wgt>
  <wgt id="666">3.1847e-12</wgt>
  <wgt id="667">3.53035e-12</wgt>
  <wgt id="668">3.2049e-12</wgt>
  <wgt id="669">3.17446e-12</wgt>
  <wgt id="670">3.58114e-12</wgt>
  <wgt id="671">3.42373e-12</wgt>
  <wgt id="672">3.4995e-12</wgt>
  <wgt id="673">3.75536e-12</wgt>
  <wgt id="674">3.13879e-12</wgt>
  <wgt id="675">3.03782e-12</wgt>
  <wgt id="676">4.40391e-12</wgt>
  <wgt id="677">4.3869e-12</wgt>
  <wgt id="678">5.11738e-12</wgt>
  <wgt id="679">5.05702e-12</wgt>
  <wgt id="680">4.50299e-12</wgt>
  <wgt id="681">4.16569e-12</wgt>
  <wgt id="682">4.74563e-12</wgt>
  <wgt id="683">3.74529e-12</wgt>
  <wgt id="684">4.87715e-12</wgt>
  <wgt id="685">4.55295e-12</wgt>
  <wgt id="686">4.78735e-12</wgt>
  <wgt id="687">4.4078e-12</wgt>
  <wgt id="688">4.28462e-12</wgt>
  <wgt id="689">4.83718e-12</wgt>
  <wgt id="690">4.63987e-12</wgt>
  <wgt id="691">4.54203e-12</wgt>
  <wgt id="692">4.17346e-12</wgt>
  <wgt id="693">6.83026e-12</wgt>
  <wgt id="694">5.13872e-12</wgt>
  <wgt id="695">3.79919e-12</wgt>
  <wgt id="696">3.93963e-12</wgt>
  <wgt id="697">3.53841e-12</wgt>
  <wgt id="698">3.17273e-12</wgt>
  <wgt id="699">3.55437e-12</wgt>
  <wgt id="700">3.77464e-12</wgt>
  <wgt id="701">4.42544e-12</wgt>
  <wgt id="702">3.9791e-12</wgt>
  <wgt id="703">6.23428e-12</wgt>
  <wgt id="704">5.14277e-12</wgt>
  <wgt id="705">5.00401e-12</wgt>
  <wgt id="706">3.78167e-12</wgt>
  <wgt id="707">3.9498e-12</wgt>
  <wgt id="708">3.91612e-12</wgt>
  <wgt id="709">4.09446e-12</wgt>
  <wgt id="710">2.8435e-12</wgt>
  <wgt id="711">5.08861e-12</wgt>
  <wgt id="712">4.01636e-12</wgt>
  <wgt id="713">4.77267e-12</wgt>
  <wgt id="714">3.57288e-12</wgt>
  <wgt id="715">3.94638e-12</wgt>
  <wgt id="716">4.12826e-12</wgt>
  <wgt id="717">3.34863e-12</wgt>
  <wgt id="718">4.50327e-12</wgt>
  <wgt id="719">4.06529e-12</wgt>
  <wgt id="720">4.76811e-12</wgt>
  <wgt id="721">3.61151e-12</wgt>
  <wgt id="722">2.74226e-12</wgt>
  <wgt id="723">5.42886e-12</wgt>
  <wgt id="724">4.99435e-12</wgt>
  <wgt id="725">4.72281e-12</wgt>
  <wgt id="726">4.34461e-12</wgt>
  <wgt id="727">4.54891e-12</wgt>
  <wgt id="728">4.71695e-12</wgt>
  <wgt id="729">3.40335e-12</wgt>
  <wgt id="730">5.16627e-12</wgt>
  <wgt id="731">4.39263e-12</wgt>
  <wgt id="732">5.42099e-12</wgt>
  <wgt id="733">3.8655e-12</wgt>
  <wgt id="734">4.65376e-12</wgt>
  <wgt id="735">4.13885e-12</wgt>
  <wgt id="736">3.83773e-12</wgt>
  <wgt id="737">3.22639e-12</wgt>
  <wgt id="738">4.08244e-12</wgt>
  <wgt id="739">4.45806e-12</wgt>
  <wgt id="740">5.80026e-12</wgt>
  <wgt id="741">5.12923e-12</wgt>
  <wgt id="742">3.71507e-12</wgt>
  <wgt id="743">3.88121e-12</wgt>
  <wgt id="744">4.17284e-12</wgt>
  <wgt id="745">5.22008e-12</wgt>
  <wgt id="746">5.40148e-12</wgt>
  <wgt id="747">3.38869e-12</wgt>
  <wgt id="748">4.08662e-12</wgt>
  <wgt id="749">4.79326e-12</wgt>
  <wgt id="750">4.92882e-12</wgt>
  <wgt id="751">4.5218e-12</wgt>
  <wgt id="752">3.79716e-12</wgt>
  <wgt id="753">3.6906e-12</wgt>
  <wgt id="754">4.60324e-12</wgt>
  <wgt id="755">4.12388e-12</wgt>
  <wgt id="756">4.10482e-12</wgt>
  <wgt id="757">3.51862e-12</wgt>
  <wgt id="758">4.26216e-12</wgt>
  <wgt id="759">4.76607e-12</wgt>
  <wgt id="760">3.93675e-12</wgt>
  <wgt id="761">5.29753e-12</wgt>
  <wgt id="762">5.35042e-12</wgt>
  <wgt id="763">5.01664e-12</wgt>
  <wgt id="764">5.03128e-12</wgt>
  <wgt id="765">4.55006e-12</wgt>
  <wgt id="766">4.66862e-12</wgt>
  <wgt id="767">4.61212e-12</wgt>
  <wgt id="768">3.78948e-12</wgt>
  <wgt id="769">4.5747e-12</wgt>
  <wgt id="770">3.57904e-12</wgt>
  <wgt id="771">5.9838e-12</wgt>
  <wgt id="772">4.16265e-12</wgt>
  <wgt id="773">4.62458e-12</wgt>
  <wgt id="774">3.23515e-12</wgt>
  <wgt id="775">4.72266e-12</wgt>
  <wgt id="776">5.88055e-12</wgt>
  <wgt id="777">3.2926e-12</wgt>
  <wgt id="778">2.28228e-12</wgt>
  <wgt id="779">5.79876e-13</wgt>
  <wgt id="780">1.98783e-20</wgt>
  <wgt id="781">2.34806e-12</wgt>
  <wgt id="782">2.90027e-12</wgt>
  <wgt id="783">2.02797e-20</wgt>
  <wgt id="784">6.02119e-13</wgt>
  <wgt id="785">4.25847e-12</wgt>
  <wgt id="786">1.96466e-20</wgt>
  <wgt id="787">3.72818e-12</wgt>
  <wgt id="788">1.92146e-20</wgt>
  <wgt id="789">4.73884e-13</wgt>
  <wgt id="790">1.96636e-20</wgt>
  <wgt id="791">2.81324e-12</wgt>
  <wgt id="792">3.3321e-12</wgt>
  <wgt id="793">1.47581e-12</wgt>
  <wgt id="794">1.99175e-20</wgt>
  <wgt id="795">4.09723e-12</wgt>
  <wgt id="796">4.10727e-12</wgt>
  <wgt id="797">3.42245e-12</wgt>
  <wgt id="798">1.06983e-12</wgt>
  <wgt id="799">3.89821e-12</wgt>
  <wgt id="800">1.09825e-12</wgt>
  <wgt id="801">3.09302e-12</wgt>
  <wgt id="802">2.02164e-20</wgt>
  <wgt id="803">4.26283e-12</wgt>
  <wgt id="804">4.17243e-12</wgt>
  <wgt id="805">4.00522e-12</wgt>
  <wgt id="806">2.98893e-12</wgt>
  <wgt id="807">2.35718e-12</wgt>
  <wgt id="808">2.52721e-12</wgt>
  <wgt id="809">1.71049e-12</wgt>
  <wgt id="810">4.70005e-12</wgt>
  <wgt id="811">2.63842e-12</wgt>
  <wgt id="812">2.01502e-20</wgt>
  <wgt id="813">6.74679e-14</wgt>
  <wgt id="814">9.40303e-13</wgt>
  <wgt id="815">4.02259e-14</wgt>
  <wgt id="816">3.86457e-13</wgt>
  <wgt id="817">2.63078e-12</wgt>
  <wgt id="818">3.88227e-12</wgt>
  <wgt id="819">4.97644e-13</wgt>
  <wgt id="820">1.82761e-12</wgt>
  <wgt id="821">3.33337e-12</wgt>
  <wgt id="822">1.33541e-12</wgt>
  <wgt id="823">3.8069e-12</wgt>
  <wgt id="824">3.8733e-12</wgt>
  <wgt id="825">1.97718e-20</wgt>
  <wgt id="826">4.00847e-12</wgt>
  <wgt id="827">1.9556e-20</wgt>
  <wgt id="828">3.32484e-12</wgt>
  <wgt id="829">2.50909e-12</wgt>
  <wgt id="830">1.9661e-20</wgt>
  <wgt id="831">3.40822e-12</wgt>
  <wgt id="832">5.45274e-12</wgt>
  <wgt id="833">1.34506e-12</wgt>
  <wgt id="834">5.51029e-12</wgt>
  <wgt id="835">6.44529e-13</wgt>
  <wgt id="836">1.09279e-12</wgt>
  <wgt id="837">3.24851e-12</wgt>
  <wgt id="838">1.02683e-12</wgt>
  <wgt id="839">3.62023e-12</wgt>
  <wgt id="840">1.76017e-12</wgt>
  <wgt id="841">3.95431e-12</wgt>
  <wgt id="842">2.55103e-12</wgt>
  <wgt id="843">2.36867e-12</wgt>
  <wgt id="844">3.15399e-12</wgt>
  <wgt id="845">5.66105e-12</wgt>
  <wgt id="846">1.45173e-12</wgt>
  <wgt id="847">2.85383e-12</wgt>
  <wgt id="848">2.0543e-20</wgt>
  <wgt id="849">3.14487e-12</wgt>
  <wgt id="850">5.00782e-12</wgt>
  <wgt id="851">3.36036e-12</wgt>
  <wgt id="852">1.9943e-20</wgt>
  <wgt id="853">3.54383e-12</wgt>
  <wgt id="854">4.44321e-12</wgt>
  <wgt id="855">3.31058e-12</wgt>
  <wgt id="856">1.96573e-20</wgt>
  <wgt id="857">1.31164e-12</wgt>
  <wgt id="858">2.59096e-12</wgt>
  <wgt id="859">2.20384e-12</wgt>
  <wgt id="860">3.18393e-12</wgt>
  <wgt id="861">1.26129e-12</wgt>
  <wgt id="862">2.68188e-12</wgt>
  <wgt id="863">3.29979e-12</wgt>
  <wgt id="864">2.33949e-12</wgt>
  <wgt id="865">5.07104e-12</wgt>
  <wgt id="866">5.36836e-12</wgt>
  <wgt id="867">2.34927e-12</wgt>
  <wgt id="868">2.99008e-12</wgt>
  <wgt id="869">1.98799e-20</wgt>
  <wgt id="870">8.91293e-13</wgt>
  <wgt id="871">1.432e-12</wgt>
  <wgt id="872">4.86835e-12</wgt>
  <wgt id="873">1.36654e-12</wgt>
  <wgt id="874">3.07974e-12</wgt>
  <wgt id="875">9.27308e-13</wgt>
  <wgt id="876">4.42009e-12</wgt>
  <wgt id="877">3.10279e-12</wgt>
  <wgt id="878">1.33932e-12</wgt>
  <wgt id="879">4.40391e-12</wgt>
  <wgt id="880">4.3869e-12</wgt>
  <wgt id="881">5.11738e-12</wgt>
  <wgt id="882">5.05702e-12</wgt>
  <wgt id="883">4.50299e-12</wgt>
  <wgt id="884">4.16569e-12</wgt>
  <wgt id="885">4.74563e-12</wgt>
  <wgt id="886">3.74529e-12</wgt>
  <wgt id="887">4.87715e-12</wgt>
  <wgt id="888">4.55295e-12</wgt>
  <wgt id="889">4.78735e-12</wgt>
  <wgt id="890">4.4078e-12</wgt>
  <wgt id="891">4.28462e-12</wgt>
  <wgt id="892">4.83718e-12</wgt>
  <wgt id="893">4.63987e-12</wgt>
  <wgt id="894">4.54203e-12</wgt>
  <wgt id="895">4.17346e-12</wgt>
  <wgt id="896">6.83026e-12</wgt>
  <wgt id="897">5.13872e-12</wgt>
  <wgt id="898">3.79919e-12</wgt>
  <wgt id="899">3.93963e-12</wgt>
  <wgt id="900">3.53841e-12</wgt>
  <wgt id="901">3.17273e-12</wgt>
  <wgt id="902">3.55437e-12</wgt>
  <wgt id="903">3.77464e-12</wgt>
  <wgt id="904">4.42544e-12</wgt>
  <wgt id="905">3.9791e-12</wgt>
  <wgt id="906">6.23428e-12</wgt>
  <wgt id="907">5.14277e-12</wgt>
  <wgt id="908">5.00401e-12</wgt>
  <wgt id="909">3.78167e-12</wgt>
  <wgt id="910">3.9498e-12</wgt>
  <wgt id="911">3.91612e-12</wgt>
  <wgt id="912">4.09446e-12</wgt>
  <wgt id="913">2.8435e-12</wgt>
  <wgt id="914">5.08861e-12</wgt>
  <wgt id="915">4.01636e-12</wgt>
  <wgt id="916">4.77267e-12</wgt>
  <wgt id="917">3.57288e-12</wgt>
  <wgt id="918">3.94638e-12</wgt>
  <wgt id="919">4.12826e-12</wgt>
  <wgt id="920">3.34863e-12</wgt>
  <wgt id="921">4.50327e-12</wgt>
  <wgt id="922">4.06529e-12</wgt>
  <wgt id="923">4.76811e-12</wgt>
  <wgt id="924">3.61151e-12</wgt>
  <wgt id="925">2.74226e-12</wgt>
  <wgt id="926">5.42886e-12</wgt>
  <wgt id="927">4.99435e-12</wgt>
  <wgt id="928">4.72281e-12</wgt>
  <wgt id="929">4.34461e-12</wgt>
  <wgt id="930">4.54891e-12</wgt>
  <wgt id="931">4.71695e-12</wgt>
  <wgt id="932">3.40335e-12</wgt>
  <wgt id="933">5.16627e-12</wgt>
  <wgt id="934">4.39263e-12</wgt>
  <wgt id="935">5.42099e-12</wgt>
  <wgt id="936">3.8655e-12</wgt>
  <wgt id="937">4.65376e-12</wgt>
  <wgt id="938">4.13885e-12</wgt>
  <wgt id="939">3.83773e-12</wgt>
  <wgt id="940">3.22639e-12</wgt>
  <wgt id="941">4.08244e-12</wgt>
  <wgt id="942">4.45806e-12</wgt>
  <wgt id="943">5.80026e-12</wgt>
  <wgt id="944">5.12923e-12</wgt>
  <wgt id="945">3.71507e-12</wgt>
  <wgt id="946">3.88121e-12</wgt>
  <wgt id="947">4.17284e-12</wgt>
  <wgt id="948">5.22008e-12</wgt>
  <wgt id="949">5.40148e-12</wgt>
  <wgt id="950">3.38869e-12</wgt>
  <wgt id="951">4.08662e-12</wgt>
  <wgt id="952">4.79326e-12</wgt>
  <wgt id="953">4.92882e-12</wgt>
  <wgt id="954">4.5218e-12</wgt>
  <wgt id="955">3.79716e-12</wgt>
  <wgt id="956">3.6906e-12</wgt>
  <wgt id="957">4.60324e-12</wgt>
  <wgt id="958">4.12388e-12</wgt>
  <wgt id="959">4.10482e-12</wgt>
  <wgt id="960">3.51862e-12</wgt>
  <wgt id="961">4.26216e-12</wgt>
  <wgt id="962">4.76607e-12</wgt>
  <wgt id="963">3.93675e-12</wgt>
  <wgt id="964">5.29753e-12</wgt>
  <wgt id="965">5.35042e-12</wgt>
  <wgt id="966">5.01664e-12</wgt>
  <wgt id="967">5.03128e-12</wgt>
  <wgt id="968">4.55006e-12</wgt>
  <wgt id="969">4.66862e-12</wgt>
  <wgt id="970">4.61212e-12</wgt>
  <wgt id="971">3.78948e-12</wgt>
  <wgt id="972">4.5747e-12</wgt>
  <wgt id="973">3.57904e-12</wgt>
  <wgt id="974">5.9838e-12</wgt>
  <wgt id="975">4.16265e-12</wgt>
  <wgt id="976">4.62458e-12</wgt>
  <wgt id="977">3.23515e-12</wgt>
  <wgt id="978">4.72266e-12</wgt>
  <wgt id="979">5.88055e-12</wgt>
  <wgt id="980">4.35924e-12</wgt>
  <wgt id="981">4.64232e-12</wgt>
  <wgt id="982">4.33515e-12</wgt>
</rwgt>
</event>
<event>
 5   1  0.3028200E-11  0.2283151E+04  0.7818608E-02  0.7718256E-01
       21   -1    0    0  502  501  0.00000000000E+00  0.00000000000E+00  0.92896258064E+03  0.92896258064E+03  0.00000000000E+00 0. -1.
       21   -1    0    0  501  502 -0.00000000000E+00 -0.00000000000E+00 -0.14028489718E+04  0.14028489718E+04  0.00000000000E+00 0.  1.
       39    2    1    2    0    0  0.00000000000E+00  0.00000000000E+00 -0.47388639120E+03  0.23318115525E+04  0.22831506312E+04 0.  0.
       25    1    3    3    0    0 -0.89951269321E+03  0.57501579241E+03 -0.62958853067E+03  0.12457017961E+04  0.12500000000E+03 0.  0.
       25    1    3    3    0    0  0.89951269321E+03 -0.57501579241E+03  0.15570213947E+03  0.10861097564E+04  0.12500000000E+03 0.  0.
<mgrwt>
<rscale>  0 0.22831506E+04</rscale>
<asrwt>0</asrwt>
<pdfrwt beam="1">  1       21 0.14291732E+00 0.22831506E+04</pdfrwt>
<pdfrwt beam="2">  1       21 0.21582292E+00 0.22831506E+04</pdfrwt>
<totfact> 0.13832803E+01</totfact>
</mgrwt>
<rwgt>
  <wgt id="1">3.0282e-12</wgt>
  <wgt id="2">2.63762e-12</wgt>
  <wgt id="3">3.51278e-12</wgt>
  <wgt id="4">3.0282e-12</wgt>
  <wgt id="5">2.63762e-12</wgt>
  <wgt id="6">3.51278e-12</wgt>
  <wgt id="7">3.0282e-12</wgt>
  <wgt id="8">2.63762e-12</wgt>
  <wgt id="9">3.51278e-12</wgt>
  <wgt id="10">3.13173e-12</wgt>
  <wgt id="11">3.12893e-12</wgt>
  <wgt id="12">3.12587e-12</wgt>
  <wgt id="13">3.12115e-12</wgt>
  <wgt id="14">3.14307e-12</wgt>
  <wgt id="15">3.13659e-12</wgt>
  <wgt id="16">3.12578e-12</wgt>
  <wgt id="17">3.13805e-12</wgt>
  <wgt id="18">3.12656e-12</wgt>
  <wgt id="19">3.13855e-12</wgt>
  <wgt id="20">3.12275e-12</wgt>
  <wgt id="21">3.11301e-12</wgt>
  <wgt id="22">3.12012e-12</wgt>
  <wgt id="23">3.10324e-12</wgt>
  <wgt id="24">3.11718e-12</wgt>
  <wgt id="25">3.1241e-12</wgt>
  <wgt id="26">3.14407e-12</wgt>
  <wgt id="27">3.13124e-12</wgt>
  <wgt id="28">3.11705e-12</wgt>
  <wgt id="29">3.13448e-12</wgt>
  <wgt id="30">3.1227e-12</wgt>
  <wgt id="31">3.14088e-12</wgt>
  <wgt id="32">3.12554e-12</wgt>
  <wgt id="33">3.13898e-12</wgt>
  <wgt id="34">3.12143e-12</wgt>
  <wgt id="35">3.12826e-12</wgt>
  <wgt id="36">3.14112e-12</wgt>
  <wgt id="37">3.12361e-12</wgt>
  <wgt id="38">3.12301e-12</wgt>
  <wgt id="39">3.16495e-12</wgt>
  <wgt id="40">3.13801e-12</wgt>
  <wgt id="41">3.13081e-12</wgt>
  <wgt id="42">3.13896e-12</wgt>
  <wgt id="43">3.13257e-12</wgt>
  <wgt id="44">3.12261e-12</wgt>
  <wgt id="45">3.13788e-12</wgt>
  <wgt id="46">3.13538e-12</wgt>
  <wgt id="47">3.12161e-12</wgt>
  <wgt id="48">3.13177e-12</wgt>
  <wgt id="49">3.13663e-12</wgt>
  <wgt id="50">3.14667e-12</wgt>
  <wgt id="51">3.14288e-12</wgt>
  <wgt id="52">3.12785e-12</wgt>
  <wgt id="53">3.11197e-12</wgt>
  <wgt id="54">3.12597e-12</wgt>
  <wgt id="55">3.13129e-12</wgt>
  <wgt id="56">3.14297e-12</wgt>
  <wgt id="57">3.14151e-12</wgt>
  <wgt id="58">3.11209e-12</wgt>
  <wgt id="59">3.12154e-12</wgt>
  <wgt id="60">3.13335e-12</wgt>
  <wgt id="61">3.12278e-12</wgt>
  <wgt id="62">3.12843e-12</wgt>
  <wgt id="63">3.133e-12</wgt>
  <wgt id="64">3.13474e-12</wgt>
  <wgt id="65">3.13566e-12</wgt>
  <wgt id="66">3.12763e-12</wgt>
  <wgt id="67">3.1236e-12</wgt>
  <wgt id="68">3.12893e-12</wgt>
  <wgt id="69">3.1317e-12</wgt>
  <wgt id="70">3.13051e-12</wgt>
  <wgt id="71">3.13084e-12</wgt>
  <wgt id="72">3.12701e-12</wgt>
  <wgt id="73">3.13403e-12</wgt>
  <wgt id="74">3.13327e-12</wgt>
  <wgt id="75">3.1291e-12</wgt>
  <wgt id="76">3.13936e-12</wgt>
  <wgt id="77">3.13107e-12</wgt>
  <wgt id="78">3.13216e-12</wgt>
  <wgt id="79">3.13803e-12</wgt>
  <wgt id="80">3.11951e-12</wgt>
  <wgt id="81">3.12854e-12</wgt>
  <wgt id="82">3.13181e-12</wgt>
  <wgt id="83">3.12019e-12</wgt>
  <wgt id="84">3.12647e-12</wgt>
  <wgt id="85">3.12551e-12</wgt>
  <wgt id="86">3.1399e-12</wgt>
  <wgt id="87">3.1161e-12</wgt>
  <wgt id="88">3.13507e-12</wgt>
  <wgt id="89">3.13454e-12</wgt>
  <wgt id="90">3.13707e-12</wgt>
  <wgt id="91">3.1344e-12</wgt>
  <wgt id="92">3.13752e-12</wgt>
  <wgt id="93">3.13226e-12</wgt>
  <wgt id="94">3.12895e-12</wgt>
  <wgt id="95">3.13487e-12</wgt>
  <wgt id="96">3.13376e-12</wgt>
  <wgt id="97">3.12696e-12</wgt>
  <wgt id="98">3.13312e-12</wgt>
  <wgt id="99">3.12865e-12</wgt>
  <wgt id="100">3.13466e-12</wgt>
  <wgt id="101">3.13151e-12</wgt>
  <wgt id="102">3.12898e-12</wgt>
  <wgt id="103">3.13578e-12</wgt>
  <wgt id="104">3.13025e-12</wgt>
  <wgt id="105">3.13534e-12</wgt>
  <wgt id="106">3.12743e-12</wgt>
  <wgt id="107">3.14014e-12</wgt>
  <wgt id="108">3.12861e-12</wgt>
  <wgt id="109">3.13209e-12</wgt>
  <wgt id="110">3.13183e-12</wgt>
  <wgt id="111">3.16303e-12</wgt>
  <wgt id="112">3.13204e-12</wgt>
  <wgt id="113">4.20345e-12</wgt>
  <wgt id="114">4.32687e-12</wgt>
  <wgt id="115">4.26565e-12</wgt>
  <wgt id="116">5.92665e-12</wgt>
  <wgt id="117">3.47738e-12</wgt>
  <wgt id="118">3.48933e-12</wgt>
  <wgt id="119">3.47054e-12</wgt>
  <wgt id="120">3.47773e-12</wgt>
  <wgt id="121">3.47727e-12</wgt>
  <wgt id="122">3.47115e-12</wgt>
  <wgt id="123">3.48575e-12</wgt>
  <wgt id="124">3.47231e-12</wgt>
  <wgt id="125">3.48053e-12</wgt>
  <wgt id="126">3.48347e-12</wgt>
  <wgt id="127">3.47334e-12</wgt>
  <wgt id="128">3.48825e-12</wgt>
  <wgt id="129">3.46664e-12</wgt>
  <wgt id="130">3.49744e-12</wgt>
  <wgt id="131">3.45691e-12</wgt>
  <wgt id="132">3.38759e-12</wgt>
  <wgt id="133">3.58356e-12</wgt>
  <wgt id="134">3.44048e-12</wgt>
  <wgt id="135">3.50623e-12</wgt>
  <wgt id="136">3.52146e-12</wgt>
  <wgt id="137">3.42397e-12</wgt>
  <wgt id="138">3.61072e-12</wgt>
  <wgt id="139">3.34847e-12</wgt>
  <wgt id="140">3.45442e-12</wgt>
  <wgt id="141">3.49523e-12</wgt>
  <wgt id="142">3.47779e-12</wgt>
  <wgt id="143">3.48235e-12</wgt>
  <wgt id="144">3.38172e-12</wgt>
  <wgt id="145">3.56605e-12</wgt>
  <wgt id="146">3.50777e-12</wgt>
  <wgt id="147">3.45327e-12</wgt>
  <wgt id="148">3.4879e-12</wgt>
  <wgt id="149">3.47656e-12</wgt>
  <wgt id="150">3.50719e-12</wgt>
  <wgt id="151">3.4635e-12</wgt>
  <wgt id="152">3.47896e-12</wgt>
  <wgt id="153">3.47678e-12</wgt>
  <wgt id="154">3.50516e-12</wgt>
  <wgt id="155">3.44404e-12</wgt>
  <wgt id="156">3.54468e-12</wgt>
  <wgt id="157">3.40605e-12</wgt>
  <wgt id="158">4.18335e-12</wgt>
  <wgt id="159">4.20092e-12</wgt>
  <wgt id="160">4.16936e-12</wgt>
  <wgt id="161">4.17312e-12</wgt>
  <wgt id="162">4.19494e-12</wgt>
  <wgt id="163">4.17889e-12</wgt>
  <wgt id="164">4.19007e-12</wgt>
  <wgt id="165">4.18504e-12</wgt>
  <wgt id="166">4.18207e-12</wgt>
  <wgt id="167">4.18031e-12</wgt>
  <wgt id="168">4.18779e-12</wgt>
  <wgt id="169">4.16545e-12</wgt>
  <wgt id="170">4.19453e-12</wgt>
  <wgt id="171">4.17896e-12</wgt>
  <wgt id="172">4.18969e-12</wgt>
  <wgt id="173">4.18307e-12</wgt>
  <wgt id="174">4.18344e-12</wgt>
  <wgt id="175">4.06731e-12</wgt>
  <wgt id="176">4.33476e-12</wgt>
  <wgt id="177">4.20523e-12</wgt>
  <wgt id="178">4.1633e-12</wgt>
  <wgt id="179">4.35664e-12</wgt>
  <wgt id="180">3.90978e-12</wgt>
  <wgt id="181">4.06301e-12</wgt>
  <wgt id="182">4.26279e-12</wgt>
  <wgt id="183">4.10984e-12</wgt>
  <wgt id="184">4.21982e-12</wgt>
  <wgt id="185">4.14956e-12</wgt>
  <wgt id="186">4.22406e-12</wgt>
  <wgt id="187">4.14581e-12</wgt>
  <wgt id="188">4.25091e-12</wgt>
  <wgt id="189">4.15678e-12</wgt>
  <wgt id="190">4.19424e-12</wgt>
  <wgt id="191">4.19465e-12</wgt>
  <wgt id="192">4.17668e-12</wgt>
  <wgt id="193">4.24206e-12</wgt>
  <wgt id="194">4.15438e-12</wgt>
  <wgt id="195">4.08365e-12</wgt>
  <wgt id="196">4.36286e-12</wgt>
  <wgt id="197">4.20398e-12</wgt>
  <wgt id="198">4.17849e-12</wgt>
  <wgt id="199">4.18335e-12</wgt>
  <wgt id="200">4.21877e-12</wgt>
  <wgt id="201">4.20593e-12</wgt>
  <wgt id="202">4.19325e-12</wgt>
  <wgt id="203">4.17435e-12</wgt>
  <wgt id="204">4.16535e-12</wgt>
  <wgt id="205">4.15802e-12</wgt>
  <wgt id="206">4.06433e-12</wgt>
  <wgt id="207">4.08803e-12</wgt>
  <wgt id="208">4.04101e-12</wgt>
  <wgt id="209">4.07655e-12</wgt>
  <wgt id="210">4.05567e-12</wgt>
  <wgt id="211">4.06306e-12</wgt>
  <wgt id="212">4.06542e-12</wgt>
  <wgt id="213">4.06411e-12</wgt>
  <wgt id="214">4.06492e-12</wgt>
  <wgt id="215">4.06729e-12</wgt>
  <wgt id="216">4.06234e-12</wgt>
  <wgt id="217">4.07566e-12</wgt>
  <wgt id="218">4.05559e-12</wgt>
  <wgt id="219">4.05996e-12</wgt>
  <wgt id="220">4.06722e-12</wgt>
  <wgt id="221">4.06277e-12</wgt>
  <wgt id="222">4.06835e-12</wgt>
  <wgt id="223">3.85234e-12</wgt>
  <wgt id="224">4.25729e-12</wgt>
  <wgt id="225">4.01661e-12</wgt>
  <wgt id="226">4.12446e-12</wgt>
  <wgt id="227">4.02663e-12</wgt>
  <wgt id="228">4.081e-12</wgt>
  <wgt id="229">4.00879e-12</wgt>
  <wgt id="230">4.09212e-12</wgt>
  <wgt id="231">4.17915e-12</wgt>
  <wgt id="232">3.97002e-12</wgt>
  <wgt id="233">4.04364e-12</wgt>
  <wgt id="234">4.09703e-12</wgt>
  <wgt id="235">3.98347e-12</wgt>
  <wgt id="236">4.1403e-12</wgt>
  <wgt id="237">4.00936e-12</wgt>
  <wgt id="238">4.08323e-12</wgt>
  <wgt id="239">4.04052e-12</wgt>
  <wgt id="240">4.10783e-12</wgt>
  <wgt id="241">4.02374e-12</wgt>
  <wgt id="242">4.1133e-12</wgt>
  <wgt id="243">4.1117e-12</wgt>
  <wgt id="244">4.08633e-12</wgt>
  <wgt id="245">4.06144e-12</wgt>
  <wgt id="246">4.09444e-12</wgt>
  <wgt id="247">4.06433e-12</wgt>
  <wgt id="248">4.09933e-12</wgt>
  <wgt id="249">4.08593e-12</wgt>
  <wgt id="250">4.07352e-12</wgt>
  <wgt id="251">4.05496e-12</wgt>
  <wgt id="252">4.04617e-12</wgt>
  <wgt id="253">4.0399e-12</wgt>
  <wgt id="254">3.97841e-12</wgt>
  <wgt id="255">3.98213e-12</wgt>
  <wgt id="256">3.9743e-12</wgt>
  <wgt id="257">3.98142e-12</wgt>
  <wgt id="258">3.97621e-12</wgt>
  <wgt id="259">4.00485e-12</wgt>
  <wgt id="260">3.95283e-12</wgt>
  <wgt id="261">3.98361e-12</wgt>
  <wgt id="262">3.97209e-12</wgt>
  <wgt id="263">3.97658e-12</wgt>
  <wgt id="264">3.98031e-12</wgt>
  <wgt id="265">3.97394e-12</wgt>
  <wgt id="266">3.98738e-12</wgt>
  <wgt id="267">3.97958e-12</wgt>
  <wgt id="268">3.97659e-12</wgt>
  <wgt id="269">3.9908e-12</wgt>
  <wgt id="270">3.96995e-12</wgt>
  <wgt id="271">3.97157e-12</wgt>
  <wgt id="272">3.98605e-12</wgt>
  <wgt id="273">3.9663e-12</wgt>
  <wgt id="274">3.98759e-12</wgt>
  <wgt id="275">3.96231e-12</wgt>
  <wgt id="276">3.99504e-12</wgt>
  <wgt id="277">3.95604e-12</wgt>
  <wgt id="278">3.999e-12</wgt>
  <wgt id="279">3.90362e-12</wgt>
  <wgt id="280">4.07211e-12</wgt>
  <wgt id="281">3.96137e-12</wgt>
  <wgt id="282">3.97918e-12</wgt>
  <wgt id="283">3.86703e-12</wgt>
  <wgt id="284">4.11529e-12</wgt>
  <wgt id="285">3.7934e-12</wgt>
  <wgt id="286">4.13105e-12</wgt>
  <wgt id="287">3.99068e-12</wgt>
  <wgt id="288">3.96282e-12</wgt>
  <wgt id="289">4.00562e-12</wgt>
  <wgt id="290">3.91491e-12</wgt>
  <wgt id="291">3.96792e-12</wgt>
  <wgt id="292">3.98083e-12</wgt>
  <wgt id="293">3.9486e-12</wgt>
  <wgt id="294">4.00797e-12</wgt>
  <wgt id="295">3.90491e-12</wgt>
  <wgt id="296">4.06789e-12</wgt>
  <wgt id="297">3.97856e-12</wgt>
  <wgt id="298">3.9924e-12</wgt>
  <wgt id="299">3.96599e-12</wgt>
  <wgt id="300">4.01124e-12</wgt>
  <wgt id="301">3.92701e-12</wgt>
  <wgt id="302">4.11067e-12</wgt>
  <wgt id="303">3.94971e-12</wgt>
  <wgt id="304">3.99482e-12</wgt>
  <wgt id="305">3.99217e-12</wgt>
  <wgt id="306">3.99629e-12</wgt>
  <wgt id="307">3.9877e-12</wgt>
  <wgt id="308">3.9956e-12</wgt>
  <wgt id="309">3.98998e-12</wgt>
  <wgt id="310">4.0198e-12</wgt>
  <wgt id="311">3.96652e-12</wgt>
  <wgt id="312">3.99628e-12</wgt>
  <wgt id="313">3.98802e-12</wgt>
  <wgt id="314">3.9904e-12</wgt>
  <wgt id="315">3.9938e-12</wgt>
  <wgt id="316">3.98787e-12</wgt>
  <wgt id="317">4.00145e-12</wgt>
  <wgt id="318">3.99503e-12</wgt>
  <wgt id="319">3.98726e-12</wgt>
  <wgt id="320">4.0052e-12</wgt>
  <wgt id="321">3.98494e-12</wgt>
  <wgt id="322">3.9833e-12</wgt>
  <wgt id="323">4.00249e-12</wgt>
  <wgt id="324">3.9821e-12</wgt>
  <wgt id="325">4.00093e-12</wgt>
  <wgt id="326">3.97915e-12</wgt>
  <wgt id="327">4.00884e-12</wgt>
  <wgt id="328">3.97181e-12</wgt>
  <wgt id="329">4.0037e-12</wgt>
  <wgt id="330">4.10765e-12</wgt>
  <wgt id="331">3.88196e-12</wgt>
  <wgt id="332">3.97794e-12</wgt>
  <wgt id="333">3.99232e-12</wgt>
  <wgt id="334">3.90466e-12</wgt>
  <wgt id="335">4.10073e-12</wgt>
  <wgt id="336">3.85759e-12</wgt>
  <wgt id="337">4.15553e-12</wgt>
  <wgt id="338">4.03535e-12</wgt>
  <wgt id="339">3.95207e-12</wgt>
  <wgt id="340">4.01783e-12</wgt>
  <wgt id="341">3.92564e-12</wgt>
  <wgt id="342">3.98492e-12</wgt>
  <wgt id="343">3.98827e-12</wgt>
  <wgt id="344">3.965e-12</wgt>
  <wgt id="345">4.02353e-12</wgt>
  <wgt id="346">3.91572e-12</wgt>
  <wgt id="347">4.08e-12</wgt>
  <wgt id="348">3.99413e-12</wgt>
  <wgt id="349">4.00366e-12</wgt>
  <wgt id="350">3.97642e-12</wgt>
  <wgt id="351">4.03188e-12</wgt>
  <wgt id="352">3.93528e-12</wgt>
  <wgt id="353">4.13083e-12</wgt>
  <wgt id="354">3.94848e-12</wgt>
  <wgt id="355">4.01904e-12</wgt>
  <wgt id="356">3.97841e-12</wgt>
  <wgt id="357">4.00892e-12</wgt>
  <wgt id="358">3.99217e-12</wgt>
  <wgt id="359">3.99275e-12</wgt>
  <wgt id="360">4.00335e-12</wgt>
  <wgt id="361">3.99048e-12</wgt>
  <wgt id="362">4.05802e-12</wgt>
  <wgt id="363">4.04859e-12</wgt>
  <wgt id="364">4.03512e-12</wgt>
  <wgt id="365">4.02191e-12</wgt>
  <wgt id="366">4.00695e-12</wgt>
  <wgt id="367">3.9764e-12</wgt>
  <wgt id="368">3.95945e-12</wgt>
  <wgt id="369">3.94119e-12</wgt>
  <wgt id="370">3.99048e-12</wgt>
  <wgt id="371">4.00832e-12</wgt>
  <wgt id="372">3.99854e-12</wgt>
  <wgt id="373">3.98392e-12</wgt>
  <wgt id="374">3.98256e-12</wgt>
  <wgt id="375">4.25223e-12</wgt>
  <wgt id="376">4.25273e-12</wgt>
  <wgt id="377">4.25146e-12</wgt>
  <wgt id="378">4.26767e-12</wgt>
  <wgt id="379">4.23684e-12</wgt>
  <wgt id="380">4.26363e-12</wgt>
  <wgt id="381">4.24772e-12</wgt>
  <wgt id="382">4.2737e-12</wgt>
  <wgt id="383">4.23093e-12</wgt>
  <wgt id="384">4.25502e-12</wgt>
  <wgt id="385">4.24957e-12</wgt>
  <wgt id="386">4.26874e-12</wgt>
  <wgt id="387">4.24503e-12</wgt>
  <wgt id="388">4.24822e-12</wgt>
  <wgt id="389">4.25696e-12</wgt>
  <wgt id="390">4.26344e-12</wgt>
  <wgt id="391">4.24043e-12</wgt>
  <wgt id="392">4.22085e-12</wgt>
  <wgt id="393">4.27013e-12</wgt>
  <wgt id="394">4.25821e-12</wgt>
  <wgt id="395">4.24417e-12</wgt>
  <wgt id="396">4.25469e-12</wgt>
  <wgt id="397">4.25055e-12</wgt>
  <wgt id="398">4.23478e-12</wgt>
  <wgt id="399">4.26914e-12</wgt>
  <wgt id="400">4.24534e-12</wgt>
  <wgt id="401">4.26765e-12</wgt>
  <wgt id="402">4.21851e-12</wgt>
  <wgt id="403">4.2669e-12</wgt>
  <wgt id="404">4.3479e-12</wgt>
  <wgt id="405">4.02124e-12</wgt>
  <wgt id="406">4.18333e-12</wgt>
  <wgt id="407">4.40134e-12</wgt>
  <wgt id="408">4.28753e-12</wgt>
  <wgt id="409">4.18458e-12</wgt>
  <wgt id="410">4.13926e-12</wgt>
  <wgt id="411">4.30443e-12</wgt>
  <wgt id="412">4.24484e-12</wgt>
  <wgt id="413">4.26285e-12</wgt>
  <wgt id="414">4.20709e-12</wgt>
  <wgt id="415">4.28737e-12</wgt>
  <wgt id="416">4.36075e-12</wgt>
  <wgt id="417">4.10219e-12</wgt>
  <wgt id="418">4.25781e-12</wgt>
  <wgt id="419">4.22218e-12</wgt>
  <wgt id="420">4.31134e-12</wgt>
  <wgt id="421">4.21924e-12</wgt>
  <wgt id="422">4.24695e-12</wgt>
  <wgt id="423">4.25565e-12</wgt>
  <wgt id="424">4.33393e-12</wgt>
  <wgt id="425">4.20119e-12</wgt>
  <wgt id="426">4.25223e-12</wgt>
  <wgt id="427">4.21617e-12</wgt>
  <wgt id="428">4.35826e-12</wgt>
  <wgt id="429">4.28882e-12</wgt>
  <wgt id="430">4.40583e-12</wgt>
  <wgt id="431">4.38242e-12</wgt>
  <wgt id="432">4.36036e-12</wgt>
  <wgt id="433">4.33898e-12</wgt>
  <wgt id="434">4.31306e-12</wgt>
  <wgt id="435">4.25866e-12</wgt>
  <wgt id="436">4.2307e-12</wgt>
  <wgt id="437">4.20398e-12</wgt>
  <wgt id="438">4.28882e-12</wgt>
  <wgt id="439">4.30296e-12</wgt>
  <wgt id="440">4.29465e-12</wgt>
  <wgt id="441">4.28445e-12</wgt>
  <wgt id="442">4.28081e-12</wgt>
  <wgt id="443">4.15395e-12</wgt>
  <wgt id="444">4.17624e-12</wgt>
  <wgt id="445">4.14093e-12</wgt>
  <wgt id="446">4.12772e-12</wgt>
  <wgt id="447">4.1409e-12</wgt>
  <wgt id="448">4.04798e-12</wgt>
  <wgt id="449">4.21654e-12</wgt>
  <wgt id="450">4.14208e-12</wgt>
  <wgt id="451">4.14732e-12</wgt>
  <wgt id="452">4.24349e-12</wgt>
  <wgt id="453">4.19056e-12</wgt>
  <wgt id="454">3.99041e-12</wgt>
  <wgt id="455">4.16049e-12</wgt>
  <wgt id="456">4.1144e-12</wgt>
  <wgt id="457">4.16977e-12</wgt>
  <wgt id="458">4.20122e-12</wgt>
  <wgt id="459">4.18149e-12</wgt>
  <wgt id="460">4.1797e-12</wgt>
  <wgt id="461">4.08058e-12</wgt>
  <wgt id="462">4.12257e-12</wgt>
  <wgt id="463">4.1098e-12</wgt>
  <wgt id="464">4.13237e-12</wgt>
  <wgt id="465">4.19513e-12</wgt>
  <wgt id="466">4.10708e-12</wgt>
  <wgt id="467">4.11618e-12</wgt>
  <wgt id="468">4.14341e-12</wgt>
  <wgt id="469">4.14358e-12</wgt>
  <wgt id="470">4.11714e-12</wgt>
  <wgt id="471">4.11896e-12</wgt>
  <wgt id="472">4.17212e-12</wgt>
  <wgt id="473">4.02832e-12</wgt>
  <wgt id="474">3.0282e-12</wgt>
  <wgt id="475">3.19644e-12</wgt>
  <wgt id="476">2.96813e-12</wgt>
  <wgt id="477">2.94043e-12</wgt>
  <wgt id="478">3.04672e-12</wgt>
  <wgt id="479">2.97671e-12</wgt>
  <wgt id="480">3.13475e-12</wgt>
  <wgt id="481">2.97207e-12</wgt>
  <wgt id="482">2.92689e-12</wgt>
  <wgt id="483">2.9514e-12</wgt>
  <wgt id="484">3.20807e-12</wgt>
  <wgt id="485">3.01664e-12</wgt>
  <wgt id="486">3.10924e-12</wgt>
  <wgt id="487">3.07188e-12</wgt>
  <wgt id="488">3.0735e-12</wgt>
  <wgt id="489">2.91181e-12</wgt>
  <wgt id="490">2.9294e-12</wgt>
  <wgt id="491">3.00016e-12</wgt>
  <wgt id="492">2.94382e-12</wgt>
  <wgt id="493">2.9171e-12</wgt>
  <wgt id="494">2.93677e-12</wgt>
  <wgt id="495">3.07662e-12</wgt>
  <wgt id="496">2.92913e-12</wgt>
  <wgt id="497">2.91278e-12</wgt>
  <wgt id="498">3.07791e-12</wgt>
  <wgt id="499">2.96198e-12</wgt>
  <wgt id="500">2.97511e-12</wgt>
  <wgt id="501">3.16069e-12</wgt>
  <wgt id="502">2.96276e-12</wgt>
  <wgt id="503">3.02534e-12</wgt>
  <wgt id="504">3.05349e-12</wgt>
  <wgt id="505">3.00981e-12</wgt>
  <wgt id="506">3.06633e-12</wgt>
  <wgt id="507">3.0061e-12</wgt>
  <wgt id="508">3.08659e-12</wgt>
  <wgt id="509">2.94111e-12</wgt>
  <wgt id="510">3.10514e-12</wgt>
  <wgt id="511">2.95979e-12</wgt>
  <wgt id="512">3.08067e-12</wgt>
  <wgt id="513">3.1484e-12</wgt>
  <wgt id="514">3.01881e-12</wgt>
  <wgt id="515">2.9962e-12</wgt>
  <wgt id="516">3.12848e-12</wgt>
  <wgt id="517">3.09521e-12</wgt>
  <wgt id="518">3.10488e-12</wgt>
  <wgt id="519">2.94836e-12</wgt>
  <wgt id="520">3.06047e-12</wgt>
  <wgt id="521">3.12778e-12</wgt>
  <wgt id="522">3.14821e-12</wgt>
  <wgt id="523">3.0734e-12</wgt>
  <wgt id="524">3.06301e-12</wgt>
  <wgt id="525">3.1142e-12</wgt>
  <wgt id="526">3.04238e-12</wgt>
  <wgt id="527">3.07279e-12</wgt>
  <wgt id="528">3.0391e-12</wgt>
  <wgt id="529">2.98463e-12</wgt>
  <wgt id="530">3.06485e-12</wgt>
  <wgt id="531">2.98953e-12</wgt>
  <wgt id="532">3.19961e-12</wgt>
  <wgt id="533">2.86074e-12</wgt>
  <wgt id="534">3.03248e-12</wgt>
  <wgt id="535">3.07143e-12</wgt>
  <wgt id="536">3.01479e-12</wgt>
  <wgt id="537">3.03435e-12</wgt>
  <wgt id="538">3.06856e-12</wgt>
  <wgt id="539">2.96889e-12</wgt>
  <wgt id="540">2.98802e-12</wgt>
  <wgt id="541">2.9513e-12</wgt>
  <wgt id="542">2.9769e-12</wgt>
  <wgt id="543">3.02157e-12</wgt>
  <wgt id="544">3.17196e-12</wgt>
  <wgt id="545">2.98396e-12</wgt>
  <wgt id="546">2.98034e-12</wgt>
  <wgt id="547">2.94278e-12</wgt>
  <wgt id="548">2.90586e-12</wgt>
  <wgt id="549">2.9791e-12</wgt>
  <wgt id="550">3.00186e-12</wgt>
  <wgt id="551">3.06427e-12</wgt>
  <wgt id="552">2.98345e-12</wgt>
  <wgt id="553">3.01438e-12</wgt>
  <wgt id="554">3.24935e-12</wgt>
  <wgt id="555">3.10987e-12</wgt>
  <wgt id="556">2.9294e-12</wgt>
  <wgt id="557">3.08418e-12</wgt>
  <wgt id="558">2.93779e-12</wgt>
  <wgt id="559">2.98309e-12</wgt>
  <wgt id="560">3.28756e-12</wgt>
  <wgt id="561">2.9724e-12</wgt>
  <wgt id="562">3.0833e-12</wgt>
  <wgt id="563">2.96584e-12</wgt>
  <wgt id="564">3.04753e-12</wgt>
  <wgt id="565">2.93178e-12</wgt>
  <wgt id="566">3.06915e-12</wgt>
  <wgt id="567">2.9896e-12</wgt>
  <wgt id="568">3.02099e-12</wgt>
  <wgt id="569">3.07086e-12</wgt>
  <wgt id="570">2.93408e-12</wgt>
  <wgt id="571">3.35204e-12</wgt>
  <wgt id="572">2.96484e-12</wgt>
  <wgt id="573">2.90211e-12</wgt>
  <wgt id="574">2.92628e-12</wgt>
  <wgt id="575">3.32923e-12</wgt>
  <wgt id="576">3.31148e-12</wgt>
  <wgt id="577">3.42987e-12</wgt>
  <wgt id="578">3.41146e-12</wgt>
  <wgt id="579">3.38482e-12</wgt>
  <wgt id="580">3.40079e-12</wgt>
  <wgt id="581">3.54757e-12</wgt>
  <wgt id="582">3.30415e-12</wgt>
  <wgt id="583">3.36188e-12</wgt>
  <wgt id="584">3.32916e-12</wgt>
  <wgt id="585">3.32979e-12</wgt>
  <wgt id="586">3.24622e-12</wgt>
  <wgt id="587">3.3734e-12</wgt>
  <wgt id="588">3.31893e-12</wgt>
  <wgt id="589">3.39657e-12</wgt>
  <wgt id="590">3.37273e-12</wgt>
  <wgt id="591">3.45587e-12</wgt>
  <wgt id="592">3.23839e-12</wgt>
  <wgt id="593">3.31008e-12</wgt>
  <wgt id="594">3.43496e-12</wgt>
  <wgt id="595">3.32125e-12</wgt>
  <wgt id="596">3.38303e-12</wgt>
  <wgt id="597">3.23272e-12</wgt>
  <wgt id="598">3.24612e-12</wgt>
  <wgt id="599">3.47766e-12</wgt>
  <wgt id="600">3.30722e-12</wgt>
  <wgt id="601">3.23427e-12</wgt>
  <wgt id="602">3.25354e-12</wgt>
  <wgt id="603">3.26671e-12</wgt>
  <wgt id="604">3.37689e-12</wgt>
  <wgt id="605">3.4598e-12</wgt>
  <wgt id="606">3.26811e-12</wgt>
  <wgt id="607">3.29699e-12</wgt>
  <wgt id="608">3.35019e-12</wgt>
  <wgt id="609">3.15488e-12</wgt>
  <wgt id="610">3.20636e-12</wgt>
  <wgt id="611">3.35916e-12</wgt>
  <wgt id="612">3.57305e-12</wgt>
  <wgt id="613">3.31888e-12</wgt>
  <wgt id="614">3.36465e-12</wgt>
  <wgt id="615">3.2698e-12</wgt>
  <wgt id="616">3.51217e-12</wgt>
  <wgt id="617">3.44085e-12</wgt>
  <wgt id="618">3.41678e-12</wgt>
  <wgt id="619">3.29758e-12</wgt>
  <wgt id="620">3.45344e-12</wgt>
  <wgt id="621">3.36489e-12</wgt>
  <wgt id="622">3.3734e-12</wgt>
  <wgt id="623">3.41674e-12</wgt>
  <wgt id="624">3.3175e-12</wgt>
  <wgt id="625">3.28361e-12</wgt>
  <wgt id="626">3.23912e-12</wgt>
  <wgt id="627">3.19676e-12</wgt>
  <wgt id="628">3.491e-12</wgt>
  <wgt id="629">3.26402e-12</wgt>
  <wgt id="630">3.22541e-12</wgt>
  <wgt id="631">3.34208e-12</wgt>
  <wgt id="632">3.20867e-12</wgt>
  <wgt id="633">3.29503e-12</wgt>
  <wgt id="634">3.32037e-12</wgt>
  <wgt id="635">3.25596e-12</wgt>
  <wgt id="636">3.35424e-12</wgt>
  <wgt id="637">3.33181e-12</wgt>
  <wgt id="638">3.2105e-12</wgt>
  <wgt id="639">3.28575e-12</wgt>
  <wgt id="640">3.33164e-12</wgt>
  <wgt id="641">3.35598e-12</wgt>
  <wgt id="642">3.23428e-12</wgt>
  <wgt id="643">3.31128e-12</wgt>
  <wgt id="644">3.18107e-12</wgt>
  <wgt id="645">3.35284e-12</wgt>
  <wgt id="646">3.36451e-12</wgt>
  <wgt id="647">3.28469e-12</wgt>
  <wgt id="648">3.35495e-12</wgt>
  <wgt id="649">3.37432e-12</wgt>
  <wgt id="650">3.26051e-12</wgt>
  <wgt id="651">3.36882e-12</wgt>
  <wgt id="652">3.30714e-12</wgt>
  <wgt id="653">3.23746e-12</wgt>
  <wgt id="654">3.30323e-12</wgt>
  <wgt id="655">3.27021e-12</wgt>
  <wgt id="656">3.33386e-12</wgt>
  <wgt id="657">3.452e-12</wgt>
  <wgt id="658">3.35277e-12</wgt>
  <wgt id="659">3.20128e-12</wgt>
  <wgt id="660">3.38467e-12</wgt>
  <wgt id="661">3.27849e-12</wgt>
  <wgt id="662">3.31821e-12</wgt>
  <wgt id="663">3.32967e-12</wgt>
  <wgt id="664">3.2845e-12</wgt>
  <wgt id="665">3.32038e-12</wgt>
  <wgt id="666">3.30699e-12</wgt>
  <wgt id="667">3.43827e-12</wgt>
  <wgt id="668">3.32115e-12</wgt>
  <wgt id="669">3.40749e-12</wgt>
  <wgt id="670">3.39251e-12</wgt>
  <wgt id="671">3.29447e-12</wgt>
  <wgt id="672">3.19122e-12</wgt>
  <wgt id="673">3.34091e-12</wgt>
  <wgt id="674">3.26132e-12</wgt>
  <wgt id="675">3.27453e-12</wgt>
  <wgt id="676">4.18089e-12</wgt>
  <wgt id="677">4.23232e-12</wgt>
  <wgt id="678">4.38428e-12</wgt>
  <wgt id="679">3.95331e-12</wgt>
  <wgt id="680">4.07511e-12</wgt>
  <wgt id="681">4.27176e-12</wgt>
  <wgt id="682">4.2828e-12</wgt>
  <wgt id="683">4.12374e-12</wgt>
  <wgt id="684">4.3629e-12</wgt>
  <wgt id="685">3.98216e-12</wgt>
  <wgt id="686">4.12495e-12</wgt>
  <wgt id="687">4.3706e-12</wgt>
  <wgt id="688">4.14581e-12</wgt>
  <wgt id="689">4.4802e-12</wgt>
  <wgt id="690">4.39121e-12</wgt>
  <wgt id="691">4.40461e-12</wgt>
  <wgt id="692">4.14644e-12</wgt>
  <wgt id="693">4.88844e-12</wgt>
  <wgt id="694">4.43107e-12</wgt>
  <wgt id="695">4.04746e-12</wgt>
  <wgt id="696">3.98547e-12</wgt>
  <wgt id="697">4.04147e-12</wgt>
  <wgt id="698">3.85372e-12</wgt>
  <wgt id="699">3.81818e-12</wgt>
  <wgt id="700">3.68501e-12</wgt>
  <wgt id="701">4.19052e-12</wgt>
  <wgt id="702">4.04699e-12</wgt>
  <wgt id="703">4.77852e-12</wgt>
  <wgt id="704">4.55306e-12</wgt>
  <wgt id="705">4.38149e-12</wgt>
  <wgt id="706">3.9155e-12</wgt>
  <wgt id="707">4.01528e-12</wgt>
  <wgt id="708">4.12338e-12</wgt>
  <wgt id="709">4.10635e-12</wgt>
  <wgt id="710">3.77836e-12</wgt>
  <wgt id="711">4.16607e-12</wgt>
  <wgt id="712">4.10352e-12</wgt>
  <wgt id="713">4.49096e-12</wgt>
  <wgt id="714">4.11345e-12</wgt>
  <wgt id="715">4.13204e-12</wgt>
  <wgt id="716">4.02869e-12</wgt>
  <wgt id="717">3.97969e-12</wgt>
  <wgt id="718">4.1619e-12</wgt>
  <wgt id="719">3.81086e-12</wgt>
  <wgt id="720">3.9671e-12</wgt>
  <wgt id="721">3.87473e-12</wgt>
  <wgt id="722">3.72545e-12</wgt>
  <wgt id="723">4.44818e-12</wgt>
  <wgt id="724">4.37088e-12</wgt>
  <wgt id="725">4.407e-12</wgt>
  <wgt id="726">4.21754e-12</wgt>
  <wgt id="727">4.09103e-12</wgt>
  <wgt id="728">4.10316e-12</wgt>
  <wgt id="729">3.8683e-12</wgt>
  <wgt id="730">4.48082e-12</wgt>
  <wgt id="731">4.12931e-12</wgt>
  <wgt id="732">4.58732e-12</wgt>
  <wgt id="733">4.15432e-12</wgt>
  <wgt id="734">4.27936e-12</wgt>
  <wgt id="735">4.17526e-12</wgt>
  <wgt id="736">4.09946e-12</wgt>
  <wgt id="737">4.24143e-12</wgt>
  <wgt id="738">3.99705e-12</wgt>
  <wgt id="739">4.2361e-12</wgt>
  <wgt id="740">4.64034e-12</wgt>
  <wgt id="741">3.74964e-12</wgt>
  <wgt id="742">4.12271e-12</wgt>
  <wgt id="743">4.00617e-12</wgt>
  <wgt id="744">4.09632e-12</wgt>
  <wgt id="745">4.36057e-12</wgt>
  <wgt id="746">4.42857e-12</wgt>
  <wgt id="747">3.79946e-12</wgt>
  <wgt id="748">4.12169e-12</wgt>
  <wgt id="749">4.39637e-12</wgt>
  <wgt id="750">4.2609e-12</wgt>
  <wgt id="751">4.30785e-12</wgt>
  <wgt id="752">3.84575e-12</wgt>
  <wgt id="753">3.96668e-12</wgt>
  <wgt id="754">4.33323e-12</wgt>
  <wgt id="755">4.19399e-12</wgt>
  <wgt id="756">4.19399e-12</wgt>
  <wgt id="757">3.85698e-12</wgt>
  <wgt id="758">4.21135e-12</wgt>
  <wgt id="759">4.27405e-12</wgt>
  <wgt id="760">4.22818e-12</wgt>
  <wgt id="761">4.40859e-12</wgt>
  <wgt id="762">4.4246e-12</wgt>
  <wgt id="763">4.1749e-12</wgt>
  <wgt id="764">4.34136e-12</wgt>
  <wgt id="765">4.22943e-12</wgt>
  <wgt id="766">4.17337e-12</wgt>
  <wgt id="767">4.27787e-12</wgt>
  <wgt id="768">3.95119e-12</wgt>
  <wgt id="769">4.42621e-12</wgt>
  <wgt id="770">4.0804e-12</wgt>
  <wgt id="771">4.91943e-12</wgt>
  <wgt id="772">3.95376e-12</wgt>
  <wgt id="773">4.15387e-12</wgt>
  <wgt id="774">3.71702e-12</wgt>
  <wgt id="775">4.38284e-12</wgt>
  <wgt id="776">4.5582e-12</wgt>
  <wgt id="777">3.99044e-12</wgt>
  <wgt id="778">3.09004e-12</wgt>
  <wgt id="779">2.55783e-12</wgt>
  <wgt id="780">2.08749e-12</wgt>
  <wgt id="781">3.21221e-12</wgt>
  <wgt id="782">3.2882e-12</wgt>
  <wgt id="783">2.5894e-12</wgt>
  <wgt id="784">2.69601e-12</wgt>
  <wgt id="785">3.77593e-12</wgt>
  <wgt id="786">2.37816e-12</wgt>
  <wgt id="787">3.51404e-12</wgt>
  <wgt id="788">1.93032e-12</wgt>
  <wgt id="789">2.50839e-12</wgt>
  <wgt id="790">2.3513e-12</wgt>
  <wgt id="791">2.92821e-12</wgt>
  <wgt id="792">4.04266e-12</wgt>
  <wgt id="793">3.02313e-12</wgt>
  <wgt id="794">2.35914e-12</wgt>
  <wgt id="795">3.61444e-12</wgt>
  <wgt id="796">4.04643e-12</wgt>
  <wgt id="797">3.58894e-12</wgt>
  <wgt id="798">2.83206e-12</wgt>
  <wgt id="799">3.51119e-12</wgt>
  <wgt id="800">2.52854e-12</wgt>
  <wgt id="801">2.88629e-12</wgt>
  <wgt id="802">2.37051e-12</wgt>
  <wgt id="803">4.08659e-12</wgt>
  <wgt id="804">3.58951e-12</wgt>
  <wgt id="805">3.64455e-12</wgt>
  <wgt id="806">3.44148e-12</wgt>
  <wgt id="807">2.95074e-12</wgt>
  <wgt id="808">3.00179e-12</wgt>
  <wgt id="809">2.85347e-12</wgt>
  <wgt id="810">3.49819e-12</wgt>
  <wgt id="811">3.35756e-12</wgt>
  <wgt id="812">2.351e-12</wgt>
  <wgt id="813">2.40567e-12</wgt>
  <wgt id="814">2.60086e-12</wgt>
  <wgt id="815">2.56295e-12</wgt>
  <wgt id="816">2.28414e-12</wgt>
  <wgt id="817">3.23324e-12</wgt>
  <wgt id="818">3.093e-12</wgt>
  <wgt id="819">2.56215e-12</wgt>
  <wgt id="820">3.08677e-12</wgt>
  <wgt id="821">3.54055e-12</wgt>
  <wgt id="822">2.57748e-12</wgt>
  <wgt id="823">3.5675e-12</wgt>
  <wgt id="824">4.14684e-12</wgt>
  <wgt id="825">2.278e-12</wgt>
  <wgt id="826">3.2734e-12</wgt>
  <wgt id="827">1.89332e-12</wgt>
  <wgt id="828">3.95108e-12</wgt>
  <wgt id="829">3.20205e-12</wgt>
  <wgt id="830">2.16108e-12</wgt>
  <wgt id="831">3.32904e-12</wgt>
  <wgt id="832">5.03882e-12</wgt>
  <wgt id="833">2.87053e-12</wgt>
  <wgt id="834">4.73922e-12</wgt>
  <wgt id="835">2.5132e-12</wgt>
  <wgt id="836">3.04989e-12</wgt>
  <wgt id="837">3.49483e-12</wgt>
  <wgt id="838">2.92539e-12</wgt>
  <wgt id="839">3.30895e-12</wgt>
  <wgt id="840">2.88566e-12</wgt>
  <wgt id="841">3.8003e-12</wgt>
  <wgt id="842">2.82149e-12</wgt>
  <wgt id="843">3.0501e-12</wgt>
  <wgt id="844">3.22411e-12</wgt>
  <wgt id="845">4.35702e-12</wgt>
  <wgt id="846">2.94927e-12</wgt>
  <wgt id="847">3.11702e-12</wgt>
  <wgt id="848">2.65512e-12</wgt>
  <wgt id="849">3.17203e-12</wgt>
  <wgt id="850">4.02398e-12</wgt>
  <wgt id="851">3.39089e-12</wgt>
  <wgt id="852">2.61042e-12</wgt>
  <wgt id="853">3.39694e-12</wgt>
  <wgt id="854">3.76615e-12</wgt>
  <wgt id="855">3.5687e-12</wgt>
  <wgt id="856">2.21176e-12</wgt>
  <wgt id="857">3.08167e-12</wgt>
  <wgt id="858">3.02774e-12</wgt>
  <wgt id="859">2.88595e-12</wgt>
  <wgt id="860">3.33965e-12</wgt>
  <wgt id="861">2.72604e-12</wgt>
  <wgt id="862">3.14165e-12</wgt>
  <wgt id="863">3.27364e-12</wgt>
  <wgt id="864">3.26802e-12</wgt>
  <wgt id="865">4.41096e-12</wgt>
  <wgt id="866">4.83273e-12</wgt>
  <wgt id="867">3.14225e-12</wgt>
  <wgt id="868">3.05739e-12</wgt>
  <wgt id="869">2.39127e-12</wgt>
  <wgt id="870">2.52131e-12</wgt>
  <wgt id="871">2.44731e-12</wgt>
  <wgt id="872">3.69384e-12</wgt>
  <wgt id="873">2.56459e-12</wgt>
  <wgt id="874">3.25345e-12</wgt>
  <wgt id="875">2.68117e-12</wgt>
  <wgt id="876">3.68953e-12</wgt>
  <wgt id="877">3.52388e-12</wgt>
  <wgt id="878">2.64997e-12</wgt>
  <wgt id="879">4.18089e-12</wgt>
  <wgt id="880">4.23232e-12</wgt>
  <wgt id="881">4.38428e-12</wgt>
  <wgt id="882">3.95331e-12</wgt>
  <wgt id="883">4.07511e-12</wgt>
  <wgt id="884">4.27176e-12</wgt>
  <wgt id="885">4.2828e-12</wgt>
  <wgt id="886">4.12374e-12</wgt>
  <wgt id="887">4.3629e-12</wgt>
  <wgt id="888">3.98216e-12</wgt>
  <wgt id="889">4.12495e-12</wgt>
  <wgt id="890">4.3706e-12</wgt>
  <wgt id="891">4.14581e-12</wgt>
  <wgt id="892">4.4802e-12</wgt>
  <wgt id="893">4.39121e-12</wgt>
  <wgt id="894">4.40461e-12</wgt>
  <wgt id="895">4.14644e-12</wgt>
  <wgt id="896">4.88844e-12</wgt>
  <wgt id="897">4.43107e-12</wgt>
  <wgt id="898">4.04746e-12</wgt>
  <wgt id="899">3.98547e-12</wgt>
  <wgt id="900">4.04147e-12</wgt>
  <wgt id="901">3.85372e-12</wgt>
  <wgt id="902">3.81818e-12</wgt>
  <wgt id="903">3.68501e-12</wgt>
  <wgt id="904">4.19052e-12</wgt>
  <wgt id="905">4.04699e-12</wgt>
  <wgt id="906">4.77852e-12</wgt>
  <wgt id="907">4.55306e-12</wgt>
  <wgt id="908">4.38149e-12</wgt>
  <wgt id="909">3.9155e-12</wgt>
  <wgt id="910">4.01528e-12</wgt>
  <wgt id="911">4.12338e-12</wgt>
  <wgt id="912">4.10635e-12</wgt>
  <wgt id="913">3.77836e-12</wgt>
  <wgt id="914">4.16607e-12</wgt>
  <wgt id="915">4.10352e-12</wgt>
  <wgt id="916">4.49096e-12</wgt>
  <wgt id="917">4.11345e-12</wgt>
  <wgt id="918">4.13204e-12</wgt>
  <wgt id="919">4.02869e-12</wgt>
  <wgt id="920">3.97969e-12</wgt>
  <wgt id="921">4.1619e-12</wgt>
  <wgt id="922">3.81086e-12</wgt>
  <wgt id="923">3.9671e-12</wgt>
  <wgt id="924">3.87473e-12</wgt>
  <wgt id="925">3.72545e-12</wgt>
  <wgt id="926">4.44818e-12</wgt>
  <wgt id="927">4.37088e-12</wgt>
  <wgt id="928">4.407e-12</wgt>
  <wgt id="929">4.21754e-12</wgt>
  <wgt id="930">4.09103e-12</wgt>
  <wgt id="931">4.10316e-12</wgt>
  <wgt id="932">3.8683e-12</wgt>
  <wgt id="933">4.48082e-12</wgt>
  <wgt id="934">4.12931e-12</wgt>
  <wgt id="935">4.58732e-12</wgt>
  <wgt id="936">4.15432e-12</wgt>
  <wgt id="937">4.27936e-12</wgt>
  <wgt id="938">4.17526e-12</wgt>
  <wgt id="939">4.09946e-12</wgt>
  <wgt id="940">4.24143e-12</wgt>
  <wgt id="941">3.99705e-12</wgt>
  <wgt id="942">4.2361e-12</wgt>
  <wgt id="943">4.64034e-12</wgt>
  <wgt id="944">3.74964e-12</wgt>
  <wgt id="945">4.12271e-12</wgt>
  <wgt id="946">4.00617e-12</wgt>
  <wgt id="947">4.09632e-12</wgt>
  <wgt id="948">4.36057e-12</wgt>
  <wgt id="949">4.42857e-12</wgt>
  <wgt id="950">3.79946e-12</wgt>
  <wgt id="951">4.12169e-12</wgt>
  <wgt id="952">4.39637e-12</wgt>
  <wgt id="953">4.2609e-12</wgt>
  <wgt id="954">4.30785e-12</wgt>
  <wgt id="955">3.84575e-12</wgt>
  <wgt id="956">3.96668e-12</wgt>
  <wgt id="957">4.33323e-12</wgt>
  <wgt id="958">4.19399e-12</wgt>
  <wgt id="959">4.19399e-12</wgt>
  <wgt id="960">3.85698e-12</wgt>
  <wgt id="961">4.21135e-12</wgt>
  <wgt id="962">4.27405e-12</wgt>
  <wgt id="963">4.22818e-12</wgt>
  <wgt id="964">4.40859e-12</wgt>
  <wgt id="965">4.4246e-12</wgt>
  <wgt id="966">4.1749e-12</wgt>
  <wgt id="967">4.34136e-12</wgt>
  <wgt id="968">4.22943e-12</wgt>
  <wgt id="969">4.17337e-12</wgt>
  <wgt id="970">4.27787e-12</wgt>
  <wgt id="971">3.95119e-12</wgt>
  <wgt id="972">4.42621e-12</wgt>
  <wgt id="973">4.0804e-12</wgt>
  <wgt id="974">4.91943e-12</wgt>
  <wgt id="975">3.95376e-12</wgt>
  <wgt id="976">4.15387e-12</wgt>
  <wgt id="977">3.71702e-12</wgt>
  <wgt id="978">4.38284e-12</wgt>
  <wgt id="979">4.5582e-12</wgt>
  <wgt id="980">4.18093e-12</wgt>
  <wgt id="981">4.20207e-12</wgt>
  <wgt id="982">4.06038e-12</wgt>
</rwgt>
</event>
<event>
 5   1  0.3028200E-11  0.2307205E+04  0.7818608E-02  0.7709655E-01
       21   -1    0    0  502  501  0.00000000000E+00  0.00000000000E+00  0.21444813336E+04  0.21444813336E+04  0.00000000000E+00 0.  1.
       21   -1    0    0  501  502 -0.00000000000E+00 -0.00000000000E+00 -0.62056886690E+03  0.62056886690E+03  0.00000000000E+00 0. -1.
       39    2    1    2    0    0  0.00000000000E+00  0.00000000000E+00  0.15239124667E+04  0.27650502005E+04  0.23072046735E+04 0.  0.
       25    1    3    3    0    0 -0.51703066698E+03 -0.10233116989E+04  0.79334093619E+03  0.13998222690E+04  0.12500000000E+03 0.  0.
       25    1    3    3    0    0  0.51703066698E+03  0.10233116989E+04  0.73057153055E+03  0.13652279315E+04  0.12500000000E+03 0.  0.
<mgrwt>
<rscale>  0 0.23072047E+04</rscale>
<asrwt>0</asrwt>
<pdfrwt beam="1">  1       21 0.32992020E+00 0.23072047E+04</pdfrwt>
<pdfrwt beam="2">  1       21 0.95472134E-01 0.23072047E+04</pdfrwt>
<totfact> 0.72008818E+00</totfact>
</mgrwt>
<rwgt>
  <wgt id="1">3.0282e-12</wgt>
  <wgt id="2">2.61253e-12</wgt>
  <wgt id="3">3.54951e-12</wgt>
  <wgt id="4">3.0282e-12</wgt>
  <wgt id="5">2.61253e-12</wgt>
  <wgt id="6">3.54951e-12</wgt>
  <wgt id="7">3.0282e-12</wgt>
  <wgt id="8">2.61253e-12</wgt>
  <wgt id="9">3.54951e-12</wgt>
  <wgt id="10">3.19128e-12</wgt>
  <wgt id="11">3.19055e-12</wgt>
  <wgt id="12">3.18327e-12</wgt>
  <wgt id="13">3.18518e-12</wgt>
  <wgt id="14">3.20137e-12</wgt>
  <wgt id="15">3.19643e-12</wgt>
  <wgt id="16">3.18299e-12</wgt>
  <wgt id="17">3.20964e-12</wgt>
  <wgt id="18">3.18874e-12</wgt>
  <wgt id="19">3.20486e-12</wgt>
  <wgt id="20">3.19084e-12</wgt>
  <wgt id="21">3.16487e-12</wgt>
  <wgt id="22">3.16697e-12</wgt>
  <wgt id="23">3.13961e-12</wgt>
  <wgt id="24">3.16524e-12</wgt>
  <wgt id="25">3.17863e-12</wgt>
  <wgt id="26">3.19975e-12</wgt>
  <wgt id="27">3.18437e-12</wgt>
  <wgt id="28">3.16965e-12</wgt>
  <wgt id="29">3.19214e-12</wgt>
  <wgt id="30">3.1628e-12</wgt>
  <wgt id="31">3.20593e-12</wgt>
  <wgt id="32">3.1643e-12</wgt>
  <wgt id="33">3.19507e-12</wgt>
  <wgt id="34">3.16881e-12</wgt>
  <wgt id="35">3.1665e-12</wgt>
  <wgt id="36">3.20724e-12</wgt>
  <wgt id="37">3.17999e-12</wgt>
  <wgt id="38">3.17687e-12</wgt>
  <wgt id="39">3.25177e-12</wgt>
  <wgt id="40">3.19529e-12</wgt>
  <wgt id="41">3.18911e-12</wgt>
  <wgt id="42">3.19862e-12</wgt>
  <wgt id="43">3.19458e-12</wgt>
  <wgt id="44">3.2101e-12</wgt>
  <wgt id="45">3.19494e-12</wgt>
  <wgt id="46">3.17651e-12</wgt>
  <wgt id="47">3.22628e-12</wgt>
  <wgt id="48">3.21217e-12</wgt>
  <wgt id="49">3.17249e-12</wgt>
  <wgt id="50">3.16055e-12</wgt>
  <wgt id="51">3.16834e-12</wgt>
  <wgt id="52">3.19914e-12</wgt>
  <wgt id="53">3.22679e-12</wgt>
  <wgt id="54">3.20964e-12</wgt>
  <wgt id="55">3.18872e-12</wgt>
  <wgt id="56">3.17215e-12</wgt>
  <wgt id="57">3.16897e-12</wgt>
  <wgt id="58">3.18996e-12</wgt>
  <wgt id="59">3.19831e-12</wgt>
  <wgt id="60">3.16218e-12</wgt>
  <wgt id="61">3.17447e-12</wgt>
  <wgt id="62">3.18605e-12</wgt>
  <wgt id="63">3.18856e-12</wgt>
  <wgt id="64">3.18817e-12</wgt>
  <wgt id="65">3.17606e-12</wgt>
  <wgt id="66">3.19593e-12</wgt>
  <wgt id="67">3.18988e-12</wgt>
  <wgt id="68">3.19016e-12</wgt>
  <wgt id="69">3.18461e-12</wgt>
  <wgt id="70">3.17977e-12</wgt>
  <wgt id="71">3.19118e-12</wgt>
  <wgt id="72">3.1745e-12</wgt>
  <wgt id="73">3.20311e-12</wgt>
  <wgt id="74">3.20507e-12</wgt>
  <wgt id="75">3.18844e-12</wgt>
  <wgt id="76">3.21369e-12</wgt>
  <wgt id="77">3.18492e-12</wgt>
  <wgt id="78">3.18842e-12</wgt>
  <wgt id="79">3.19943e-12</wgt>
  <wgt id="80">3.16328e-12</wgt>
  <wgt id="81">3.18986e-12</wgt>
  <wgt id="82">3.19459e-12</wgt>
  <wgt id="83">3.16969e-12</wgt>
  <wgt id="84">3.17909e-12</wgt>
  <wgt id="85">3.17737e-12</wgt>
  <wgt id="86">3.20561e-12</wgt>
  <wgt id="87">3.15913e-12</wgt>
  <wgt id="88">3.20152e-12</wgt>
  <wgt id="89">3.19798e-12</wgt>
  <wgt id="90">3.20323e-12</wgt>
  <wgt id="91">3.19549e-12</wgt>
  <wgt id="92">3.20113e-12</wgt>
  <wgt id="93">3.19498e-12</wgt>
  <wgt id="94">3.18156e-12</wgt>
  <wgt id="95">3.20219e-12</wgt>
  <wgt id="96">3.20038e-12</wgt>
  <wgt id="97">3.17755e-12</wgt>
  <wgt id="98">3.19116e-12</wgt>
  <wgt id="99">3.18741e-12</wgt>
  <wgt id="100">3.19862e-12</wgt>
  <wgt id="101">3.18615e-12</wgt>
  <wgt id="102">3.18469e-12</wgt>
  <wgt id="103">3.20362e-12</wgt>
  <wgt id="104">3.18495e-12</wgt>
  <wgt id="105">3.19926e-12</wgt>
  <wgt id="106">3.18227e-12</wgt>
  <wgt id="107">3.21149e-12</wgt>
  <wgt id="108">3.18477e-12</wgt>
  <wgt id="109">3.19354e-12</wgt>
  <wgt id="110">3.19024e-12</wgt>
  <wgt id="111">3.19036e-12</wgt>
  <wgt id="112">3.23467e-12</wgt>
  <wgt id="113">4.60641e-12</wgt>
  <wgt id="114">4.25493e-12</wgt>
  <wgt id="115">4.17438e-12</wgt>
  <wgt id="116">5.75913e-12</wgt>
  <wgt id="117">3.51312e-12</wgt>
  <wgt id="118">3.52621e-12</wgt>
  <wgt id="119">3.50562e-12</wgt>
  <wgt id="120">3.51318e-12</wgt>
  <wgt id="121">3.51305e-12</wgt>
  <wgt id="122">3.50763e-12</wgt>
  <wgt id="123">3.52073e-12</wgt>
  <wgt id="124">3.50848e-12</wgt>
  <wgt id="125">3.51613e-12</wgt>
  <wgt id="126">3.51813e-12</wgt>
  <wgt id="127">3.50978e-12</wgt>
  <wgt id="128">3.52379e-12</wgt>
  <wgt id="129">3.50249e-12</wgt>
  <wgt id="130">3.53027e-12</wgt>
  <wgt id="131">3.4953e-12</wgt>
  <wgt id="132">3.41532e-12</wgt>
  <wgt id="133">3.62968e-12</wgt>
  <wgt id="134">3.47536e-12</wgt>
  <wgt id="135">3.54277e-12</wgt>
  <wgt id="136">3.56761e-12</wgt>
  <wgt id="137">3.44768e-12</wgt>
  <wgt id="138">3.67466e-12</wgt>
  <wgt id="139">3.36001e-12</wgt>
  <wgt id="140">3.49671e-12</wgt>
  <wgt id="141">3.52547e-12</wgt>
  <wgt id="142">3.51217e-12</wgt>
  <wgt id="143">3.52431e-12</wgt>
  <wgt id="144">3.36454e-12</wgt>
  <wgt id="145">3.65788e-12</wgt>
  <wgt id="146">3.56092e-12</wgt>
  <wgt id="147">3.47392e-12</wgt>
  <wgt id="148">3.5261e-12</wgt>
  <wgt id="149">3.51219e-12</wgt>
  <wgt id="150">3.54266e-12</wgt>
  <wgt id="151">3.49925e-12</wgt>
  <wgt id="152">3.51402e-12</wgt>
  <wgt id="153">3.51279e-12</wgt>
  <wgt id="154">3.5201e-12</wgt>
  <wgt id="155">3.49775e-12</wgt>
  <wgt id="156">3.63523e-12</wgt>
  <wgt id="157">3.4024e-12</wgt>
  <wgt id="158">4.20797e-12</wgt>
  <wgt id="159">4.22596e-12</wgt>
  <wgt id="160">4.19348e-12</wgt>
  <wgt id="161">4.19727e-12</wgt>
  <wgt id="162">4.21994e-12</wgt>
  <wgt id="163">4.20319e-12</wgt>
  <wgt id="164">4.21503e-12</wgt>
  <wgt id="165">4.20951e-12</wgt>
  <wgt id="166">4.20679e-12</wgt>
  <wgt id="167">4.20502e-12</wgt>
  <wgt id="168">4.21206e-12</wgt>
  <wgt id="169">4.19077e-12</wgt>
  <wgt id="170">4.21866e-12</wgt>
  <wgt id="171">4.20494e-12</wgt>
  <wgt id="172">4.21225e-12</wgt>
  <wgt id="173">4.19995e-12</wgt>
  <wgt id="174">4.21075e-12</wgt>
  <wgt id="175">4.08481e-12</wgt>
  <wgt id="176">4.36947e-12</wgt>
  <wgt id="177">4.22734e-12</wgt>
  <wgt id="178">4.1904e-12</wgt>
  <wgt id="179">4.42496e-12</wgt>
  <wgt id="180">3.87407e-12</wgt>
  <wgt id="181">4.06599e-12</wgt>
  <wgt id="182">4.30277e-12</wgt>
  <wgt id="183">4.12186e-12</wgt>
  <wgt id="184">4.25076e-12</wgt>
  <wgt id="185">4.16033e-12</wgt>
  <wgt id="186">4.26546e-12</wgt>
  <wgt id="187">4.15981e-12</wgt>
  <wgt id="188">4.29285e-12</wgt>
  <wgt id="189">4.17456e-12</wgt>
  <wgt id="190">4.22156e-12</wgt>
  <wgt id="191">4.22327e-12</wgt>
  <wgt id="192">4.19891e-12</wgt>
  <wgt id="193">4.27951e-12</wgt>
  <wgt id="194">4.17195e-12</wgt>
  <wgt id="195">4.05273e-12</wgt>
  <wgt id="196">4.4612e-12</wgt>
  <wgt id="197">4.23074e-12</wgt>
  <wgt id="198">4.20248e-12</wgt>
  <wgt id="199">4.20797e-12</wgt>
  <wgt id="200">4.24929e-12</wgt>
  <wgt id="201">4.23532e-12</wgt>
  <wgt id="202">4.22173e-12</wgt>
  <wgt id="203">4.20236e-12</wgt>
  <wgt id="204">4.19253e-12</wgt>
  <wgt id="205">4.18443e-12</wgt>
  <wgt id="206">4.11792e-12</wgt>
  <wgt id="207">4.14256e-12</wgt>
  <wgt id="208">4.09339e-12</wgt>
  <wgt id="209">4.13029e-12</wgt>
  <wgt id="210">4.1089e-12</wgt>
  <wgt id="211">4.11647e-12</wgt>
  <wgt id="212">4.11901e-12</wgt>
  <wgt id="213">4.11749e-12</wgt>
  <wgt id="214">4.1184e-12</wgt>
  <wgt id="215">4.12099e-12</wgt>
  <wgt id="216">4.11572e-12</wgt>
  <wgt id="217">4.12722e-12</wgt>
  <wgt id="218">4.1106e-12</wgt>
  <wgt id="219">4.11271e-12</wgt>
  <wgt id="220">4.12104e-12</wgt>
  <wgt id="221">4.11957e-12</wgt>
  <wgt id="222">4.11294e-12</wgt>
  <wgt id="223">3.88116e-12</wgt>
  <wgt id="224">4.33511e-12</wgt>
  <wgt id="225">4.06649e-12</wgt>
  <wgt id="226">4.18334e-12</wgt>
  <wgt id="227">4.07807e-12</wgt>
  <wgt id="228">4.1354e-12</wgt>
  <wgt id="229">4.05827e-12</wgt>
  <wgt id="230">4.14748e-12</wgt>
  <wgt id="231">4.25981e-12</wgt>
  <wgt id="232">4.00193e-12</wgt>
  <wgt id="233">4.09139e-12</wgt>
  <wgt id="234">4.16234e-12</wgt>
  <wgt id="235">3.94322e-12</wgt>
  <wgt id="236">4.26045e-12</wgt>
  <wgt id="237">4.0164e-12</wgt>
  <wgt id="238">4.15167e-12</wgt>
  <wgt id="239">4.07702e-12</wgt>
  <wgt id="240">4.19122e-12</wgt>
  <wgt id="241">4.06684e-12</wgt>
  <wgt id="242">4.17814e-12</wgt>
  <wgt id="243">4.19148e-12</wgt>
  <wgt id="244">4.1173e-12</wgt>
  <wgt id="245">4.11637e-12</wgt>
  <wgt id="246">4.1405e-12</wgt>
  <wgt id="247">4.11792e-12</wgt>
  <wgt id="248">4.16271e-12</wgt>
  <wgt id="249">4.14747e-12</wgt>
  <wgt id="250">4.1312e-12</wgt>
  <wgt id="251">4.10957e-12</wgt>
  <wgt id="252">4.09829e-12</wgt>
  <wgt id="253">4.09072e-12</wgt>
  <wgt id="254">3.96723e-12</wgt>
  <wgt id="255">3.97066e-12</wgt>
  <wgt id="256">3.96338e-12</wgt>
  <wgt id="257">3.97034e-12</wgt>
  <wgt id="258">3.96497e-12</wgt>
  <wgt id="259">3.99385e-12</wgt>
  <wgt id="260">3.94158e-12</wgt>
  <wgt id="261">3.97361e-12</wgt>
  <wgt id="262">3.95974e-12</wgt>
  <wgt id="263">3.96424e-12</wgt>
  <wgt id="264">3.97066e-12</wgt>
  <wgt id="265">3.9624e-12</wgt>
  <wgt id="266">3.97693e-12</wgt>
  <wgt id="267">3.96864e-12</wgt>
  <wgt id="268">3.96535e-12</wgt>
  <wgt id="269">3.97956e-12</wgt>
  <wgt id="270">3.95883e-12</wgt>
  <wgt id="271">3.95621e-12</wgt>
  <wgt id="272">3.97957e-12</wgt>
  <wgt id="273">3.95668e-12</wgt>
  <wgt id="274">3.97523e-12</wgt>
  <wgt id="275">3.94264e-12</wgt>
  <wgt id="276">3.99282e-12</wgt>
  <wgt id="277">3.94411e-12</wgt>
  <wgt id="278">3.98835e-12</wgt>
  <wgt id="279">3.89293e-12</wgt>
  <wgt id="280">4.06081e-12</wgt>
  <wgt id="281">3.9481e-12</wgt>
  <wgt id="282">3.97321e-12</wgt>
  <wgt id="283">3.83568e-12</wgt>
  <wgt id="284">4.13168e-12</wgt>
  <wgt id="285">3.75033e-12</wgt>
  <wgt id="286">4.15108e-12</wgt>
  <wgt id="287">3.98152e-12</wgt>
  <wgt id="288">3.94899e-12</wgt>
  <wgt id="289">3.99991e-12</wgt>
  <wgt id="290">3.89547e-12</wgt>
  <wgt id="291">3.95171e-12</wgt>
  <wgt id="292">3.96721e-12</wgt>
  <wgt id="293">3.93184e-12</wgt>
  <wgt id="294">4.00249e-12</wgt>
  <wgt id="295">3.88152e-12</wgt>
  <wgt id="296">4.07231e-12</wgt>
  <wgt id="297">3.95674e-12</wgt>
  <wgt id="298">3.9879e-12</wgt>
  <wgt id="299">3.95357e-12</wgt>
  <wgt id="300">4.00362e-12</wgt>
  <wgt id="301">3.88395e-12</wgt>
  <wgt id="302">4.15832e-12</wgt>
  <wgt id="303">3.9219e-12</wgt>
  <wgt id="304">3.99256e-12</wgt>
  <wgt id="305">3.92847e-12</wgt>
  <wgt id="306">3.93215e-12</wgt>
  <wgt id="307">3.9246e-12</wgt>
  <wgt id="308">3.93192e-12</wgt>
  <wgt id="309">3.92627e-12</wgt>
  <wgt id="310">3.95566e-12</wgt>
  <wgt id="311">3.90356e-12</wgt>
  <wgt id="312">3.93429e-12</wgt>
  <wgt id="313">3.9224e-12</wgt>
  <wgt id="314">3.92544e-12</wgt>
  <wgt id="315">3.93148e-12</wgt>
  <wgt id="316">3.92369e-12</wgt>
  <wgt id="317">3.93912e-12</wgt>
  <wgt id="318">3.93155e-12</wgt>
  <wgt id="319">3.92328e-12</wgt>
  <wgt id="320">3.94175e-12</wgt>
  <wgt id="321">3.92119e-12</wgt>
  <wgt id="322">3.91651e-12</wgt>
  <wgt id="323">3.94254e-12</wgt>
  <wgt id="324">3.92084e-12</wgt>
  <wgt id="325">3.93518e-12</wgt>
  <wgt id="326">3.90824e-12</wgt>
  <wgt id="327">3.95457e-12</wgt>
  <wgt id="328">3.90812e-12</wgt>
  <wgt id="329">3.93979e-12</wgt>
  <wgt id="330">4.04139e-12</wgt>
  <wgt id="331">3.82143e-12</wgt>
  <wgt id="332">3.91271e-12</wgt>
  <wgt id="333">3.93235e-12</wgt>
  <wgt id="334">3.82871e-12</wgt>
  <wgt id="335">4.05399e-12</wgt>
  <wgt id="336">3.77512e-12</wgt>
  <wgt id="337">4.11909e-12</wgt>
  <wgt id="338">3.97792e-12</wgt>
  <wgt id="339">3.88313e-12</wgt>
  <wgt id="340">3.95785e-12</wgt>
  <wgt id="341">3.85661e-12</wgt>
  <wgt id="342">3.91754e-12</wgt>
  <wgt id="343">3.92036e-12</wgt>
  <wgt id="344">3.89763e-12</wgt>
  <wgt id="345">3.96446e-12</wgt>
  <wgt id="346">3.84127e-12</wgt>
  <wgt id="347">4.02862e-12</wgt>
  <wgt id="348">3.9187e-12</wgt>
  <wgt id="349">3.94719e-12</wgt>
  <wgt id="350">3.91162e-12</wgt>
  <wgt id="351">3.97145e-12</wgt>
  <wgt id="352">3.84431e-12</wgt>
  <wgt id="353">4.11412e-12</wgt>
  <wgt id="354">3.86451e-12</wgt>
  <wgt id="355">3.96638e-12</wgt>
  <wgt id="356">3.96723e-12</wgt>
  <wgt id="357">3.93064e-12</wgt>
  <wgt id="358">3.92847e-12</wgt>
  <wgt id="359">3.96554e-12</wgt>
  <wgt id="360">4.03949e-12</wgt>
  <wgt id="361">3.98865e-12</wgt>
  <wgt id="362">4.06981e-12</wgt>
  <wgt id="363">4.05929e-12</wgt>
  <wgt id="364">4.03868e-12</wgt>
  <wgt id="365">4.02298e-12</wgt>
  <wgt id="366">4.00719e-12</wgt>
  <wgt id="367">3.97709e-12</wgt>
  <wgt id="368">3.95777e-12</wgt>
  <wgt id="369">3.93691e-12</wgt>
  <wgt id="370">3.98865e-12</wgt>
  <wgt id="371">4.00509e-12</wgt>
  <wgt id="372">3.99575e-12</wgt>
  <wgt id="373">3.98279e-12</wgt>
  <wgt id="374">3.98824e-12</wgt>
  <wgt id="375">4.58482e-12</wgt>
  <wgt id="376">4.58508e-12</wgt>
  <wgt id="377">4.58442e-12</wgt>
  <wgt id="378">4.60241e-12</wgt>
  <wgt id="379">4.56737e-12</wgt>
  <wgt id="380">4.59801e-12</wgt>
  <wgt id="381">4.57955e-12</wgt>
  <wgt id="382">4.60602e-12</wgt>
  <wgt id="383">4.56387e-12</wgt>
  <wgt id="384">4.58777e-12</wgt>
  <wgt id="385">4.58199e-12</wgt>
  <wgt id="386">4.59944e-12</wgt>
  <wgt id="387">4.57855e-12</wgt>
  <wgt id="388">4.58088e-12</wgt>
  <wgt id="389">4.58967e-12</wgt>
  <wgt id="390">4.59515e-12</wgt>
  <wgt id="391">4.57392e-12</wgt>
  <wgt id="392">4.54318e-12</wgt>
  <wgt id="393">4.60834e-12</wgt>
  <wgt id="394">4.58785e-12</wgt>
  <wgt id="395">4.58045e-12</wgt>
  <wgt id="396">4.59329e-12</wgt>
  <wgt id="397">4.57884e-12</wgt>
  <wgt id="398">4.57704e-12</wgt>
  <wgt id="399">4.59225e-12</wgt>
  <wgt id="400">4.57765e-12</wgt>
  <wgt id="401">4.60063e-12</wgt>
  <wgt id="402">4.54136e-12</wgt>
  <wgt id="403">4.61303e-12</wgt>
  <wgt id="404">4.72124e-12</wgt>
  <wgt id="405">4.2611e-12</wgt>
  <wgt id="406">4.4864e-12</wgt>
  <wgt id="407">4.80384e-12</wgt>
  <wgt id="408">4.63618e-12</wgt>
  <wgt id="409">4.49022e-12</wgt>
  <wgt id="410">4.42574e-12</wgt>
  <wgt id="411">4.6616e-12</wgt>
  <wgt id="412">4.57376e-12</wgt>
  <wgt id="413">4.60088e-12</wgt>
  <wgt id="414">4.52148e-12</wgt>
  <wgt id="415">4.63404e-12</wgt>
  <wgt id="416">4.74679e-12</wgt>
  <wgt id="417">4.3629e-12</wgt>
  <wgt id="418">4.59453e-12</wgt>
  <wgt id="419">4.53259e-12</wgt>
  <wgt id="420">4.70237e-12</wgt>
  <wgt id="421">4.50613e-12</wgt>
  <wgt id="422">4.55443e-12</wgt>
  <wgt id="423">4.59894e-12</wgt>
  <wgt id="424">4.72788e-12</wgt>
  <wgt id="425">4.48732e-12</wgt>
  <wgt id="426">4.58482e-12</wgt>
  <wgt id="427">4.48785e-12</wgt>
  <wgt id="428">4.80467e-12</wgt>
  <wgt id="429">4.65012e-12</wgt>
  <wgt id="430">4.80754e-12</wgt>
  <wgt id="431">4.77541e-12</wgt>
  <wgt id="432">4.74647e-12</wgt>
  <wgt id="433">4.71802e-12</wgt>
  <wgt id="434">4.68145e-12</wgt>
  <wgt id="435">4.61091e-12</wgt>
  <wgt id="436">4.57538e-12</wgt>
  <wgt id="437">4.54059e-12</wgt>
  <wgt id="438">4.65012e-12</wgt>
  <wgt id="439">4.66419e-12</wgt>
  <wgt id="440">4.6553e-12</wgt>
  <wgt id="441">4.64651e-12</wgt>
  <wgt id="442">4.64372e-12</wgt>
  <wgt id="443">4.15823e-12</wgt>
  <wgt id="444">4.2045e-12</wgt>
  <wgt id="445">4.2063e-12</wgt>
  <wgt id="446">4.12731e-12</wgt>
  <wgt id="447">4.15929e-12</wgt>
  <wgt id="448">4.05692e-12</wgt>
  <wgt id="449">4.24968e-12</wgt>
  <wgt id="450">4.21716e-12</wgt>
  <wgt id="451">4.14596e-12</wgt>
  <wgt id="452">4.25099e-12</wgt>
  <wgt id="453">4.21503e-12</wgt>
  <wgt id="454">3.93482e-12</wgt>
  <wgt id="455">4.19594e-12</wgt>
  <wgt id="456">4.2415e-12</wgt>
  <wgt id="457">4.17213e-12</wgt>
  <wgt id="458">4.23602e-12</wgt>
  <wgt id="459">4.19718e-12</wgt>
  <wgt id="460">4.24923e-12</wgt>
  <wgt id="461">4.05372e-12</wgt>
  <wgt id="462">4.12763e-12</wgt>
  <wgt id="463">4.08857e-12</wgt>
  <wgt id="464">4.13736e-12</wgt>
  <wgt id="465">4.20405e-12</wgt>
  <wgt id="466">4.05012e-12</wgt>
  <wgt id="467">4.12566e-12</wgt>
  <wgt id="468">4.15584e-12</wgt>
  <wgt id="469">4.1467e-12</wgt>
  <wgt id="470">4.08918e-12</wgt>
  <wgt id="471">4.10273e-12</wgt>
  <wgt id="472">4.18931e-12</wgt>
  <wgt id="473">4.01673e-12</wgt>
  <wgt id="474">3.0282e-12</wgt>
  <wgt id="475">3.02444e-12</wgt>
  <wgt id="476">3.01689e-12</wgt>
  <wgt id="477">3.08991e-12</wgt>
  <wgt id="478">3.07721e-12</wgt>
  <wgt id="479">2.86357e-12</wgt>
  <wgt id="480">3.20036e-12</wgt>
  <wgt id="481">3.05365e-12</wgt>
  <wgt id="482">3.04511e-12</wgt>
  <wgt id="483">3.06566e-12</wgt>
  <wgt id="484">3.16128e-12</wgt>
  <wgt id="485">2.75344e-12</wgt>
  <wgt id="486">3.18832e-12</wgt>
  <wgt id="487">2.93141e-12</wgt>
  <wgt id="488">3.05153e-12</wgt>
  <wgt id="489">2.69761e-12</wgt>
  <wgt id="490">2.98832e-12</wgt>
  <wgt id="491">2.98512e-12</wgt>
  <wgt id="492">2.98033e-12</wgt>
  <wgt id="493">2.77825e-12</wgt>
  <wgt id="494">2.78824e-12</wgt>
  <wgt id="495">3.04427e-12</wgt>
  <wgt id="496">2.85793e-12</wgt>
  <wgt id="497">2.81805e-12</wgt>
  <wgt id="498">3.11691e-12</wgt>
  <wgt id="499">3.06411e-12</wgt>
  <wgt id="500">3.00673e-12</wgt>
  <wgt id="501">3.15085e-12</wgt>
  <wgt id="502">3.17763e-12</wgt>
  <wgt id="503">2.96735e-12</wgt>
  <wgt id="504">3.13654e-12</wgt>
  <wgt id="505">3.16211e-12</wgt>
  <wgt id="506">2.79307e-12</wgt>
  <wgt id="507">2.95675e-12</wgt>
  <wgt id="508">3.20182e-12</wgt>
  <wgt id="509">2.9167e-12</wgt>
  <wgt id="510">3.04421e-12</wgt>
  <wgt id="511">2.85965e-12</wgt>
  <wgt id="512">3.25682e-12</wgt>
  <wgt id="513">3.16854e-12</wgt>
  <wgt id="514">3.22273e-12</wgt>
  <wgt id="515">3.13301e-12</wgt>
  <wgt id="516">3.37501e-12</wgt>
  <wgt id="517">3.10382e-12</wgt>
  <wgt id="518">3.15335e-12</wgt>
  <wgt id="519">2.90341e-12</wgt>
  <wgt id="520">3.06682e-12</wgt>
  <wgt id="521">2.93948e-12</wgt>
  <wgt id="522">3.14742e-12</wgt>
  <wgt id="523">2.86662e-12</wgt>
  <wgt id="524">3.10743e-12</wgt>
  <wgt id="525">2.94629e-12</wgt>
  <wgt id="526">3.20441e-12</wgt>
  <wgt id="527">2.98404e-12</wgt>
  <wgt id="528">3.01073e-12</wgt>
  <wgt id="529">2.86946e-12</wgt>
  <wgt id="530">3.19765e-12</wgt>
  <wgt id="531">2.89077e-12</wgt>
  <wgt id="532">3.29406e-12</wgt>
  <wgt id="533">3.03431e-12</wgt>
  <wgt id="534">2.89122e-12</wgt>
  <wgt id="535">3.08483e-12</wgt>
  <wgt id="536">3.14585e-12</wgt>
  <wgt id="537">2.85497e-12</wgt>
  <wgt id="538">3.00048e-12</wgt>
  <wgt id="539">2.95459e-12</wgt>
  <wgt id="540">3.20832e-12</wgt>
  <wgt id="541">3.01491e-12</wgt>
  <wgt id="542">2.953e-12</wgt>
  <wgt id="543">2.90818e-12</wgt>
  <wgt id="544">3.04829e-12</wgt>
  <wgt id="545">2.8472e-12</wgt>
  <wgt id="546">2.76648e-12</wgt>
  <wgt id="547">2.91338e-12</wgt>
  <wgt id="548">2.93224e-12</wgt>
  <wgt id="549">2.97e-12</wgt>
  <wgt id="550">2.92079e-12</wgt>
  <wgt id="551">3.03219e-12</wgt>
  <wgt id="552">2.77843e-12</wgt>
  <wgt id="553">2.81598e-12</wgt>
  <wgt id="554">3.17534e-12</wgt>
  <wgt id="555">3.09974e-12</wgt>
  <wgt id="556">2.98832e-12</wgt>
  <wgt id="557">3.08749e-12</wgt>
  <wgt id="558">3.00335e-12</wgt>
  <wgt id="559">3.06175e-12</wgt>
  <wgt id="560">3.35468e-12</wgt>
  <wgt id="561">3.12778e-12</wgt>
  <wgt id="562">3.14996e-12</wgt>
  <wgt id="563">3.35814e-12</wgt>
  <wgt id="564">3.22672e-12</wgt>
  <wgt id="565">3.16938e-12</wgt>
  <wgt id="566">2.90749e-12</wgt>
  <wgt id="567">3.03447e-12</wgt>
  <wgt id="568">2.90111e-12</wgt>
  <wgt id="569">3.06677e-12</wgt>
  <wgt id="570">3.0582e-12</wgt>
  <wgt id="571">3.35759e-12</wgt>
  <wgt id="572">2.91493e-12</wgt>
  <wgt id="573">2.94355e-12</wgt>
  <wgt id="574">2.96453e-12</wgt>
  <wgt id="575">3.34441e-12</wgt>
  <wgt id="576">3.68402e-12</wgt>
  <wgt id="577">3.48513e-12</wgt>
  <wgt id="578">3.37393e-12</wgt>
  <wgt id="579">3.48202e-12</wgt>
  <wgt id="580">3.5742e-12</wgt>
  <wgt id="581">3.7048e-12</wgt>
  <wgt id="582">3.60671e-12</wgt>
  <wgt id="583">3.42609e-12</wgt>
  <wgt id="584">3.30534e-12</wgt>
  <wgt id="585">3.07227e-12</wgt>
  <wgt id="586">3.12998e-12</wgt>
  <wgt id="587">3.4143e-12</wgt>
  <wgt id="588">3.71865e-12</wgt>
  <wgt id="589">3.6959e-12</wgt>
  <wgt id="590">3.32005e-12</wgt>
  <wgt id="591">3.43907e-12</wgt>
  <wgt id="592">3.1256e-12</wgt>
  <wgt id="593">3.22869e-12</wgt>
  <wgt id="594">3.24261e-12</wgt>
  <wgt id="595">3.54897e-12</wgt>
  <wgt id="596">3.98644e-12</wgt>
  <wgt id="597">3.4076e-12</wgt>
  <wgt id="598">3.42431e-12</wgt>
  <wgt id="599">3.58959e-12</wgt>
  <wgt id="600">3.62892e-12</wgt>
  <wgt id="601">3.19801e-12</wgt>
  <wgt id="602">3.22216e-12</wgt>
  <wgt id="603">3.10492e-12</wgt>
  <wgt id="604">3.44424e-12</wgt>
  <wgt id="605">3.35778e-12</wgt>
  <wgt id="606">3.40845e-12</wgt>
  <wgt id="607">3.52918e-12</wgt>
  <wgt id="608">3.47996e-12</wgt>
  <wgt id="609">3.31303e-12</wgt>
  <wgt id="610">3.17943e-12</wgt>
  <wgt id="611">3.15972e-12</wgt>
  <wgt id="612">3.4266e-12</wgt>
  <wgt id="613">3.17012e-12</wgt>
  <wgt id="614">3.31254e-12</wgt>
  <wgt id="615">3.42704e-12</wgt>
  <wgt id="616">3.15907e-12</wgt>
  <wgt id="617">3.4858e-12</wgt>
  <wgt id="618">3.6963e-12</wgt>
  <wgt id="619">3.27587e-12</wgt>
  <wgt id="620">3.44778e-12</wgt>
  <wgt id="621">3.29446e-12</wgt>
  <wgt id="622">3.4143e-12</wgt>
  <wgt id="623">3.34223e-12</wgt>
  <wgt id="624">3.36109e-12</wgt>
  <wgt id="625">3.17097e-12</wgt>
  <wgt id="626">2.91516e-12</wgt>
  <wgt id="627">2.99233e-12</wgt>
  <wgt id="628">3.31351e-12</wgt>
  <wgt id="629">3.46973e-12</wgt>
  <wgt id="630">3.23725e-12</wgt>
  <wgt id="631">3.44949e-12</wgt>
  <wgt id="632">3.03438e-12</wgt>
  <wgt id="633">3.32365e-12</wgt>
  <wgt id="634">3.17796e-12</wgt>
  <wgt id="635">3.0703e-12</wgt>
  <wgt id="636">3.37604e-12</wgt>
  <wgt id="637">3.32115e-12</wgt>
  <wgt id="638">3.17581e-12</wgt>
  <wgt id="639">3.17683e-12</wgt>
  <wgt id="640">3.24291e-12</wgt>
  <wgt id="641">3.52591e-12</wgt>
  <wgt id="642">2.98004e-12</wgt>
  <wgt id="643">3.24191e-12</wgt>
  <wgt id="644">2.99231e-12</wgt>
  <wgt id="645">3.33642e-12</wgt>
  <wgt id="646">3.01314e-12</wgt>
  <wgt id="647">3.4094e-12</wgt>
  <wgt id="648">3.53008e-12</wgt>
  <wgt id="649">3.36025e-12</wgt>
  <wgt id="650">3.19371e-12</wgt>
  <wgt id="651">3.59692e-12</wgt>
  <wgt id="652">3.18213e-12</wgt>
  <wgt id="653">3.19753e-12</wgt>
  <wgt id="654">3.40454e-12</wgt>
  <wgt id="655">3.18314e-12</wgt>
  <wgt id="656">3.36203e-12</wgt>
  <wgt id="657">3.69321e-12</wgt>
  <wgt id="658">3.33195e-12</wgt>
  <wgt id="659">3.19964e-12</wgt>
  <wgt id="660">3.20368e-12</wgt>
  <wgt id="661">3.24623e-12</wgt>
  <wgt id="662">3.2888e-12</wgt>
  <wgt id="663">3.41835e-12</wgt>
  <wgt id="664">3.40957e-12</wgt>
  <wgt id="665">3.29387e-12</wgt>
  <wgt id="666">3.25516e-12</wgt>
  <wgt id="667">3.5406e-12</wgt>
  <wgt id="668">3.28604e-12</wgt>
  <wgt id="669">3.31832e-12</wgt>
  <wgt id="670">3.52591e-12</wgt>
  <wgt id="671">3.39605e-12</wgt>
  <wgt id="672">3.28335e-12</wgt>
  <wgt id="673">3.59399e-12</wgt>
  <wgt id="674">3.22967e-12</wgt>
  <wgt id="675">3.20104e-12</wgt>
  <wgt id="676">4.35307e-12</wgt>
  <wgt id="677">4.39611e-12</wgt>
  <wgt id="678">4.81672e-12</wgt>
  <wgt id="679">4.5459e-12</wgt>
  <wgt id="680">4.4008e-12</wgt>
  <wgt id="681">4.22482e-12</wgt>
  <wgt id="682">4.59238e-12</wgt>
  <wgt id="683">3.94529e-12</wgt>
  <wgt id="684">4.61141e-12</wgt>
  <wgt id="685">4.36812e-12</wgt>
  <wgt id="686">4.48906e-12</wgt>
  <wgt id="687">4.47418e-12</wgt>
  <wgt id="688">4.21229e-12</wgt>
  <wgt id="689">4.56471e-12</wgt>
  <wgt id="690">4.46661e-12</wgt>
  <wgt id="691">4.45583e-12</wgt>
  <wgt id="692">4.23106e-12</wgt>
  <wgt id="693">5.9034e-12</wgt>
  <wgt id="694">4.83345e-12</wgt>
  <wgt id="695">4.03807e-12</wgt>
  <wgt id="696">4.14804e-12</wgt>
  <wgt id="697">3.87491e-12</wgt>
  <wgt id="698">3.5196e-12</wgt>
  <wgt id="699">3.64472e-12</wgt>
  <wgt id="700">3.84135e-12</wgt>
  <wgt id="701">4.3468e-12</wgt>
  <wgt id="702">4.15372e-12</wgt>
  <wgt id="703">5.50161e-12</wgt>
  <wgt id="704">4.92971e-12</wgt>
  <wgt id="705">4.92738e-12</wgt>
  <wgt id="706">4.03443e-12</wgt>
  <wgt id="707">4.04929e-12</wgt>
  <wgt id="708">4.11565e-12</wgt>
  <wgt id="709">4.19269e-12</wgt>
  <wgt id="710">3.55507e-12</wgt>
  <wgt id="711">4.70648e-12</wgt>
  <wgt id="712">4.05415e-12</wgt>
  <wgt id="713">4.69792e-12</wgt>
  <wgt id="714">3.85523e-12</wgt>
  <wgt id="715">4.12378e-12</wgt>
  <wgt id="716">4.17258e-12</wgt>
  <wgt id="717">3.72129e-12</wgt>
  <wgt id="718">4.46445e-12</wgt>
  <wgt id="719">3.97093e-12</wgt>
  <wgt id="720">4.50588e-12</wgt>
  <wgt id="721">3.68266e-12</wgt>
  <wgt id="722">3.33877e-12</wgt>
  <wgt id="723">4.95946e-12</wgt>
  <wgt id="724">4.75856e-12</wgt>
  <wgt id="725">4.55991e-12</wgt>
  <wgt id="726">4.32061e-12</wgt>
  <wgt id="727">4.38815e-12</wgt>
  <wgt id="728">4.29168e-12</wgt>
  <wgt id="729">3.91486e-12</wgt>
  <wgt id="730">4.86655e-12</wgt>
  <wgt id="731">4.28585e-12</wgt>
  <wgt id="732">5.12392e-12</wgt>
  <wgt id="733">4.00641e-12</wgt>
  <wgt id="734">4.51575e-12</wgt>
  <wgt id="735">4.33743e-12</wgt>
  <wgt id="736">3.99393e-12</wgt>
  <wgt id="737">3.95384e-12</wgt>
  <wgt id="738">4.12926e-12</wgt>
  <wgt id="739">4.62167e-12</wgt>
  <wgt id="740">5.23231e-12</wgt>
  <wgt id="741">4.64041e-12</wgt>
  <wgt id="742">4.11694e-12</wgt>
  <wgt id="743">3.94421e-12</wgt>
  <wgt id="744">4.25924e-12</wgt>
  <wgt id="745">4.81191e-12</wgt>
  <wgt id="746">4.95263e-12</wgt>
  <wgt id="747">3.56299e-12</wgt>
  <wgt id="748">4.17448e-12</wgt>
  <wgt id="749">4.53786e-12</wgt>
  <wgt id="750">4.73366e-12</wgt>
  <wgt id="751">4.38599e-12</wgt>
  <wgt id="752">3.89056e-12</wgt>
  <wgt id="753">3.85619e-12</wgt>
  <wgt id="754">4.56022e-12</wgt>
  <wgt id="755">4.23073e-12</wgt>
  <wgt id="756">4.19816e-12</wgt>
  <wgt id="757">3.70492e-12</wgt>
  <wgt id="758">4.21774e-12</wgt>
  <wgt id="759">4.79393e-12</wgt>
  <wgt id="760">4.13096e-12</wgt>
  <wgt id="761">4.88511e-12</wgt>
  <wgt id="762">4.90849e-12</wgt>
  <wgt id="763">4.503e-12</wgt>
  <wgt id="764">4.69228e-12</wgt>
  <wgt id="765">4.42401e-12</wgt>
  <wgt id="766">4.4294e-12</wgt>
  <wgt id="767">4.45017e-12</wgt>
  <wgt id="768">3.9231e-12</wgt>
  <wgt id="769">4.57842e-12</wgt>
  <wgt id="770">4.02954e-12</wgt>
  <wgt id="771">5.41744e-12</wgt>
  <wgt id="772">4.23845e-12</wgt>
  <wgt id="773">4.39e-12</wgt>
  <wgt id="774">3.39447e-12</wgt>
  <wgt id="775">4.57439e-12</wgt>
  <wgt id="776">5.11392e-12</wgt>
  <wgt id="777">3.78323e-12</wgt>
  <wgt id="778">2.76979e-12</wgt>
  <wgt id="779">1.58263e-12</wgt>
  <wgt id="780">8.30935e-13</wgt>
  <wgt id="781">3.13772e-12</wgt>
  <wgt id="782">3.43783e-12</wgt>
  <wgt id="783">1.33916e-12</wgt>
  <wgt id="784">1.81784e-12</wgt>
  <wgt id="785">4.27104e-12</wgt>
  <wgt id="786">1.31852e-12</wgt>
  <wgt id="787">3.72185e-12</wgt>
  <wgt id="788">2.14325e-13</wgt>
  <wgt id="789">1.79851e-12</wgt>
  <wgt id="790">1.38115e-12</wgt>
  <wgt id="791">3.30742e-12</wgt>
  <wgt id="792">3.81032e-12</wgt>
  <wgt id="793">2.54108e-12</wgt>
  <wgt id="794">1.21653e-12</wgt>
  <wgt id="795">4.00036e-12</wgt>
  <wgt id="796">4.0686e-12</wgt>
  <wgt id="797">3.66638e-12</wgt>
  <wgt id="798">2.01005e-12</wgt>
  <wgt id="799">3.66052e-12</wgt>
  <wgt id="800">2.04486e-12</wgt>
  <wgt id="801">2.7859e-12</wgt>
  <wgt id="802">1.16585e-12</wgt>
  <wgt id="803">4.58311e-12</wgt>
  <wgt id="804">4.02821e-12</wgt>
  <wgt id="805">3.88354e-12</wgt>
  <wgt id="806">3.11179e-12</wgt>
  <wgt id="807">2.75306e-12</wgt>
  <wgt id="808">2.68323e-12</wgt>
  <wgt id="809">2.45616e-12</wgt>
  <wgt id="810">3.57466e-12</wgt>
  <wgt id="811">2.92425e-12</wgt>
  <wgt id="812">1.42046e-12</wgt>
  <wgt id="813">1.54797e-12</wgt>
  <wgt id="814">1.80615e-12</wgt>
  <wgt id="815">1.39704e-12</wgt>
  <wgt id="816">1.66402e-12</wgt>
  <wgt id="817">2.83398e-12</wgt>
  <wgt id="818">3.93244e-12</wgt>
  <wgt id="819">1.54347e-12</wgt>
  <wgt id="820">2.56663e-12</wgt>
  <wgt id="821">3.46795e-12</wgt>
  <wgt id="822">2.20172e-12</wgt>
  <wgt id="823">3.70441e-12</wgt>
  <wgt id="824">4.29115e-12</wgt>
  <wgt id="825">1.04423e-12</wgt>
  <wgt id="826">3.68824e-12</wgt>
  <wgt id="827">9.9928e-13</wgt>
  <wgt id="828">3.65248e-12</wgt>
  <wgt id="829">2.87792e-12</wgt>
  <wgt id="830">1.00431e-12</wgt>
  <wgt id="831">3.40745e-12</wgt>
  <wgt id="832">5.23942e-12</wgt>
  <wgt id="833">2.12067e-12</wgt>
  <wgt id="834">5.16141e-12</wgt>
  <wgt id="835">1.78969e-12</wgt>
  <wgt id="836">2.14481e-12</wgt>
  <wgt id="837">3.37151e-12</wgt>
  <wgt id="838">2.09262e-12</wgt>
  <wgt id="839">3.4201e-12</wgt>
  <wgt id="840">2.31272e-12</wgt>
  <wgt id="841">4.09668e-12</wgt>
  <wgt id="842">2.85506e-12</wgt>
  <wgt id="843">3.03923e-12</wgt>
  <wgt id="844">3.19538e-12</wgt>
  <wgt id="845">5.30416e-12</wgt>
  <wgt id="846">2.69229e-12</wgt>
  <wgt id="847">3.04858e-12</wgt>
  <wgt id="848">1.45752e-12</wgt>
  <wgt id="849">3.13805e-12</wgt>
  <wgt id="850">4.56407e-12</wgt>
  <wgt id="851">3.41574e-12</wgt>
  <wgt id="852">1.129e-12</wgt>
  <wgt id="853">3.59783e-12</wgt>
  <wgt id="854">4.12864e-12</wgt>
  <wgt id="855">3.54882e-12</wgt>
  <wgt id="856">9.82799e-13</wgt>
  <wgt id="857">2.31207e-12</wgt>
  <wgt id="858">2.6546e-12</wgt>
  <wgt id="859">2.68706e-12</wgt>
  <wgt id="860">3.73513e-12</wgt>
  <wgt id="861">2.20385e-12</wgt>
  <wgt id="862">2.89008e-12</wgt>
  <wgt id="863">3.33642e-12</wgt>
  <wgt id="864">2.8598e-12</wgt>
  <wgt id="865">4.77354e-12</wgt>
  <wgt id="866">5.27494e-12</wgt>
  <wgt id="867">2.8218e-12</wgt>
  <wgt id="868">2.97971e-12</wgt>
  <wgt id="869">1.35393e-12</wgt>
  <wgt id="870">1.77003e-12</wgt>
  <wgt id="871">1.85288e-12</wgt>
  <wgt id="872">4.29903e-12</wgt>
  <wgt id="873">2.12199e-12</wgt>
  <wgt id="874">3.17878e-12</wgt>
  <wgt id="875">2.01685e-12</wgt>
  <wgt id="876">4.06341e-12</wgt>
  <wgt id="877">3.24788e-12</wgt>
  <wgt id="878">2.20433e-12</wgt>
  <wgt id="879">4.35307e-12</wgt>
  <wgt id="880">4.39611e-12</wgt>
  <wgt id="881">4.81672e-12</wgt>
  <wgt id="882">4.5459e-12</wgt>
  <wgt id="883">4.4008e-12</wgt>
  <wgt id="884">4.22482e-12</wgt>
  <wgt id="885">4.59238e-12</wgt>
  <wgt id="886">3.94529e-12</wgt>
  <wgt id="887">4.61141e-12</wgt>
  <wgt id="888">4.36812e-12</wgt>
  <wgt id="889">4.48906e-12</wgt>
  <wgt id="890">4.47418e-12</wgt>
  <wgt id="891">4.21229e-12</wgt>
  <wgt id="892">4.56471e-12</wgt>
  <wgt id="893">4.46661e-12</wgt>
  <wgt id="894">4.45583e-12</wgt>
  <wgt id="895">4.23106e-12</wgt>
  <wgt id="896">5.9034e-12</wgt>
  <wgt id="897">4.83345e-12</wgt>
  <wgt id="898">4.03807e-12</wgt>
  <wgt id="899">4.14804e-12</wgt>
  <wgt id="900">3.87491e-12</wgt>
  <wgt id="901">3.5196e-12</wgt>
  <wgt id="902">3.64472e-12</wgt>
  <wgt id="903">3.84135e-12</wgt>
  <wgt id="904">4.3468e-12</wgt>
  <wgt id="905">4.15372e-12</wgt>
  <wgt id="906">5.50161e-12</wgt>
  <wgt id="907">4.92971e-12</wgt>
  <wgt id="908">4.92738e-12</wgt>
  <wgt id="909">4.03443e-12</wgt>
  <wgt id="910">4.04929e-12</wgt>
  <wgt id="911">4.11565e-12</wgt>
  <wgt id="912">4.19269e-12</wgt>
  <wgt id="913">3.55507e-12</wgt>
  <wgt id="914">4.70648e-12</wgt>
  <wgt id="915">4.05415e-12</wgt>
  <wgt id="916">4.69792e-12</wgt>
  <wgt id="917">3.85523e-12</wgt>
  <wgt id="918">4.12378e-12</wgt>
  <wgt id="919">4.17258e-12</wgt>
  <wgt id="920">3.72129e-12</wgt>
  <wgt id="921">4.46445e-12</wgt>
  <wgt id="922">3.97093e-12</wgt>
  <wgt id="923">4.50588e-12</wgt>
  <wgt id="924">3.68266e-12</wgt>
  <wgt id="925">3.33877e-12</wgt>
  <wgt id="926">4.95946e-12</wgt>
  <wgt id="927">4.75856e-12</wgt>
  <wgt id="928">4.55991e-12</wgt>
  <wgt id="929">4.32061e-12</wgt>
  <wgt id="930">4.38815e-12</wgt>
  <wgt id="931">4.29168e-12</wgt>
  <wgt id="932">3.91486e-12</wgt>
  <wgt id="933">4.86655e-12</wgt>
  <wgt id="934">4.28585e-12</wgt>
  <wgt id="935">5.12392e-12</wgt>
  <wgt id="936">4.00641e-12</wgt>
  <wgt id="937">4.51575e-12</wgt>
  <wgt id="938">4.33743e-12</wgt>
  <wgt id="939">3.99393e-12</wgt>
  <wgt id="940">3.95384e-12</wgt>
  <wgt id="941">4.12926e-12</wgt>
  <wgt id="942">4.62167e-12</wgt>
  <wgt id="943">5.23231e-12</wgt>
  <wgt id="944">4.64041e-12</wgt>
  <wgt id="945">4.11694e-12</wgt>
  <wgt id="946">3.94421e-12</wgt>
  <wgt id="947">4.25924e-12</wgt>
  <wgt id="948">4.81191e-12</wgt>
  <wgt id="949">4.95263e-12</wgt>
  <wgt id="950">3.56299e-12</wgt>
  <wgt id="951">4.17448e-12</wgt>
  <wgt id="952">4.53786e-12</wgt>
  <wgt id="953">4.73366e-12</wgt>
  <wgt id="954">4.38599e-12</wgt>
  <wgt id="955">3.89056e-12</wgt>
  <wgt id="956">3.85619e-12</wgt>
  <wgt id="957">4.56022e-12</wgt>
  <wgt id="958">4.23073e-12</wgt>
  <wgt id="959">4.19816e-12</wgt>
  <wgt id="960">3.70492e-12</wgt>
  <wgt id="961">4.21774e-12</wgt>
  <wgt id="962">4.79393e-12</wgt>
  <wgt id="963">4.13096e-12</wgt>
  <wgt id="964">4.88511e-12</wgt>
  <wgt id="965">4.90849e-12</wgt>
  <wgt id="966">4.503e-12</wgt>
  <wgt id="967">4.69228e-12</wgt>
  <wgt id="968">4.42401e-12</wgt>
  <wgt id="969">4.4294e-12</wgt>
  <wgt id="970">4.45017e-12</wgt>
  <wgt id="971">3.9231e-12</wgt>
  <wgt id="972">4.57842e-12</wgt>
  <wgt id="973">4.02954e-12</wgt>
  <wgt id="974">5.41744e-12</wgt>
  <wgt id="975">4.23845e-12</wgt>
  <wgt id="976">4.39e-12</wgt>
  <wgt id="977">3.39447e-12</wgt>
  <wgt id="978">4.57439e-12</wgt>
  <wgt id="979">5.11392e-12</wgt>
  <wgt id="980">4.31945e-12</wgt>
  <wgt id="981">4.46766e-12</wgt>
  <wgt id="982">4.22225e-12</wgt>
</rwgt>
</event>
<event>
 5   1  0.3028200E-11  0.2600602E+04  0.7818608E-02  0.7612813E-01
       21   -1    0    0  502  501  0.00000000000E+00  0.00000000000E+00  0.15163054525E+04  0.15163054525E+04  0.00000000000E+00 0.  1.
       21   -1    0    0  501  502 -0.00000000000E+00 -0.00000000000E+00 -0.11150670267E+04  0.11150670267E+04  0.00000000000E+00 0. -1.
       39    2    1    2    0    0  0.00000000000E+00  0.00000000000E+00  0.40123842580E+03  0.26313724791E+04  0.26006016322E+04 0.  0.
       25    1    3    3    0    0  0.32184565787E+03 -0.11160491907E+04 -0.37710666272E+03  0.12275931160E+04  0.12500000000E+03 0.  0.
       25    1    3    3    0    0 -0.32184565787E+03  0.11160491907E+04  0.77834508852E+03  0.14037793631E+04  0.12500000000E+03 0.  0.
<mgrwt>
<rscale>  0 0.26006016E+04</rscale>
<asrwt>0</asrwt>
<pdfrwt beam="1">  1       21 0.23327776E+00 0.26006016E+04</pdfrwt>
<pdfrwt beam="2">  1       21 0.17154877E+00 0.26006016E+04</pdfrwt>
<totfact> 0.56087993E+00</totfact>
</mgrwt>
<rwgt>
  <wgt id="1">3.0282e-12</wgt>
  <wgt id="2">2.61962e-12</wgt>
  <wgt id="3">3.53907e-12</wgt>
  <wgt id="4">3.0282e-12</wgt>
  <wgt id="5">2.61962e-12</wgt>
  <wgt id="6">3.53907e-12</wgt>
  <wgt id="7">3.0282e-12</wgt>
  <wgt id="8">2.61962e-12</wgt>
  <wgt id="9">3.53907e-12</wgt>
  <wgt id="10">3.16915e-12</wgt>
  <wgt id="11">3.16608e-12</wgt>
  <wgt id="12">3.1628e-12</wgt>
  <wgt id="13">3.15829e-12</wgt>
  <wgt id="14">3.18128e-12</wgt>
  <wgt id="15">3.17433e-12</wgt>
  <wgt id="16">3.16368e-12</wgt>
  <wgt id="17">3.17544e-12</wgt>
  <wgt id="18">3.16126e-12</wgt>
  <wgt id="19">3.17766e-12</wgt>
  <wgt id="20">3.15991e-12</wgt>
  <wgt id="21">3.14794e-12</wgt>
  <wgt id="22">3.15541e-12</wgt>
  <wgt id="23">3.13737e-12</wgt>
  <wgt id="24">3.15379e-12</wgt>
  <wgt id="25">3.16156e-12</wgt>
  <wgt id="26">3.18244e-12</wgt>
  <wgt id="27">3.16902e-12</wgt>
  <wgt id="28">3.15474e-12</wgt>
  <wgt id="29">3.17149e-12</wgt>
  <wgt id="30">3.16094e-12</wgt>
  <wgt id="31">3.17845e-12</wgt>
  <wgt id="32">3.16578e-12</wgt>
  <wgt id="33">3.17838e-12</wgt>
  <wgt id="34">3.15756e-12</wgt>
  <wgt id="35">3.16898e-12</wgt>
  <wgt id="36">3.1831e-12</wgt>
  <wgt id="37">3.16075e-12</wgt>
  <wgt id="38">3.15753e-12</wgt>
  <wgt id="39">3.20339e-12</wgt>
  <wgt id="40">3.17395e-12</wgt>
  <wgt id="41">3.16839e-12</wgt>
  <wgt id="42">3.17221e-12</wgt>
  <wgt id="43">3.16717e-12</wgt>
  <wgt id="44">3.1643e-12</wgt>
  <wgt id="45">3.1792e-12</wgt>
  <wgt id="46">3.17513e-12</wgt>
  <wgt id="47">3.16156e-12</wgt>
  <wgt id="48">3.16929e-12</wgt>
  <wgt id="49">3.16616e-12</wgt>
  <wgt id="50">3.18116e-12</wgt>
  <wgt id="51">3.18173e-12</wgt>
  <wgt id="52">3.17565e-12</wgt>
  <wgt id="53">3.14337e-12</wgt>
  <wgt id="54">3.16255e-12</wgt>
  <wgt id="55">3.16956e-12</wgt>
  <wgt id="56">3.18155e-12</wgt>
  <wgt id="57">3.17747e-12</wgt>
  <wgt id="58">3.14825e-12</wgt>
  <wgt id="59">3.15758e-12</wgt>
  <wgt id="60">3.16942e-12</wgt>
  <wgt id="61">3.15312e-12</wgt>
  <wgt id="62">3.16358e-12</wgt>
  <wgt id="63">3.16887e-12</wgt>
  <wgt id="64">3.17162e-12</wgt>
  <wgt id="65">3.17315e-12</wgt>
  <wgt id="66">3.1642e-12</wgt>
  <wgt id="67">3.15751e-12</wgt>
  <wgt id="68">3.16604e-12</wgt>
  <wgt id="69">3.16956e-12</wgt>
  <wgt id="70">3.16729e-12</wgt>
  <wgt id="71">3.16909e-12</wgt>
  <wgt id="72">3.16284e-12</wgt>
  <wgt id="73">3.17239e-12</wgt>
  <wgt id="74">3.17222e-12</wgt>
  <wgt id="75">3.16482e-12</wgt>
  <wgt id="76">3.17981e-12</wgt>
  <wgt id="77">3.16797e-12</wgt>
  <wgt id="78">3.16873e-12</wgt>
  <wgt id="79">3.1773e-12</wgt>
  <wgt id="80">3.15346e-12</wgt>
  <wgt id="81">3.16614e-12</wgt>
  <wgt id="82">3.16926e-12</wgt>
  <wgt id="83">3.15428e-12</wgt>
  <wgt id="84">3.16243e-12</wgt>
  <wgt id="85">3.16097e-12</wgt>
  <wgt id="86">3.17976e-12</wgt>
  <wgt id="87">3.14877e-12</wgt>
  <wgt id="88">3.17374e-12</wgt>
  <wgt id="89">3.1724e-12</wgt>
  <wgt id="90">3.17631e-12</wgt>
  <wgt id="91">3.17234e-12</wgt>
  <wgt id="92">3.17647e-12</wgt>
  <wgt id="93">3.17016e-12</wgt>
  <wgt id="94">3.16532e-12</wgt>
  <wgt id="95">3.1741e-12</wgt>
  <wgt id="96">3.17246e-12</wgt>
  <wgt id="97">3.16258e-12</wgt>
  <wgt id="98">3.17075e-12</wgt>
  <wgt id="99">3.16501e-12</wgt>
  <wgt id="100">3.17356e-12</wgt>
  <wgt id="101">3.16874e-12</wgt>
  <wgt id="102">3.16568e-12</wgt>
  <wgt id="103">3.17486e-12</wgt>
  <wgt id="104">3.16665e-12</wgt>
  <wgt id="105">3.17376e-12</wgt>
  <wgt id="106">3.16366e-12</wgt>
  <wgt id="107">3.17992e-12</wgt>
  <wgt id="108">3.16505e-12</wgt>
  <wgt id="109">3.17029e-12</wgt>
  <wgt id="110">3.16901e-12</wgt>
  <wgt id="111">3.19144e-12</wgt>
  <wgt id="112">3.17739e-12</wgt>
  <wgt id="113">4.42747e-12</wgt>
  <wgt id="114">4.48135e-12</wgt>
  <wgt id="115">4.41649e-12</wgt>
  <wgt id="116">6.42799e-12</wgt>
  <wgt id="117">3.59304e-12</wgt>
  <wgt id="118">3.60731e-12</wgt>
  <wgt id="119">3.58485e-12</wgt>
  <wgt id="120">3.59324e-12</wgt>
  <wgt id="121">3.59287e-12</wgt>
  <wgt id="122">3.58697e-12</wgt>
  <wgt id="123">3.60124e-12</wgt>
  <wgt id="124">3.58816e-12</wgt>
  <wgt id="125">3.59615e-12</wgt>
  <wgt id="126">3.60029e-12</wgt>
  <wgt id="127">3.58814e-12</wgt>
  <wgt id="128">3.60426e-12</wgt>
  <wgt id="129">3.58187e-12</wgt>
  <wgt id="130">3.61415e-12</wgt>
  <wgt id="131">3.57142e-12</wgt>
  <wgt id="132">3.49436e-12</wgt>
  <wgt id="133">3.71052e-12</wgt>
  <wgt id="134">3.55174e-12</wgt>
  <wgt id="135">3.62549e-12</wgt>
  <wgt id="136">3.64396e-12</wgt>
  <wgt id="137">3.53149e-12</wgt>
  <wgt id="138">3.74613e-12</wgt>
  <wgt id="139">3.44614e-12</wgt>
  <wgt id="140">3.57096e-12</wgt>
  <wgt id="141">3.61026e-12</wgt>
  <wgt id="142">3.59328e-12</wgt>
  <wgt id="143">3.59977e-12</wgt>
  <wgt id="144">3.46817e-12</wgt>
  <wgt id="145">3.71126e-12</wgt>
  <wgt id="146">3.63318e-12</wgt>
  <wgt id="147">3.5608e-12</wgt>
  <wgt id="148">3.6055e-12</wgt>
  <wgt id="149">3.59222e-12</wgt>
  <wgt id="150">3.6255e-12</wgt>
  <wgt id="151">3.57794e-12</wgt>
  <wgt id="152">3.59496e-12</wgt>
  <wgt id="153">3.59221e-12</wgt>
  <wgt id="154">3.61584e-12</wgt>
  <wgt id="155">3.56406e-12</wgt>
  <wgt id="156">3.68686e-12</wgt>
  <wgt id="157">3.50153e-12</wgt>
  <wgt id="158">4.31853e-12</wgt>
  <wgt id="159">4.33678e-12</wgt>
  <wgt id="160">4.30413e-12</wgt>
  <wgt id="161">4.30669e-12</wgt>
  <wgt id="162">4.33229e-12</wgt>
  <wgt id="163">4.31325e-12</wgt>
  <wgt id="164">4.32649e-12</wgt>
  <wgt id="165">4.32024e-12</wgt>
  <wgt id="166">4.31742e-12</wgt>
  <wgt id="167">4.31553e-12</wgt>
  <wgt id="168">4.32315e-12</wgt>
  <wgt id="169">4.30055e-12</wgt>
  <wgt id="170">4.33003e-12</wgt>
  <wgt id="171">4.31343e-12</wgt>
  <wgt id="172">4.3259e-12</wgt>
  <wgt id="173">4.31628e-12</wgt>
  <wgt id="174">4.31941e-12</wgt>
  <wgt id="175">4.18928e-12</wgt>
  <wgt id="176">4.488e-12</wgt>
  <wgt id="177">4.34389e-12</wgt>
  <wgt id="178">4.29574e-12</wgt>
  <wgt id="179">4.52061e-12</wgt>
  <wgt id="180">4.00314e-12</wgt>
  <wgt id="181">4.18075e-12</wgt>
  <wgt id="182">4.40999e-12</wgt>
  <wgt id="183">4.23483e-12</wgt>
  <wgt id="184">4.36043e-12</wgt>
  <wgt id="185">4.27984e-12</wgt>
  <wgt id="186">4.36722e-12</wgt>
  <wgt id="187">4.27663e-12</wgt>
  <wgt id="188">4.39432e-12</wgt>
  <wgt id="189">4.28737e-12</wgt>
  <wgt id="190">4.33136e-12</wgt>
  <wgt id="191">4.33188e-12</wgt>
  <wgt id="192">4.31073e-12</wgt>
  <wgt id="193">4.38741e-12</wgt>
  <wgt id="194">4.28465e-12</wgt>
  <wgt id="195">4.18073e-12</wgt>
  <wgt id="196">4.54937e-12</wgt>
  <wgt id="197">4.34207e-12</wgt>
  <wgt id="198">4.31318e-12</wgt>
  <wgt id="199">4.31853e-12</wgt>
  <wgt id="200">4.35845e-12</wgt>
  <wgt id="201">4.34431e-12</wgt>
  <wgt id="202">4.33047e-12</wgt>
  <wgt id="203">4.3097e-12</wgt>
  <wgt id="204">4.29986e-12</wgt>
  <wgt id="205">4.29186e-12</wgt>
  <wgt id="206">4.16775e-12</wgt>
  <wgt id="207">4.19259e-12</wgt>
  <wgt id="208">4.14333e-12</wgt>
  <wgt id="209">4.18304e-12</wgt>
  <wgt id="210">4.15694e-12</wgt>
  <wgt id="211">4.16595e-12</wgt>
  <wgt id="212">4.16936e-12</wgt>
  <wgt id="213">4.16751e-12</wgt>
  <wgt id="214">4.16837e-12</wgt>
  <wgt id="215">4.17153e-12</wgt>
  <wgt id="216">4.1653e-12</wgt>
  <wgt id="217">4.18039e-12</wgt>
  <wgt id="218">4.15812e-12</wgt>
  <wgt id="219">4.1651e-12</wgt>
  <wgt id="220">4.16966e-12</wgt>
  <wgt id="221">4.16674e-12</wgt>
  <wgt id="222">4.1706e-12</wgt>
  <wgt id="223">3.93312e-12</wgt>
  <wgt id="224">4.38267e-12</wgt>
  <wgt id="225">4.11359e-12</wgt>
  <wgt id="226">4.23651e-12</wgt>
  <wgt id="227">4.12628e-12</wgt>
  <wgt id="228">4.18609e-12</wgt>
  <wgt id="229">4.10685e-12</wgt>
  <wgt id="230">4.19835e-12</wgt>
  <wgt id="231">4.29711e-12</wgt>
  <wgt id="232">4.06212e-12</wgt>
  <wgt id="233">4.14401e-12</wgt>
  <wgt id="234">4.20696e-12</wgt>
  <wgt id="235">4.05169e-12</wgt>
  <wgt id="236">4.26827e-12</wgt>
  <wgt id="237">4.0945e-12</wgt>
  <wgt id="238">4.19263e-12</wgt>
  <wgt id="239">4.1372e-12</wgt>
  <wgt id="240">4.22318e-12</wgt>
  <wgt id="241">4.12117e-12</wgt>
  <wgt id="242">4.22448e-12</wgt>
  <wgt id="243">4.2368e-12</wgt>
  <wgt id="244">4.18008e-12</wgt>
  <wgt id="245">4.166e-12</wgt>
  <wgt id="246">4.19563e-12</wgt>
  <wgt id="247">4.16775e-12</wgt>
  <wgt id="248">4.20684e-12</wgt>
  <wgt id="249">4.19219e-12</wgt>
  <wgt id="250">4.17848e-12</wgt>
  <wgt id="251">4.15818e-12</wgt>
  <wgt id="252">4.14846e-12</wgt>
  <wgt id="253">4.14177e-12</wgt>
  <wgt id="254">4.07726e-12</wgt>
  <wgt id="255">4.08113e-12</wgt>
  <wgt id="256">4.073e-12</wgt>
  <wgt id="257">4.08003e-12</wgt>
  <wgt id="258">4.07519e-12</wgt>
  <wgt id="259">4.10468e-12</wgt>
  <wgt id="260">4.05077e-12</wgt>
  <wgt id="261">4.08503e-12</wgt>
  <wgt id="262">4.06779e-12</wgt>
  <wgt id="263">4.07475e-12</wgt>
  <wgt id="264">4.0801e-12</wgt>
  <wgt id="265">4.07176e-12</wgt>
  <wgt id="266">4.08826e-12</wgt>
  <wgt id="267">4.0786e-12</wgt>
  <wgt id="268">4.07514e-12</wgt>
  <wgt id="269">4.0919e-12</wgt>
  <wgt id="270">4.06725e-12</wgt>
  <wgt id="271">4.06978e-12</wgt>
  <wgt id="272">4.08578e-12</wgt>
  <wgt id="273">4.06401e-12</wgt>
  <wgt id="274">4.08729e-12</wgt>
  <wgt id="275">4.05767e-12</wgt>
  <wgt id="276">4.09747e-12</wgt>
  <wgt id="277">4.05261e-12</wgt>
  <wgt id="278">4.09973e-12</wgt>
  <wgt id="279">3.99383e-12</wgt>
  <wgt id="280">4.18212e-12</wgt>
  <wgt id="281">4.05756e-12</wgt>
  <wgt id="282">4.07922e-12</wgt>
  <wgt id="283">3.9505e-12</wgt>
  <wgt id="284">4.23396e-12</wgt>
  <wgt id="285">3.86846e-12</wgt>
  <wgt id="286">4.25121e-12</wgt>
  <wgt id="287">4.09092e-12</wgt>
  <wgt id="288">4.05968e-12</wgt>
  <wgt id="289">4.10823e-12</wgt>
  <wgt id="290">4.00645e-12</wgt>
  <wgt id="291">4.06384e-12</wgt>
  <wgt id="292">4.07987e-12</wgt>
  <wgt id="293">4.04315e-12</wgt>
  <wgt id="294">4.11109e-12</wgt>
  <wgt id="295">3.99472e-12</wgt>
  <wgt id="296">4.17811e-12</wgt>
  <wgt id="297">4.07335e-12</wgt>
  <wgt id="298">4.09614e-12</wgt>
  <wgt id="299">4.0629e-12</wgt>
  <wgt id="300">4.11505e-12</wgt>
  <wgt id="301">4.00362e-12</wgt>
  <wgt id="302">4.25038e-12</wgt>
  <wgt id="303">4.0387e-12</wgt>
  <wgt id="304">4.09913e-12</wgt>
  <wgt id="305">4.07657e-12</wgt>
  <wgt id="306">4.08084e-12</wgt>
  <wgt id="307">4.07203e-12</wgt>
  <wgt id="308">4.07989e-12</wgt>
  <wgt id="309">4.07452e-12</wgt>
  <wgt id="310">4.1051e-12</wgt>
  <wgt id="311">4.05033e-12</wgt>
  <wgt id="312">4.08354e-12</wgt>
  <wgt id="313">4.06941e-12</wgt>
  <wgt id="314">4.07415e-12</wgt>
  <wgt id="315">4.07888e-12</wgt>
  <wgt id="316">4.07122e-12</wgt>
  <wgt id="317">4.08828e-12</wgt>
  <wgt id="318">4.07998e-12</wgt>
  <wgt id="319">4.07078e-12</wgt>
  <wgt id="320">4.09228e-12</wgt>
  <wgt id="321">4.06792e-12</wgt>
  <wgt id="322">4.06715e-12</wgt>
  <wgt id="323">4.08751e-12</wgt>
  <wgt id="324">4.06559e-12</wgt>
  <wgt id="325">4.0862e-12</wgt>
  <wgt id="326">4.06092e-12</wgt>
  <wgt id="327">4.09675e-12</wgt>
  <wgt id="328">4.05483e-12</wgt>
  <wgt id="329">4.08869e-12</wgt>
  <wgt id="330">4.20325e-12</wgt>
  <wgt id="331">3.95625e-12</wgt>
  <wgt id="332">4.06e-12</wgt>
  <wgt id="333">4.07765e-12</wgt>
  <wgt id="334">3.97771e-12</wgt>
  <wgt id="335">4.19987e-12</wgt>
  <wgt id="336">3.92579e-12</wgt>
  <wgt id="337">4.26151e-12</wgt>
  <wgt id="338">4.12512e-12</wgt>
  <wgt id="339">4.0319e-12</wgt>
  <wgt id="340">4.1054e-12</wgt>
  <wgt id="341">4.00323e-12</wgt>
  <wgt id="342">4.06697e-12</wgt>
  <wgt id="343">4.07203e-12</wgt>
  <wgt id="344">4.04612e-12</wgt>
  <wgt id="345">4.11207e-12</wgt>
  <wgt id="346">3.99115e-12</wgt>
  <wgt id="347">4.17524e-12</wgt>
  <wgt id="348">4.07387e-12</wgt>
  <wgt id="349">4.09325e-12</wgt>
  <wgt id="350">4.05888e-12</wgt>
  <wgt id="351">4.12168e-12</wgt>
  <wgt id="352">3.99651e-12</wgt>
  <wgt id="353">4.25457e-12</wgt>
  <wgt id="354">4.01851e-12</wgt>
  <wgt id="355">4.11154e-12</wgt>
  <wgt id="356">4.07726e-12</wgt>
  <wgt id="357">4.0898e-12</wgt>
  <wgt id="358">4.07657e-12</wgt>
  <wgt id="359">4.08785e-12</wgt>
  <wgt id="360">4.11756e-12</wgt>
  <wgt id="361">4.09303e-12</wgt>
  <wgt id="362">4.17084e-12</wgt>
  <wgt id="363">4.15993e-12</wgt>
  <wgt id="364">4.14327e-12</wgt>
  <wgt id="365">4.12792e-12</wgt>
  <wgt id="366">4.11135e-12</wgt>
  <wgt id="367">4.07823e-12</wgt>
  <wgt id="368">4.05944e-12</wgt>
  <wgt id="369">4.03906e-12</wgt>
  <wgt id="370">4.09303e-12</wgt>
  <wgt id="371">4.11167e-12</wgt>
  <wgt id="372">4.10151e-12</wgt>
  <wgt id="373">4.08623e-12</wgt>
  <wgt id="374">4.08665e-12</wgt>
  <wgt id="375">4.44312e-12</wgt>
  <wgt id="376">4.44384e-12</wgt>
  <wgt id="377">4.44218e-12</wgt>
  <wgt id="378">4.45963e-12</wgt>
  <wgt id="379">4.42674e-12</wgt>
  <wgt id="380">4.45485e-12</wgt>
  <wgt id="381">4.4385e-12</wgt>
  <wgt id="382">4.4682e-12</wgt>
  <wgt id="383">4.41827e-12</wgt>
  <wgt id="384">4.44609e-12</wgt>
  <wgt id="385">4.44018e-12</wgt>
  <wgt id="386">4.46258e-12</wgt>
  <wgt id="387">4.43481e-12</wgt>
  <wgt id="388">4.43852e-12</wgt>
  <wgt id="389">4.44859e-12</wgt>
  <wgt id="390">4.45598e-12</wgt>
  <wgt id="391">4.42966e-12</wgt>
  <wgt id="392">4.40377e-12</wgt>
  <wgt id="393">4.46555e-12</wgt>
  <wgt id="394">4.44913e-12</wgt>
  <wgt id="395">4.43498e-12</wgt>
  <wgt id="396">4.44854e-12</wgt>
  <wgt id="397">4.43941e-12</wgt>
  <wgt id="398">4.42266e-12</wgt>
  <wgt id="399">4.46306e-12</wgt>
  <wgt id="400">4.43488e-12</wgt>
  <wgt id="401">4.46207e-12</wgt>
  <wgt id="402">4.40307e-12</wgt>
  <wgt id="403">4.4627e-12</wgt>
  <wgt id="404">4.55707e-12</wgt>
  <wgt id="405">4.1697e-12</wgt>
  <wgt id="406">4.36168e-12</wgt>
  <wgt id="407">4.62137e-12</wgt>
  <wgt id="408">4.48525e-12</wgt>
  <wgt id="409">4.36346e-12</wgt>
  <wgt id="410">4.31035e-12</wgt>
  <wgt id="411">4.50551e-12</wgt>
  <wgt id="412">4.43433e-12</wgt>
  <wgt id="413">4.45694e-12</wgt>
  <wgt id="414">4.38998e-12</wgt>
  <wgt id="415">4.48456e-12</wgt>
  <wgt id="416">4.57755e-12</wgt>
  <wgt id="417">4.25804e-12</wgt>
  <wgt id="418">4.44981e-12</wgt>
  <wgt id="419">4.40704e-12</wgt>
  <wgt id="420">4.53103e-12</wgt>
  <wgt id="421">4.389e-12</wgt>
  <wgt id="422">4.42807e-12</wgt>
  <wgt id="423">4.45077e-12</wgt>
  <wgt id="424">4.55386e-12</wgt>
  <wgt id="425">4.37146e-12</wgt>
  <wgt id="426">4.44312e-12</wgt>
  <wgt id="427">4.39049e-12</wgt>
  <wgt id="428">4.5885e-12</wgt>
  <wgt id="429">4.49183e-12</wgt>
  <wgt id="430">4.62844e-12</wgt>
  <wgt id="431">4.60098e-12</wgt>
  <wgt id="432">4.5754e-12</wgt>
  <wgt id="433">4.55041e-12</wgt>
  <wgt id="434">4.51977e-12</wgt>
  <wgt id="435">4.45714e-12</wgt>
  <wgt id="436">4.42529e-12</wgt>
  <wgt id="437">4.39465e-12</wgt>
  <wgt id="438">4.49183e-12</wgt>
  <wgt id="439">4.5066e-12</wgt>
  <wgt id="440">4.49789e-12</wgt>
  <wgt id="441">4.48744e-12</wgt>
  <wgt id="442">4.48395e-12</wgt>
  <wgt id="443">4.28184e-12</wgt>
  <wgt id="444">4.31232e-12</wgt>
  <wgt id="445">4.26702e-12</wgt>
  <wgt id="446">4.25229e-12</wgt>
  <wgt id="447">4.26694e-12</wgt>
  <wgt id="448">4.16025e-12</wgt>
  <wgt id="449">4.35561e-12</wgt>
  <wgt id="450">4.27423e-12</wgt>
  <wgt id="451">4.27314e-12</wgt>
  <wgt id="452">4.38877e-12</wgt>
  <wgt id="453">4.33115e-12</wgt>
  <wgt id="454">4.09763e-12</wgt>
  <wgt id="455">4.28981e-12</wgt>
  <wgt id="456">4.2707e-12</wgt>
  <wgt id="457">4.30218e-12</wgt>
  <wgt id="458">4.33715e-12</wgt>
  <wgt id="459">4.31404e-12</wgt>
  <wgt id="460">4.3119e-12</wgt>
  <wgt id="461">4.18908e-12</wgt>
  <wgt id="462">4.24092e-12</wgt>
  <wgt id="463">4.22756e-12</wgt>
  <wgt id="464">4.25315e-12</wgt>
  <wgt id="465">4.33443e-12</wgt>
  <wgt id="466">4.2216e-12</wgt>
  <wgt id="467">4.23456e-12</wgt>
  <wgt id="468">4.26896e-12</wgt>
  <wgt id="469">4.2671e-12</wgt>
  <wgt id="470">4.23785e-12</wgt>
  <wgt id="471">4.23684e-12</wgt>
  <wgt id="472">4.30566e-12</wgt>
  <wgt id="473">4.12119e-12</wgt>
  <wgt id="474">3.0282e-12</wgt>
  <wgt id="475">3.18788e-12</wgt>
  <wgt id="476">2.9574e-12</wgt>
  <wgt id="477">2.89919e-12</wgt>
  <wgt id="478">3.04317e-12</wgt>
  <wgt id="479">2.94339e-12</wgt>
  <wgt id="480">3.16179e-12</wgt>
  <wgt id="481">2.9919e-12</wgt>
  <wgt id="482">2.93975e-12</wgt>
  <wgt id="483">2.94872e-12</wgt>
  <wgt id="484">3.19478e-12</wgt>
  <wgt id="485">2.99325e-12</wgt>
  <wgt id="486">3.1509e-12</wgt>
  <wgt id="487">3.09235e-12</wgt>
  <wgt id="488">3.08203e-12</wgt>
  <wgt id="489">2.91598e-12</wgt>
  <wgt id="490">2.91303e-12</wgt>
  <wgt id="491">2.99514e-12</wgt>
  <wgt id="492">2.94324e-12</wgt>
  <wgt id="493">2.89697e-12</wgt>
  <wgt id="494">2.92812e-12</wgt>
  <wgt id="495">3.10114e-12</wgt>
  <wgt id="496">2.92918e-12</wgt>
  <wgt id="497">2.89116e-12</wgt>
  <wgt id="498">3.09029e-12</wgt>
  <wgt id="499">2.96616e-12</wgt>
  <wgt id="500">2.98153e-12</wgt>
  <wgt id="501">3.17916e-12</wgt>
  <wgt id="502">2.97692e-12</wgt>
  <wgt id="503">3.03034e-12</wgt>
  <wgt id="504">3.08635e-12</wgt>
  <wgt id="505">2.99571e-12</wgt>
  <wgt id="506">3.08362e-12</wgt>
  <wgt id="507">3.01314e-12</wgt>
  <wgt id="508">3.08383e-12</wgt>
  <wgt id="509">2.88492e-12</wgt>
  <wgt id="510">3.12323e-12</wgt>
  <wgt id="511">2.96322e-12</wgt>
  <wgt id="512">3.10306e-12</wgt>
  <wgt id="513">3.19288e-12</wgt>
  <wgt id="514">3.02853e-12</wgt>
  <wgt id="515">2.9946e-12</wgt>
  <wgt id="516">3.14715e-12</wgt>
  <wgt id="517">3.08967e-12</wgt>
  <wgt id="518">3.09405e-12</wgt>
  <wgt id="519">2.92082e-12</wgt>
  <wgt id="520">3.08177e-12</wgt>
  <wgt id="521">3.1139e-12</wgt>
  <wgt id="522">3.15422e-12</wgt>
  <wgt id="523">3.08266e-12</wgt>
  <wgt id="524">3.05214e-12</wgt>
  <wgt id="525">3.13888e-12</wgt>
  <wgt id="526">3.06919e-12</wgt>
  <wgt id="527">3.05678e-12</wgt>
  <wgt id="528">3.06298e-12</wgt>
  <wgt id="529">2.95727e-12</wgt>
  <wgt id="530">3.08723e-12</wgt>
  <wgt id="531">2.99487e-12</wgt>
  <wgt id="532">3.22451e-12</wgt>
  <wgt id="533">2.8644e-12</wgt>
  <wgt id="534">3.04154e-12</wgt>
  <wgt id="535">3.08649e-12</wgt>
  <wgt id="536">3.00108e-12</wgt>
  <wgt id="537">3.02619e-12</wgt>
  <wgt id="538">3.04389e-12</wgt>
  <wgt id="539">2.98151e-12</wgt>
  <wgt id="540">2.96377e-12</wgt>
  <wgt id="541">2.91187e-12</wgt>
  <wgt id="542">2.99486e-12</wgt>
  <wgt id="543">3.01653e-12</wgt>
  <wgt id="544">3.17066e-12</wgt>
  <wgt id="545">2.98038e-12</wgt>
  <wgt id="546">2.96391e-12</wgt>
  <wgt id="547">2.93564e-12</wgt>
  <wgt id="548">2.90411e-12</wgt>
  <wgt id="549">2.96756e-12</wgt>
  <wgt id="550">2.96385e-12</wgt>
  <wgt id="551">3.05359e-12</wgt>
  <wgt id="552">2.9758e-12</wgt>
  <wgt id="553">3.00506e-12</wgt>
  <wgt id="554">3.24577e-12</wgt>
  <wgt id="555">3.09931e-12</wgt>
  <wgt id="556">2.91303e-12</wgt>
  <wgt id="557">3.09136e-12</wgt>
  <wgt id="558">2.93809e-12</wgt>
  <wgt id="559">2.97567e-12</wgt>
  <wgt id="560">3.31229e-12</wgt>
  <wgt id="561">2.99086e-12</wgt>
  <wgt id="562">3.09722e-12</wgt>
  <wgt id="563">2.96562e-12</wgt>
  <wgt id="564">3.05546e-12</wgt>
  <wgt id="565">2.91244e-12</wgt>
  <wgt id="566">3.08677e-12</wgt>
  <wgt id="567">2.99437e-12</wgt>
  <wgt id="568">2.99796e-12</wgt>
  <wgt id="569">3.10906e-12</wgt>
  <wgt id="570">2.89923e-12</wgt>
  <wgt id="571">3.36739e-12</wgt>
  <wgt id="572">2.95377e-12</wgt>
  <wgt id="573">2.90116e-12</wgt>
  <wgt id="574">2.92183e-12</wgt>
  <wgt id="575">3.35857e-12</wgt>
  <wgt id="576">3.38454e-12</wgt>
  <wgt id="577">3.42479e-12</wgt>
  <wgt id="578">3.47411e-12</wgt>
  <wgt id="579">3.45021e-12</wgt>
  <wgt id="580">3.45631e-12</wgt>
  <wgt id="581">3.61057e-12</wgt>
  <wgt id="582">3.37472e-12</wgt>
  <wgt id="583">3.40066e-12</wgt>
  <wgt id="584">3.36062e-12</wgt>
  <wgt id="585">3.34984e-12</wgt>
  <wgt id="586">3.27114e-12</wgt>
  <wgt id="587">3.41824e-12</wgt>
  <wgt id="588">3.36707e-12</wgt>
  <wgt id="589">3.47284e-12</wgt>
  <wgt id="590">3.40944e-12</wgt>
  <wgt id="591">3.47597e-12</wgt>
  <wgt id="592">3.24083e-12</wgt>
  <wgt id="593">3.33821e-12</wgt>
  <wgt id="594">3.41147e-12</wgt>
  <wgt id="595">3.36977e-12</wgt>
  <wgt id="596">3.4084e-12</wgt>
  <wgt id="597">3.29185e-12</wgt>
  <wgt id="598">3.20419e-12</wgt>
  <wgt id="599">3.54509e-12</wgt>
  <wgt id="600">3.34146e-12</wgt>
  <wgt id="601">3.26129e-12</wgt>
  <wgt id="602">3.26753e-12</wgt>
  <wgt id="603">3.26312e-12</wgt>
  <wgt id="604">3.41652e-12</wgt>
  <wgt id="605">3.48669e-12</wgt>
  <wgt id="606">3.30938e-12</wgt>
  <wgt id="607">3.33783e-12</wgt>
  <wgt id="608">3.42978e-12</wgt>
  <wgt id="609">3.20301e-12</wgt>
  <wgt id="610">3.23703e-12</wgt>
  <wgt id="611">3.35458e-12</wgt>
  <wgt id="612">3.57236e-12</wgt>
  <wgt id="613">3.32344e-12</wgt>
  <wgt id="614">3.39923e-12</wgt>
  <wgt id="615">3.29851e-12</wgt>
  <wgt id="616">3.49063e-12</wgt>
  <wgt id="617">3.49825e-12</wgt>
  <wgt id="618">3.51488e-12</wgt>
  <wgt id="619">3.29566e-12</wgt>
  <wgt id="620">3.53368e-12</wgt>
  <wgt id="621">3.39129e-12</wgt>
  <wgt id="622">3.41824e-12</wgt>
  <wgt id="623">3.45907e-12</wgt>
  <wgt id="624">3.36476e-12</wgt>
  <wgt id="625">3.30575e-12</wgt>
  <wgt id="626">3.24211e-12</wgt>
  <wgt id="627">3.19484e-12</wgt>
  <wgt id="628">3.55171e-12</wgt>
  <wgt id="629">3.2843e-12</wgt>
  <wgt id="630">3.21411e-12</wgt>
  <wgt id="631">3.39548e-12</wgt>
  <wgt id="632">3.19817e-12</wgt>
  <wgt id="633">3.32944e-12</wgt>
  <wgt id="634">3.3137e-12</wgt>
  <wgt id="635">3.22305e-12</wgt>
  <wgt id="636">3.38208e-12</wgt>
  <wgt id="637">3.33224e-12</wgt>
  <wgt id="638">3.21581e-12</wgt>
  <wgt id="639">3.29538e-12</wgt>
  <wgt id="640">3.34782e-12</wgt>
  <wgt id="641">3.4088e-12</wgt>
  <wgt id="642">3.18878e-12</wgt>
  <wgt id="643">3.32507e-12</wgt>
  <wgt id="644">3.17142e-12</wgt>
  <wgt id="645">3.39689e-12</wgt>
  <wgt id="646">3.35851e-12</wgt>
  <wgt id="647">3.33179e-12</wgt>
  <wgt id="648">3.39564e-12</wgt>
  <wgt id="649">3.40633e-12</wgt>
  <wgt id="650">3.27976e-12</wgt>
  <wgt id="651">3.38162e-12</wgt>
  <wgt id="652">3.30669e-12</wgt>
  <wgt id="653">3.25378e-12</wgt>
  <wgt id="654">3.33029e-12</wgt>
  <wgt id="655">3.31557e-12</wgt>
  <wgt id="656">3.40124e-12</wgt>
  <wgt id="657">3.54708e-12</wgt>
  <wgt id="658">3.33895e-12</wgt>
  <wgt id="659">3.2171e-12</wgt>
  <wgt id="660">3.41142e-12</wgt>
  <wgt id="661">3.29402e-12</wgt>
  <wgt id="662">3.36185e-12</wgt>
  <wgt id="663">3.37336e-12</wgt>
  <wgt id="664">3.32078e-12</wgt>
  <wgt id="665">3.34919e-12</wgt>
  <wgt id="666">3.30881e-12</wgt>
  <wgt id="667">3.47176e-12</wgt>
  <wgt id="668">3.36361e-12</wgt>
  <wgt id="669">3.43115e-12</wgt>
  <wgt id="670">3.46098e-12</wgt>
  <wgt id="671">3.35424e-12</wgt>
  <wgt id="672">3.21749e-12</wgt>
  <wgt id="673">3.40358e-12</wgt>
  <wgt id="674">3.29424e-12</wgt>
  <wgt id="675">3.3279e-12</wgt>
  <wgt id="676">4.3143e-12</wgt>
  <wgt id="677">4.35196e-12</wgt>
  <wgt id="678">4.55116e-12</wgt>
  <wgt id="679">4.00202e-12</wgt>
  <wgt id="680">4.26512e-12</wgt>
  <wgt id="681">4.3668e-12</wgt>
  <wgt id="682">4.50365e-12</wgt>
  <wgt id="683">4.21581e-12</wgt>
  <wgt id="684">4.52299e-12</wgt>
  <wgt id="685">4.10327e-12</wgt>
  <wgt id="686">4.1487e-12</wgt>
  <wgt id="687">4.55137e-12</wgt>
  <wgt id="688">4.29075e-12</wgt>
  <wgt id="689">4.70242e-12</wgt>
  <wgt id="690">4.50731e-12</wgt>
  <wgt id="691">4.59332e-12</wgt>
  <wgt id="692">4.23441e-12</wgt>
  <wgt id="693">5.21873e-12</wgt>
  <wgt id="694">4.60363e-12</wgt>
  <wgt id="695">4.17454e-12</wgt>
  <wgt id="696">4.06361e-12</wgt>
  <wgt id="697">4.18188e-12</wgt>
  <wgt id="698">3.84664e-12</wgt>
  <wgt id="699">3.83964e-12</wgt>
  <wgt id="700">3.69827e-12</wgt>
  <wgt id="701">4.33476e-12</wgt>
  <wgt id="702">4.2095e-12</wgt>
  <wgt id="703">5.05477e-12</wgt>
  <wgt id="704">4.79726e-12</wgt>
  <wgt id="705">4.57212e-12</wgt>
  <wgt id="706">4.01155e-12</wgt>
  <wgt id="707">4.12206e-12</wgt>
  <wgt id="708">4.24527e-12</wgt>
  <wgt id="709">4.22932e-12</wgt>
  <wgt id="710">3.86389e-12</wgt>
  <wgt id="711">4.2836e-12</wgt>
  <wgt id="712">4.20383e-12</wgt>
  <wgt id="713">4.72537e-12</wgt>
  <wgt id="714">4.17168e-12</wgt>
  <wgt id="715">4.25616e-12</wgt>
  <wgt id="716">4.14122e-12</wgt>
  <wgt id="717">4.04857e-12</wgt>
  <wgt id="718">4.36094e-12</wgt>
  <wgt id="719">3.87944e-12</wgt>
  <wgt id="720">4.05777e-12</wgt>
  <wgt id="721">3.83678e-12</wgt>
  <wgt id="722">3.71617e-12</wgt>
  <wgt id="723">4.66552e-12</wgt>
  <wgt id="724">4.56617e-12</wgt>
  <wgt id="725">4.54819e-12</wgt>
  <wgt id="726">4.34605e-12</wgt>
  <wgt id="727">4.21999e-12</wgt>
  <wgt id="728">4.17086e-12</wgt>
  <wgt id="729">3.97355e-12</wgt>
  <wgt id="730">4.74829e-12</wgt>
  <wgt id="731">4.24741e-12</wgt>
  <wgt id="732">4.80967e-12</wgt>
  <wgt id="733">4.2797e-12</wgt>
  <wgt id="734">4.43003e-12</wgt>
  <wgt id="735">4.30406e-12</wgt>
  <wgt id="736">4.18559e-12</wgt>
  <wgt id="737">4.36983e-12</wgt>
  <wgt id="738">4.04689e-12</wgt>
  <wgt id="739">4.47895e-12</wgt>
  <wgt id="740">4.85295e-12</wgt>
  <wgt id="741">3.88271e-12</wgt>
  <wgt id="742">4.24404e-12</wgt>
  <wgt id="743">4.0378e-12</wgt>
  <wgt id="744">4.22392e-12</wgt>
  <wgt id="745">4.56924e-12</wgt>
  <wgt id="746">4.67105e-12</wgt>
  <wgt id="747">3.80575e-12</wgt>
  <wgt id="748">4.2653e-12</wgt>
  <wgt id="749">4.52767e-12</wgt>
  <wgt id="750">4.48846e-12</wgt>
  <wgt id="751">4.42812e-12</wgt>
  <wgt id="752">3.91012e-12</wgt>
  <wgt id="753">4.06765e-12</wgt>
  <wgt id="754">4.58697e-12</wgt>
  <wgt id="755">4.3109e-12</wgt>
  <wgt id="756">4.33462e-12</wgt>
  <wgt id="757">3.9041e-12</wgt>
  <wgt id="758">4.32369e-12</wgt>
  <wgt id="759">4.52614e-12</wgt>
  <wgt id="760">4.32368e-12</wgt>
  <wgt id="761">4.56997e-12</wgt>
  <wgt id="762">4.62318e-12</wgt>
  <wgt id="763">4.27789e-12</wgt>
  <wgt id="764">4.52003e-12</wgt>
  <wgt id="765">4.42787e-12</wgt>
  <wgt id="766">4.32071e-12</wgt>
  <wgt id="767">4.43989e-12</wgt>
  <wgt id="768">4.02188e-12</wgt>
  <wgt id="769">4.60034e-12</wgt>
  <wgt id="770">4.16558e-12</wgt>
  <wgt id="771">5.19619e-12</wgt>
  <wgt id="772">4.08957e-12</wgt>
  <wgt id="773">4.26751e-12</wgt>
  <wgt id="774">3.71598e-12</wgt>
  <wgt id="775">4.59134e-12</wgt>
  <wgt id="776">4.74282e-12</wgt>
  <wgt id="777">3.99876e-12</wgt>
  <wgt id="778">3.07812e-12</wgt>
  <wgt id="779">2.4143e-12</wgt>
  <wgt id="780">1.82626e-12</wgt>
  <wgt id="781">3.30814e-12</wgt>
  <wgt id="782">3.3146e-12</wgt>
  <wgt id="783">2.40966e-12</wgt>
  <wgt id="784">2.57862e-12</wgt>
  <wgt id="785">3.91904e-12</wgt>
  <wgt id="786">2.26769e-12</wgt>
  <wgt id="787">3.63959e-12</wgt>
  <wgt id="788">1.66961e-12</wgt>
  <wgt id="789">2.39144e-12</wgt>
  <wgt id="790">2.21267e-12</wgt>
  <wgt id="791">2.96913e-12</wgt>
  <wgt id="792">4.08945e-12</wgt>
  <wgt id="793">3.03066e-12</wgt>
  <wgt id="794">2.16216e-12</wgt>
  <wgt id="795">3.80994e-12</wgt>
  <wgt id="796">4.16895e-12</wgt>
  <wgt id="797">3.73324e-12</wgt>
  <wgt id="798">2.73512e-12</wgt>
  <wgt id="799">3.61045e-12</wgt>
  <wgt id="800">2.4402e-12</wgt>
  <wgt id="801">2.8169e-12</wgt>
  <wgt id="802">2.1577e-12</wgt>
  <wgt id="803">4.20972e-12</wgt>
  <wgt id="804">3.7741e-12</wgt>
  <wgt id="805">3.82756e-12</wgt>
  <wgt id="806">3.40302e-12</wgt>
  <wgt id="807">2.89681e-12</wgt>
  <wgt id="808">2.96764e-12</wgt>
  <wgt id="809">2.81196e-12</wgt>
  <wgt id="810">3.48163e-12</wgt>
  <wgt id="811">3.38786e-12</wgt>
  <wgt id="812">2.16339e-12</wgt>
  <wgt id="813">2.26819e-12</wgt>
  <wgt id="814">2.5996e-12</wgt>
  <wgt id="815">2.40763e-12</wgt>
  <wgt id="816">2.11148e-12</wgt>
  <wgt id="817">3.20523e-12</wgt>
  <wgt id="818">3.21304e-12</wgt>
  <wgt id="819">2.39884e-12</wgt>
  <wgt id="820">3.05678e-12</wgt>
  <wgt id="821">3.66082e-12</wgt>
  <wgt id="822">2.40151e-12</wgt>
  <wgt id="823">3.71733e-12</wgt>
  <wgt id="824">4.3058e-12</wgt>
  <wgt id="825">2.08989e-12</wgt>
  <wgt id="826">3.39581e-12</wgt>
  <wgt id="827">1.67511e-12</wgt>
  <wgt id="828">3.96896e-12</wgt>
  <wgt id="829">3.24492e-12</wgt>
  <wgt id="830">1.96922e-12</wgt>
  <wgt id="831">3.40343e-12</wgt>
  <wgt id="832">5.31736e-12</wgt>
  <wgt id="833">2.75348e-12</wgt>
  <wgt id="834">4.97099e-12</wgt>
  <wgt id="835">2.41569e-12</wgt>
  <wgt id="836">2.96484e-12</wgt>
  <wgt id="837">3.60477e-12</wgt>
  <wgt id="838">2.8696e-12</wgt>
  <wgt id="839">3.36886e-12</wgt>
  <wgt id="840">2.78387e-12</wgt>
  <wgt id="841">4.02233e-12</wgt>
  <wgt id="842">2.74249e-12</wgt>
  <wgt id="843">3.10734e-12</wgt>
  <wgt id="844">3.28499e-12</wgt>
  <wgt id="845">4.66001e-12</wgt>
  <wgt id="846">2.97142e-12</wgt>
  <wgt id="847">3.20514e-12</wgt>
  <wgt id="848">2.4797e-12</wgt>
  <wgt id="849">3.19438e-12</wgt>
  <wgt id="850">4.27233e-12</wgt>
  <wgt id="851">3.44903e-12</wgt>
  <wgt id="852">2.44685e-12</wgt>
  <wgt id="853">3.49386e-12</wgt>
  <wgt id="854">3.91022e-12</wgt>
  <wgt id="855">3.73335e-12</wgt>
  <wgt id="856">2.01787e-12</wgt>
  <wgt id="857">3.01082e-12</wgt>
  <wgt id="858">3.01254e-12</wgt>
  <wgt id="859">2.8487e-12</wgt>
  <wgt id="860">3.49415e-12</wgt>
  <wgt id="861">2.59481e-12</wgt>
  <wgt id="862">3.1582e-12</wgt>
  <wgt id="863">3.35799e-12</wgt>
  <wgt id="864">3.32895e-12</wgt>
  <wgt id="865">4.71234e-12</wgt>
  <wgt id="866">5.16432e-12</wgt>
  <wgt id="867">3.20482e-12</wgt>
  <wgt id="868">3.10542e-12</wgt>
  <wgt id="869">2.23259e-12</wgt>
  <wgt id="870">2.3678e-12</wgt>
  <wgt id="871">2.28835e-12</wgt>
  <wgt id="872">3.90389e-12</wgt>
  <wgt id="873">2.46268e-12</wgt>
  <wgt id="874">3.3168e-12</wgt>
  <wgt id="875">2.61284e-12</wgt>
  <wgt id="876">3.89928e-12</wgt>
  <wgt id="877">3.64815e-12</wgt>
  <wgt id="878">2.50681e-12</wgt>
  <wgt id="879">4.3143e-12</wgt>
  <wgt id="880">4.35196e-12</wgt>
  <wgt id="881">4.55116e-12</wgt>
  <wgt id="882">4.00202e-12</wgt>
  <wgt id="883">4.26512e-12</wgt>
  <wgt id="884">4.3668e-12</wgt>
  <wgt id="885">4.50365e-12</wgt>
  <wgt id="886">4.21581e-12</wgt>
  <wgt id="887">4.52299e-12</wgt>
  <wgt id="888">4.10327e-12</wgt>
  <wgt id="889">4.1487e-12</wgt>
  <wgt id="890">4.55137e-12</wgt>
  <wgt id="891">4.29075e-12</wgt>
  <wgt id="892">4.70242e-12</wgt>
  <wgt id="893">4.50731e-12</wgt>
  <wgt id="894">4.59332e-12</wgt>
  <wgt id="895">4.23441e-12</wgt>
  <wgt id="896">5.21873e-12</wgt>
  <wgt id="897">4.60363e-12</wgt>
  <wgt id="898">4.17454e-12</wgt>
  <wgt id="899">4.06361e-12</wgt>
  <wgt id="900">4.18188e-12</wgt>
  <wgt id="901">3.84664e-12</wgt>
  <wgt id="902">3.83964e-12</wgt>
  <wgt id="903">3.69827e-12</wgt>
  <wgt id="904">4.33476e-12</wgt>
  <wgt id="905">4.2095e-12</wgt>
  <wgt id="906">5.05477e-12</wgt>
  <wgt id="907">4.79726e-12</wgt>
  <wgt id="908">4.57212e-12</wgt>
  <wgt id="909">4.01155e-12</wgt>
  <wgt id="910">4.12206e-12</wgt>
  <wgt id="911">4.24527e-12</wgt>
  <wgt id="912">4.22932e-12</wgt>
  <wgt id="913">3.86389e-12</wgt>
  <wgt id="914">4.2836e-12</wgt>
  <wgt id="915">4.20383e-12</wgt>
  <wgt id="916">4.72537e-12</wgt>
  <wgt id="917">4.17168e-12</wgt>
  <wgt id="918">4.25616e-12</wgt>
  <wgt id="919">4.14122e-12</wgt>
  <wgt id="920">4.04857e-12</wgt>
  <wgt id="921">4.36094e-12</wgt>
  <wgt id="922">3.87944e-12</wgt>
  <wgt id="923">4.05777e-12</wgt>
  <wgt id="924">3.83678e-12</wgt>
  <wgt id="925">3.71617e-12</wgt>
  <wgt id="926">4.66552e-12</wgt>
  <wgt id="927">4.56617e-12</wgt>
  <wgt id="928">4.54819e-12</wgt>
  <wgt id="929">4.34605e-12</wgt>
  <wgt id="930">4.21999e-12</wgt>
  <wgt id="931">4.17086e-12</wgt>
  <wgt id="932">3.97355e-12</wgt>
  <wgt id="933">4.74829e-12</wgt>
  <wgt id="934">4.24741e-12</wgt>
  <wgt id="935">4.80967e-12</wgt>
  <wgt id="936">4.2797e-12</wgt>
  <wgt id="937">4.43003e-12</wgt>
  <wgt id="938">4.30406e-12</wgt>
  <wgt id="939">4.18559e-12</wgt>
  <wgt id="940">4.36983e-12</wgt>
  <wgt id="941">4.04689e-12</wgt>
  <wgt id="942">4.47895e-12</wgt>
  <wgt id="943">4.85295e-12</wgt>
  <wgt id="944">3.88271e-12</wgt>
  <wgt id="945">4.24404e-12</wgt>
  <wgt id="946">4.0378e-12</wgt>
  <wgt id="947">4.22392e-12</wgt>
  <wgt id="948">4.56924e-12</wgt>
  <wgt id="949">4.67105e-12</wgt>
  <wgt id="950">3.80575e-12</wgt>
  <wgt id="951">4.2653e-12</wgt>
  <wgt id="952">4.52767e-12</wgt>
  <wgt id="953">4.48846e-12</wgt>
  <wgt id="954">4.42812e-12</wgt>
  <wgt id="955">3.91012e-12</wgt>
  <wgt id="956">4.06765e-12</wgt>
  <wgt id="957">4.58697e-12</wgt>
  <wgt id="958">4.3109e-12</wgt>
  <wgt id="959">4.33462e-12</wgt>
  <wgt id="960">3.9041e-12</wgt>
  <wgt id="961">4.32369e-12</wgt>
  <wgt id="962">4.52614e-12</wgt>
  <wgt id="963">4.32368e-12</wgt>
  <wgt id="964">4.56997e-12</wgt>
  <wgt id="965">4.62318e-12</wgt>
  <wgt id="966">4.27789e-12</wgt>
  <wgt id="967">4.52003e-12</wgt>
  <wgt id="968">4.42787e-12</wgt>
  <wgt id="969">4.32071e-12</wgt>
  <wgt id="970">4.43989e-12</wgt>
  <wgt id="971">4.02188e-12</wgt>
  <wgt id="972">4.60034e-12</wgt>
  <wgt id="973">4.16558e-12</wgt>
  <wgt id="974">5.19619e-12</wgt>
  <wgt id="975">4.08957e-12</wgt>
  <wgt id="976">4.26751e-12</wgt>
  <wgt id="977">3.71598e-12</wgt>
  <wgt id="978">4.59134e-12</wgt>
  <wgt id="979">4.74282e-12</wgt>
  <wgt id="980">4.30085e-12</wgt>
  <wgt id="981">4.35564e-12</wgt>
  <wgt id="982">4.18295e-12</wgt>
</rwgt>
</event>
<event>
 5   1  0.3028200E-11  0.2457306E+04  0.7818608E-02  0.7658348E-01
       21   -1    0    0  502  501  0.00000000000E+00  0.00000000000E+00  0.22311672623E+04  0.22311672623E+04  0.00000000000E+00 0. -1.
       21   -1    0    0  501  502 -0.00000000000E+00 -0.00000000000E+00 -0.67659112997E+03  0.67659112997E+03  0.00000000000E+00 0.  1.
       39    2    1    2    0    0  0.00000000000E+00  0.00000000000E+00  0.15545761323E+04  0.29077583923E+04  0.24573058248E+04 0.  0.
       25    1    3    3    0    0 -0.10700907537E+04 -0.46262296280E+03  0.34275525618E+03  0.12215647312E+04  0.12500000000E+03 0.  0.
       25    1    3    3    0    0  0.10700907537E+04  0.46262296280E+03  0.12118208762E+04  0.16861936611E+04  0.12500000000E+03 0.  0.
<mgrwt>
<rscale>  0 0.24573058E+04</rscale>
<asrwt>0</asrwt>
<pdfrwt beam="1">  1       21 0.34325650E+00 0.24573058E+04</pdfrwt>
<pdfrwt beam="2">  1       21 0.10409094E+00 0.24573058E+04</pdfrwt>
<totfact> 0.46095641E+00</totfact>
</mgrwt>
<rwgt>
  <wgt id="1">3.0282e-12</wgt>
  <wgt id="2">2.60235e-12</wgt>
  <wgt id="3">3.5649e-12</wgt>
  <wgt id="4">3.0282e-12</wgt>
  <wgt id="5">2.60235e-12</wgt>
  <wgt id="6">3.5649e-12</wgt>
  <wgt id="7">3.0282e-12</wgt>
  <wgt id="8">2.60235e-12</wgt>
  <wgt id="9">3.5649e-12</wgt>
  <wgt id="10">3.21157e-12</wgt>
  <wgt id="11">3.21124e-12</wgt>
  <wgt id="12">3.20257e-12</wgt>
  <wgt id="13">3.20573e-12</wgt>
  <wgt id="14">3.22064e-12</wgt>
  <wgt id="15">3.21665e-12</wgt>
  <wgt id="16">3.20154e-12</wgt>
  <wgt id="17">3.23202e-12</wgt>
  <wgt id="18">3.20984e-12</wgt>
  <wgt id="19">3.22662e-12</wgt>
  <wgt id="20">3.21192e-12</wgt>
  <wgt id="21">3.18436e-12</wgt>
  <wgt id="22">3.18637e-12</wgt>
  <wgt id="23">3.15742e-12</wgt>
  <wgt id="24">3.18407e-12</wgt>
  <wgt id="25">3.19897e-12</wgt>
  <wgt id="26">3.21969e-12</wgt>
  <wgt id="27">3.20418e-12</wgt>
  <wgt id="28">3.18949e-12</wgt>
  <wgt id="29">3.21228e-12</wgt>
  <wgt id="30">3.18134e-12</wgt>
  <wgt id="31">3.2262e-12</wgt>
  <wgt id="32">3.1814e-12</wgt>
  <wgt id="33">3.21501e-12</wgt>
  <wgt id="34">3.1879e-12</wgt>
  <wgt id="35">3.183e-12</wgt>
  <wgt id="36">3.22751e-12</wgt>
  <wgt id="37">3.19995e-12</wgt>
  <wgt id="38">3.19671e-12</wgt>
  <wgt id="39">3.27602e-12</wgt>
  <wgt id="40">3.21747e-12</wgt>
  <wgt id="41">3.20891e-12</wgt>
  <wgt id="42">3.221e-12</wgt>
  <wgt id="43">3.21643e-12</wgt>
  <wgt id="44">3.23021e-12</wgt>
  <wgt id="45">3.21512e-12</wgt>
  <wgt id="46">3.19399e-12</wgt>
  <wgt id="47">3.25091e-12</wgt>
  <wgt id="48">3.23742e-12</wgt>
  <wgt id="49">3.19542e-12</wgt>
  <wgt id="50">3.17818e-12</wgt>
  <wgt id="51">3.18595e-12</wgt>
  <wgt id="52">3.21656e-12</wgt>
  <wgt id="53">3.25796e-12</wgt>
  <wgt id="54">3.23243e-12</wgt>
  <wgt id="55">3.20767e-12</wgt>
  <wgt id="56">3.1838e-12</wgt>
  <wgt id="57">3.18328e-12</wgt>
  <wgt id="58">3.21049e-12</wgt>
  <wgt id="59">3.22107e-12</wgt>
  <wgt id="60">3.17551e-12</wgt>
  <wgt id="61">3.19732e-12</wgt>
  <wgt id="62">3.21025e-12</wgt>
  <wgt id="63">3.20896e-12</wgt>
  <wgt id="64">3.2076e-12</wgt>
  <wgt id="65">3.1924e-12</wgt>
  <wgt id="66">3.21933e-12</wgt>
  <wgt id="67">3.2159e-12</wgt>
  <wgt id="68">3.21005e-12</wgt>
  <wgt id="69">3.20404e-12</wgt>
  <wgt id="70">3.19621e-12</wgt>
  <wgt id="71">3.21411e-12</wgt>
  <wgt id="72">3.19697e-12</wgt>
  <wgt id="73">3.22154e-12</wgt>
  <wgt id="74">3.22809e-12</wgt>
  <wgt id="75">3.20439e-12</wgt>
  <wgt id="76">3.23589e-12</wgt>
  <wgt id="77">3.20427e-12</wgt>
  <wgt id="78">3.20872e-12</wgt>
  <wgt id="79">3.21983e-12</wgt>
  <wgt id="80">3.18174e-12</wgt>
  <wgt id="81">3.20928e-12</wgt>
  <wgt id="82">3.21512e-12</wgt>
  <wgt id="83">3.18727e-12</wgt>
  <wgt id="84">3.19703e-12</wgt>
  <wgt id="85">3.19502e-12</wgt>
  <wgt id="86">3.22958e-12</wgt>
  <wgt id="87">3.17488e-12</wgt>
  <wgt id="88">3.22341e-12</wgt>
  <wgt id="89">3.21983e-12</wgt>
  <wgt id="90">3.22519e-12</wgt>
  <wgt id="91">3.21606e-12</wgt>
  <wgt id="92">3.22312e-12</wgt>
  <wgt id="93">3.2152e-12</wgt>
  <wgt id="94">3.20011e-12</wgt>
  <wgt id="95">3.22323e-12</wgt>
  <wgt id="96">3.22221e-12</wgt>
  <wgt id="97">3.19548e-12</wgt>
  <wgt id="98">3.21172e-12</wgt>
  <wgt id="99">3.20833e-12</wgt>
  <wgt id="100">3.21846e-12</wgt>
  <wgt id="101">3.20481e-12</wgt>
  <wgt id="102">3.20358e-12</wgt>
  <wgt id="103">3.22517e-12</wgt>
  <wgt id="104">3.20548e-12</wgt>
  <wgt id="105">3.222e-12</wgt>
  <wgt id="106">3.20104e-12</wgt>
  <wgt id="107">3.23417e-12</wgt>
  <wgt id="108">3.20456e-12</wgt>
  <wgt id="109">3.21211e-12</wgt>
  <wgt id="110">3.21133e-12</wgt>
  <wgt id="111">3.20654e-12</wgt>
  <wgt id="112">3.25942e-12</wgt>
  <wgt id="113">4.72891e-12</wgt>
  <wgt id="114">4.28298e-12</wgt>
  <wgt id="115">4.20287e-12</wgt>
  <wgt id="116">5.91163e-12</wgt>
  <wgt id="117">3.55943e-12</wgt>
  <wgt id="118">3.5736e-12</wgt>
  <wgt id="119">3.55134e-12</wgt>
  <wgt id="120">3.5594e-12</wgt>
  <wgt id="121">3.55939e-12</wgt>
  <wgt id="122">3.55406e-12</wgt>
  <wgt id="123">3.56692e-12</wgt>
  <wgt id="124">3.55491e-12</wgt>
  <wgt id="125">3.56233e-12</wgt>
  <wgt id="126">3.56486e-12</wgt>
  <wgt id="127">3.55579e-12</wgt>
  <wgt id="128">3.57021e-12</wgt>
  <wgt id="129">3.54876e-12</wgt>
  <wgt id="130">3.57682e-12</wgt>
  <wgt id="131">3.54135e-12</wgt>
  <wgt id="132">3.45743e-12</wgt>
  <wgt id="133">3.68136e-12</wgt>
  <wgt id="134">3.5201e-12</wgt>
  <wgt id="135">3.59037e-12</wgt>
  <wgt id="136">3.61742e-12</wgt>
  <wgt id="137">3.48978e-12</wgt>
  <wgt id="138">3.73105e-12</wgt>
  <wgt id="139">3.39749e-12</wgt>
  <wgt id="140">3.54392e-12</wgt>
  <wgt id="141">3.57099e-12</wgt>
  <wgt id="142">3.55831e-12</wgt>
  <wgt id="143">3.57179e-12</wgt>
  <wgt id="144">3.39622e-12</wgt>
  <wgt id="145">3.72012e-12</wgt>
  <wgt id="146">3.61261e-12</wgt>
  <wgt id="147">3.51571e-12</wgt>
  <wgt id="148">3.57317e-12</wgt>
  <wgt id="149">3.55839e-12</wgt>
  <wgt id="150">3.58987e-12</wgt>
  <wgt id="151">3.54522e-12</wgt>
  <wgt id="152">3.56037e-12</wgt>
  <wgt id="153">3.55906e-12</wgt>
  <wgt id="154">3.56286e-12</wgt>
  <wgt id="155">3.54725e-12</wgt>
  <wgt id="156">3.69639e-12</wgt>
  <wgt id="157">3.4381e-12</wgt>
  <wgt id="158">4.25735e-12</wgt>
  <wgt id="159">4.27554e-12</wgt>
  <wgt id="160">4.2426e-12</wgt>
  <wgt id="161">4.24578e-12</wgt>
  <wgt id="162">4.27019e-12</wgt>
  <wgt id="163">4.25218e-12</wgt>
  <wgt id="164">4.26492e-12</wgt>
  <wgt id="165">4.25877e-12</wgt>
  <wgt id="166">4.25613e-12</wgt>
  <wgt id="167">4.25445e-12</wgt>
  <wgt id="168">4.26131e-12</wgt>
  <wgt id="169">4.24034e-12</wgt>
  <wgt id="170">4.26791e-12</wgt>
  <wgt id="171">4.25397e-12</wgt>
  <wgt id="172">4.26199e-12</wgt>
  <wgt id="173">4.24798e-12</wgt>
  <wgt id="174">4.26044e-12</wgt>
  <wgt id="175">4.12791e-12</wgt>
  <wgt id="176">4.42723e-12</wgt>
  <wgt id="177">4.27741e-12</wgt>
  <wgt id="178">4.23918e-12</wgt>
  <wgt id="179">4.48899e-12</wgt>
  <wgt id="180">3.90282e-12</wgt>
  <wgt id="181">4.10686e-12</wgt>
  <wgt id="182">4.35797e-12</wgt>
  <wgt id="183">4.16614e-12</wgt>
  <wgt id="184">4.3026e-12</wgt>
  <wgt id="185">4.20659e-12</wgt>
  <wgt id="186">4.31893e-12</wgt>
  <wgt id="187">4.20664e-12</wgt>
  <wgt id="188">4.34646e-12</wgt>
  <wgt id="189">4.22171e-12</wgt>
  <wgt id="190">4.27174e-12</wgt>
  <wgt id="191">4.27355e-12</wgt>
  <wgt id="192">4.24768e-12</wgt>
  <wgt id="193">4.33368e-12</wgt>
  <wgt id="194">4.21884e-12</wgt>
  <wgt id="195">4.08439e-12</wgt>
  <wgt id="196">4.53685e-12</wgt>
  <wgt id="197">4.28127e-12</wgt>
  <wgt id="198">4.2515e-12</wgt>
  <wgt id="199">4.25735e-12</wgt>
  <wgt id="200">4.30061e-12</wgt>
  <wgt id="201">4.28615e-12</wgt>
  <wgt id="202">4.27196e-12</wgt>
  <wgt id="203">4.2518e-12</wgt>
  <wgt id="204">4.24152e-12</wgt>
  <wgt id="205">4.23322e-12</wgt>
  <wgt id="206">4.16167e-12</wgt>
  <wgt id="207">4.18698e-12</wgt>
  <wgt id="208">4.13657e-12</wgt>
  <wgt id="209">4.17534e-12</wgt>
  <wgt id="210">4.15171e-12</wgt>
  <wgt id="211">4.15995e-12</wgt>
  <wgt id="212">4.16295e-12</wgt>
  <wgt id="213">4.16127e-12</wgt>
  <wgt id="214">4.1622e-12</wgt>
  <wgt id="215">4.16509e-12</wgt>
  <wgt id="216">4.15919e-12</wgt>
  <wgt id="217">4.17134e-12</wgt>
  <wgt id="218">4.15418e-12</wgt>
  <wgt id="219">4.15728e-12</wgt>
  <wgt id="220">4.16426e-12</wgt>
  <wgt id="221">4.16366e-12</wgt>
  <wgt id="222">4.15589e-12</wgt>
  <wgt id="223">3.91278e-12</wgt>
  <wgt id="224">4.39056e-12</wgt>
  <wgt id="225">4.10773e-12</wgt>
  <wgt id="226">4.23048e-12</wgt>
  <wgt id="227">4.12005e-12</wgt>
  <wgt id="228">4.17994e-12</wgt>
  <wgt id="229">4.09928e-12</wgt>
  <wgt id="230">4.19271e-12</wgt>
  <wgt id="231">4.31193e-12</wgt>
  <wgt id="232">4.0392e-12</wgt>
  <wgt id="233">4.13345e-12</wgt>
  <wgt id="234">4.20934e-12</wgt>
  <wgt id="235">3.96688e-12</wgt>
  <wgt id="236">4.31958e-12</wgt>
  <wgt id="237">4.04948e-12</wgt>
  <wgt id="238">4.19902e-12</wgt>
  <wgt id="239">4.11679e-12</wgt>
  <wgt id="240">4.24205e-12</wgt>
  <wgt id="241">4.1073e-12</wgt>
  <wgt id="242">4.22594e-12</wgt>
  <wgt id="243">4.24459e-12</wgt>
  <wgt id="244">4.15789e-12</wgt>
  <wgt id="245">4.16035e-12</wgt>
  <wgt id="246">4.18418e-12</wgt>
  <wgt id="247">4.16167e-12</wgt>
  <wgt id="248">4.209e-12</wgt>
  <wgt id="249">4.19303e-12</wgt>
  <wgt id="250">4.17565e-12</wgt>
  <wgt id="251">4.15302e-12</wgt>
  <wgt id="252">4.14103e-12</wgt>
  <wgt id="253">4.13304e-12</wgt>
  <wgt id="254">4.00286e-12</wgt>
  <wgt id="255">4.00644e-12</wgt>
  <wgt id="256">3.99898e-12</wgt>
  <wgt id="257">4.00589e-12</wgt>
  <wgt id="258">4.00064e-12</wgt>
  <wgt id="259">4.02992e-12</wgt>
  <wgt id="260">3.9768e-12</wgt>
  <wgt id="261">4.01028e-12</wgt>
  <wgt id="262">3.99397e-12</wgt>
  <wgt id="263">3.99953e-12</wgt>
  <wgt id="264">4.00673e-12</wgt>
  <wgt id="265">3.99761e-12</wgt>
  <wgt id="266">4.01334e-12</wgt>
  <wgt id="267">4.00429e-12</wgt>
  <wgt id="268">4.00083e-12</wgt>
  <wgt id="269">4.01596e-12</wgt>
  <wgt id="270">3.9939e-12</wgt>
  <wgt id="271">3.99128e-12</wgt>
  <wgt id="272">4.01586e-12</wgt>
  <wgt id="273">3.99186e-12</wgt>
  <wgt id="274">4.01129e-12</wgt>
  <wgt id="275">3.97627e-12</wgt>
  <wgt id="276">4.03038e-12</wgt>
  <wgt id="277">3.97929e-12</wgt>
  <wgt id="278">4.02429e-12</wgt>
  <wgt id="279">3.92451e-12</wgt>
  <wgt id="280">4.10171e-12</wgt>
  <wgt id="281">3.98208e-12</wgt>
  <wgt id="282">4.01034e-12</wgt>
  <wgt id="283">3.8634e-12</wgt>
  <wgt id="284">4.17782e-12</wgt>
  <wgt id="285">3.77426e-12</wgt>
  <wgt id="286">4.19755e-12</wgt>
  <wgt id="287">4.01777e-12</wgt>
  <wgt id="288">3.98389e-12</wgt>
  <wgt id="289">4.03733e-12</wgt>
  <wgt id="290">3.92749e-12</wgt>
  <wgt id="291">3.98629e-12</wgt>
  <wgt id="292">4.00218e-12</wgt>
  <wgt id="293">3.96543e-12</wgt>
  <wgt id="294">4.04003e-12</wgt>
  <wgt id="295">3.91286e-12</wgt>
  <wgt id="296">4.11334e-12</wgt>
  <wgt id="297">3.98965e-12</wgt>
  <wgt id="298">4.02577e-12</wgt>
  <wgt id="299">3.98845e-12</wgt>
  <wgt id="300">4.04133e-12</wgt>
  <wgt id="301">3.90934e-12</wgt>
  <wgt id="302">4.21461e-12</wgt>
  <wgt id="303">3.95252e-12</wgt>
  <wgt id="304">4.03087e-12</wgt>
  <wgt id="305">3.95479e-12</wgt>
  <wgt id="306">3.95848e-12</wgt>
  <wgt id="307">3.95079e-12</wgt>
  <wgt id="308">3.95815e-12</wgt>
  <wgt id="309">3.95252e-12</wgt>
  <wgt id="310">3.98219e-12</wgt>
  <wgt id="311">3.92942e-12</wgt>
  <wgt id="312">3.96175e-12</wgt>
  <wgt id="313">3.94732e-12</wgt>
  <wgt id="314">3.95132e-12</wgt>
  <wgt id="315">3.95805e-12</wgt>
  <wgt id="316">3.9495e-12</wgt>
  <wgt id="317">3.96633e-12</wgt>
  <wgt id="318">3.95795e-12</wgt>
  <wgt id="319">3.94923e-12</wgt>
  <wgt id="320">3.96894e-12</wgt>
  <wgt id="321">3.94688e-12</wgt>
  <wgt id="322">3.94233e-12</wgt>
  <wgt id="323">3.96931e-12</wgt>
  <wgt id="324">3.94678e-12</wgt>
  <wgt id="325">3.9618e-12</wgt>
  <wgt id="326">3.93291e-12</wgt>
  <wgt id="327">3.98286e-12</wgt>
  <wgt id="328">3.93464e-12</wgt>
  <wgt id="329">3.96587e-12</wgt>
  <wgt id="330">4.07235e-12</wgt>
  <wgt id="331">3.84323e-12</wgt>
  <wgt id="332">3.93746e-12</wgt>
  <wgt id="333">3.9596e-12</wgt>
  <wgt id="334">3.84952e-12</wgt>
  <wgt id="335">4.08736e-12</wgt>
  <wgt id="336">3.79388e-12</wgt>
  <wgt id="337">4.15568e-12</wgt>
  <wgt id="338">4.00631e-12</wgt>
  <wgt id="339">3.90746e-12</wgt>
  <wgt id="340">3.9855e-12</wgt>
  <wgt id="341">3.87985e-12</wgt>
  <wgt id="342">3.94298e-12</wgt>
  <wgt id="343">3.94546e-12</wgt>
  <wgt id="344">3.92242e-12</wgt>
  <wgt id="345">3.99242e-12</wgt>
  <wgt id="346">3.8633e-12</wgt>
  <wgt id="347">4.05967e-12</wgt>
  <wgt id="348">3.94187e-12</wgt>
  <wgt id="349">3.97578e-12</wgt>
  <wgt id="350">3.93712e-12</wgt>
  <wgt id="351">3.99978e-12</wgt>
  <wgt id="352">3.86044e-12</wgt>
  <wgt id="353">4.15906e-12</wgt>
  <wgt id="354">3.88404e-12</wgt>
  <wgt id="355">3.99654e-12</wgt>
  <wgt id="356">4.00286e-12</wgt>
  <wgt id="357">3.95454e-12</wgt>
  <wgt id="358">3.95479e-12</wgt>
  <wgt id="359">3.99821e-12</wgt>
  <wgt id="360">4.08499e-12</wgt>
  <wgt id="361">4.02632e-12</wgt>
  <wgt id="362">4.1131e-12</wgt>
  <wgt id="363">4.10183e-12</wgt>
  <wgt id="364">4.07935e-12</wgt>
  <wgt id="365">4.06259e-12</wgt>
  <wgt id="366">4.04582e-12</wgt>
  <wgt id="367">4.01459e-12</wgt>
  <wgt id="368">3.99419e-12</wgt>
  <wgt id="369">3.97221e-12</wgt>
  <wgt id="370">4.02632e-12</wgt>
  <wgt id="371">4.04307e-12</wgt>
  <wgt id="372">4.03366e-12</wgt>
  <wgt id="373">4.02047e-12</wgt>
  <wgt id="374">4.02706e-12</wgt>
  <wgt id="375">4.69641e-12</wgt>
  <wgt id="376">4.69691e-12</wgt>
  <wgt id="377">4.69594e-12</wgt>
  <wgt id="378">4.71477e-12</wgt>
  <wgt id="379">4.67833e-12</wgt>
  <wgt id="380">4.71003e-12</wgt>
  <wgt id="381">4.69106e-12</wgt>
  <wgt id="382">4.71906e-12</wgt>
  <wgt id="383">4.67418e-12</wgt>
  <wgt id="384">4.69959e-12</wgt>
  <wgt id="385">4.69357e-12</wgt>
  <wgt id="386">4.71202e-12</wgt>
  <wgt id="387">4.68981e-12</wgt>
  <wgt id="388">4.69236e-12</wgt>
  <wgt id="389">4.70164e-12</wgt>
  <wgt id="390">4.70722e-12</wgt>
  <wgt id="391">4.68504e-12</wgt>
  <wgt id="392">4.65078e-12</wgt>
  <wgt id="393">4.72233e-12</wgt>
  <wgt id="394">4.69934e-12</wgt>
  <wgt id="395">4.6923e-12</wgt>
  <wgt id="396">4.70627e-12</wgt>
  <wgt id="397">4.68955e-12</wgt>
  <wgt id="398">4.6877e-12</wgt>
  <wgt id="399">4.70487e-12</wgt>
  <wgt id="400">4.68835e-12</wgt>
  <wgt id="401">4.71494e-12</wgt>
  <wgt id="402">4.64874e-12</wgt>
  <wgt id="403">4.72881e-12</wgt>
  <wgt id="404">4.8457e-12</wgt>
  <wgt id="405">4.34377e-12</wgt>
  <wgt id="406">4.58942e-12</wgt>
  <wgt id="407">4.93571e-12</wgt>
  <wgt id="408">4.75265e-12</wgt>
  <wgt id="409">4.59353e-12</wgt>
  <wgt id="410">4.5236e-12</wgt>
  <wgt id="411">4.78048e-12</wgt>
  <wgt id="412">4.68463e-12</wgt>
  <wgt id="413">4.71403e-12</wgt>
  <wgt id="414">4.62787e-12</wgt>
  <wgt id="415">4.74991e-12</wgt>
  <wgt id="416">4.87501e-12</wgt>
  <wgt id="417">4.45297e-12</wgt>
  <wgt id="418">4.70701e-12</wgt>
  <wgt id="419">4.63982e-12</wgt>
  <wgt id="420">4.83238e-12</wgt>
  <wgt id="421">4.6051e-12</wgt>
  <wgt id="422">4.65939e-12</wgt>
  <wgt id="423">4.71357e-12</wgt>
  <wgt id="424">4.85832e-12</wgt>
  <wgt id="425">4.58613e-12</wgt>
  <wgt id="426">4.69641e-12</wgt>
  <wgt id="427">4.58478e-12</wgt>
  <wgt id="428">4.94677e-12</wgt>
  <wgt id="429">4.76984e-12</wgt>
  <wgt id="430">4.94165e-12</wgt>
  <wgt id="431">4.90622e-12</wgt>
  <wgt id="432">4.87473e-12</wgt>
  <wgt id="433">4.84381e-12</wgt>
  <wgt id="434">4.80371e-12</wgt>
  <wgt id="435">4.72758e-12</wgt>
  <wgt id="436">4.68943e-12</wgt>
  <wgt id="437">4.6519e-12</wgt>
  <wgt id="438">4.76984e-12</wgt>
  <wgt id="439">4.78432e-12</wgt>
  <wgt id="440">4.77519e-12</wgt>
  <wgt id="441">4.76633e-12</wgt>
  <wgt id="442">4.76365e-12</wgt>
  <wgt id="443">4.20067e-12</wgt>
  <wgt id="444">4.25093e-12</wgt>
  <wgt id="445">4.25407e-12</wgt>
  <wgt id="446">4.17021e-12</wgt>
  <wgt id="447">4.19988e-12</wgt>
  <wgt id="448">4.09633e-12</wgt>
  <wgt id="449">4.30059e-12</wgt>
  <wgt id="450">4.26493e-12</wgt>
  <wgt id="451">4.18782e-12</wgt>
  <wgt id="452">4.2976e-12</wgt>
  <wgt id="453">4.26533e-12</wgt>
  <wgt id="454">3.96209e-12</wgt>
  <wgt id="455">4.24257e-12</wgt>
  <wgt id="456">4.29285e-12</wgt>
  <wgt id="457">4.21602e-12</wgt>
  <wgt id="458">4.28137e-12</wgt>
  <wgt id="459">4.24035e-12</wgt>
  <wgt id="460">4.30027e-12</wgt>
  <wgt id="461">4.08878e-12</wgt>
  <wgt id="462">4.16628e-12</wgt>
  <wgt id="463">4.12699e-12</wgt>
  <wgt id="464">4.17834e-12</wgt>
  <wgt id="465">4.24871e-12</wgt>
  <wgt id="466">4.079e-12</wgt>
  <wgt id="467">4.16749e-12</wgt>
  <wgt id="468">4.19966e-12</wgt>
  <wgt id="469">4.18635e-12</wgt>
  <wgt id="470">4.12568e-12</wgt>
  <wgt id="471">4.13962e-12</wgt>
  <wgt id="472">4.2354e-12</wgt>
  <wgt id="473">4.04675e-12</wgt>
  <wgt id="474">3.0282e-12</wgt>
  <wgt id="475">3.03251e-12</wgt>
  <wgt id="476">3.03182e-12</wgt>
  <wgt id="477">3.13109e-12</wgt>
  <wgt id="478">3.08947e-12</wgt>
  <wgt id="479">2.83928e-12</wgt>
  <wgt id="480">3.20919e-12</wgt>
  <wgt id="481">3.05255e-12</wgt>
  <wgt id="482">3.05354e-12</wgt>
  <wgt id="483">3.1071e-12</wgt>
  <wgt id="484">3.17986e-12</wgt>
  <wgt id="485">2.72763e-12</wgt>
  <wgt id="486">3.18171e-12</wgt>
  <wgt id="487">2.91191e-12</wgt>
  <wgt id="488">3.03559e-12</wgt>
  <wgt id="489">2.65287e-12</wgt>
  <wgt id="490">3.00279e-12</wgt>
  <wgt id="491">2.97416e-12</wgt>
  <wgt id="492">2.97318e-12</wgt>
  <wgt id="493">2.74901e-12</wgt>
  <wgt id="494">2.75123e-12</wgt>
  <wgt id="495">3.05792e-12</wgt>
  <wgt id="496">2.83507e-12</wgt>
  <wgt id="497">2.80357e-12</wgt>
  <wgt id="498">3.1129e-12</wgt>
  <wgt id="499">3.0758e-12</wgt>
  <wgt id="500">3.03521e-12</wgt>
  <wgt id="501">3.17389e-12</wgt>
  <wgt id="502">3.21255e-12</wgt>
  <wgt id="503">2.95124e-12</wgt>
  <wgt id="504">3.13891e-12</wgt>
  <wgt id="505">3.1954e-12</wgt>
  <wgt id="506">2.73689e-12</wgt>
  <wgt id="507">2.92097e-12</wgt>
  <wgt id="508">3.20839e-12</wgt>
  <wgt id="509">2.94874e-12</wgt>
  <wgt id="510">3.03336e-12</wgt>
  <wgt id="511">2.85068e-12</wgt>
  <wgt id="512">3.28664e-12</wgt>
  <wgt id="513">3.18819e-12</wgt>
  <wgt id="514">3.25676e-12</wgt>
  <wgt id="515">3.16644e-12</wgt>
  <wgt id="516">3.4075e-12</wgt>
  <wgt id="517">3.10879e-12</wgt>
  <wgt id="518">3.17292e-12</wgt>
  <wgt id="519">2.90069e-12</wgt>
  <wgt id="520">3.04509e-12</wgt>
  <wgt id="521">2.91335e-12</wgt>
  <wgt id="522">3.1432e-12</wgt>
  <wgt id="523">2.86311e-12</wgt>
  <wgt id="524">3.14664e-12</wgt>
  <wgt id="525">2.91566e-12</wgt>
  <wgt id="526">3.23699e-12</wgt>
  <wgt id="527">2.98509e-12</wgt>
  <wgt id="528">2.9945e-12</wgt>
  <wgt id="529">2.83006e-12</wgt>
  <wgt id="530">3.21499e-12</wgt>
  <wgt id="531">2.87443e-12</wgt>
  <wgt id="532">3.31511e-12</wgt>
  <wgt id="533">3.05575e-12</wgt>
  <wgt id="534">2.86153e-12</wgt>
  <wgt id="535">3.10731e-12</wgt>
  <wgt id="536">3.17205e-12</wgt>
  <wgt id="537">2.82397e-12</wgt>
  <wgt id="538">2.99562e-12</wgt>
  <wgt id="539">2.94729e-12</wgt>
  <wgt id="540">3.19974e-12</wgt>
  <wgt id="541">3.01665e-12</wgt>
  <wgt id="542">2.92847e-12</wgt>
  <wgt id="543">2.87832e-12</wgt>
  <wgt id="544">3.04276e-12</wgt>
  <wgt id="545">2.82513e-12</wgt>
  <wgt id="546">2.75179e-12</wgt>
  <wgt id="547">2.89274e-12</wgt>
  <wgt id="548">2.9471e-12</wgt>
  <wgt id="549">2.96564e-12</wgt>
  <wgt id="550">2.88835e-12</wgt>
  <wgt id="551">3.01889e-12</wgt>
  <wgt id="552">2.7835e-12</wgt>
  <wgt id="553">2.77965e-12</wgt>
  <wgt id="554">3.16964e-12</wgt>
  <wgt id="555">3.09946e-12</wgt>
  <wgt id="556">3.00279e-12</wgt>
  <wgt id="557">3.07191e-12</wgt>
  <wgt id="558">3.00671e-12</wgt>
  <wgt id="559">3.0918e-12</wgt>
  <wgt id="560">3.36217e-12</wgt>
  <wgt id="561">3.15885e-12</wgt>
  <wgt id="562">3.14802e-12</wgt>
  <wgt id="563">3.3594e-12</wgt>
  <wgt id="564">3.23941e-12</wgt>
  <wgt id="565">3.21769e-12</wgt>
  <wgt id="566">2.86226e-12</wgt>
  <wgt id="567">3.04329e-12</wgt>
  <wgt id="568">2.87278e-12</wgt>
  <wgt id="569">3.06253e-12</wgt>
  <wgt id="570">3.1126e-12</wgt>
  <wgt id="571">3.3804e-12</wgt>
  <wgt id="572">2.88865e-12</wgt>
  <wgt id="573">2.93995e-12</wgt>
  <wgt id="574">2.96978e-12</wgt>
  <wgt id="575">3.35289e-12</wgt>
  <wgt id="576">3.73375e-12</wgt>
  <wgt id="577">3.47546e-12</wgt>
  <wgt id="578">3.34319e-12</wgt>
  <wgt id="579">3.48757e-12</wgt>
  <wgt id="580">3.57879e-12</wgt>
  <wgt id="581">3.72058e-12</wgt>
  <wgt id="582">3.63408e-12</wgt>
  <wgt id="583">3.45316e-12</wgt>
  <wgt id="584">3.31697e-12</wgt>
  <wgt id="585">3.05293e-12</wgt>
  <wgt id="586">3.12065e-12</wgt>
  <wgt id="587">3.42175e-12</wgt>
  <wgt id="588">3.80661e-12</wgt>
  <wgt id="589">3.75467e-12</wgt>
  <wgt id="590">3.34287e-12</wgt>
  <wgt id="591">3.44939e-12</wgt>
  <wgt id="592">3.16517e-12</wgt>
  <wgt id="593">3.22564e-12</wgt>
  <wgt id="594">3.21922e-12</wgt>
  <wgt id="595">3.60121e-12</wgt>
  <wgt id="596">4.02191e-12</wgt>
  <wgt id="597">3.42256e-12</wgt>
  <wgt id="598">3.47528e-12</wgt>
  <wgt id="599">3.6181e-12</wgt>
  <wgt id="600">3.70609e-12</wgt>
  <wgt id="601">3.19492e-12</wgt>
  <wgt id="602">3.21201e-12</wgt>
  <wgt id="603">3.08604e-12</wgt>
  <wgt id="604">3.47024e-12</wgt>
  <wgt id="605">3.34628e-12</wgt>
  <wgt id="606">3.39509e-12</wgt>
  <wgt id="607">3.57229e-12</wgt>
  <wgt id="608">3.48686e-12</wgt>
  <wgt id="609">3.31307e-12</wgt>
  <wgt id="610">3.17076e-12</wgt>
  <wgt id="611">3.15372e-12</wgt>
  <wgt id="612">3.43389e-12</wgt>
  <wgt id="613">3.15132e-12</wgt>
  <wgt id="614">3.32349e-12</wgt>
  <wgt id="615">3.46088e-12</wgt>
  <wgt id="616">3.11294e-12</wgt>
  <wgt id="617">3.50274e-12</wgt>
  <wgt id="618">3.70116e-12</wgt>
  <wgt id="619">3.28315e-12</wgt>
  <wgt id="620">3.44278e-12</wgt>
  <wgt id="621">3.2991e-12</wgt>
  <wgt id="622">3.42175e-12</wgt>
  <wgt id="623">3.33042e-12</wgt>
  <wgt id="624">3.35616e-12</wgt>
  <wgt id="625">3.1604e-12</wgt>
  <wgt id="626">2.85238e-12</wgt>
  <wgt id="627">2.96271e-12</wgt>
  <wgt id="628">3.31769e-12</wgt>
  <wgt id="629">3.56521e-12</wgt>
  <wgt id="630">3.27917e-12</wgt>
  <wgt id="631">3.48108e-12</wgt>
  <wgt id="632">3.0263e-12</wgt>
  <wgt id="633">3.32487e-12</wgt>
  <wgt id="634">3.17582e-12</wgt>
  <wgt id="635">3.07912e-12</wgt>
  <wgt id="636">3.36638e-12</wgt>
  <wgt id="637">3.35785e-12</wgt>
  <wgt id="638">3.16539e-12</wgt>
  <wgt id="639">3.15723e-12</wgt>
  <wgt id="640">3.22523e-12</wgt>
  <wgt id="641">3.54828e-12</wgt>
  <wgt id="642">2.95814e-12</wgt>
  <wgt id="643">3.23686e-12</wgt>
  <wgt id="644">3.01e-12</wgt>
  <wgt id="645">3.34728e-12</wgt>
  <wgt id="646">2.9803e-12</wgt>
  <wgt id="647">3.44207e-12</wgt>
  <wgt id="648">3.565e-12</wgt>
  <wgt id="649">3.37951e-12</wgt>
  <wgt id="650">3.211e-12</wgt>
  <wgt id="651">3.60346e-12</wgt>
  <wgt id="652">3.17818e-12</wgt>
  <wgt id="653">3.20202e-12</wgt>
  <wgt id="654">3.44402e-12</wgt>
  <wgt id="655">3.14562e-12</wgt>
  <wgt id="656">3.37078e-12</wgt>
  <wgt id="657">3.70458e-12</wgt>
  <wgt id="658">3.34995e-12</wgt>
  <wgt id="659">3.20683e-12</wgt>
  <wgt id="660">3.17222e-12</wgt>
  <wgt id="661">3.23797e-12</wgt>
  <wgt id="662">3.29134e-12</wgt>
  <wgt id="663">3.43477e-12</wgt>
  <wgt id="664">3.43722e-12</wgt>
  <wgt id="665">3.28345e-12</wgt>
  <wgt id="666">3.25568e-12</wgt>
  <wgt id="667">3.56087e-12</wgt>
  <wgt id="668">3.28271e-12</wgt>
  <wgt id="669">3.30586e-12</wgt>
  <wgt id="670">3.54756e-12</wgt>
  <wgt id="671">3.40957e-12</wgt>
  <wgt id="672">3.32206e-12</wgt>
  <wgt id="673">3.63902e-12</wgt>
  <wgt id="674">3.22926e-12</wgt>
  <wgt id="675">3.17157e-12</wgt>
  <wgt id="676">4.39865e-12</wgt>
  <wgt id="677">4.42981e-12</wgt>
  <wgt id="678">4.92383e-12</wgt>
  <wgt id="679">4.68302e-12</wgt>
  <wgt id="680">4.45037e-12</wgt>
  <wgt id="681">4.24325e-12</wgt>
  <wgt id="682">4.6458e-12</wgt>
  <wgt id="683">3.92269e-12</wgt>
  <wgt id="684">4.70092e-12</wgt>
  <wgt id="685">4.42331e-12</wgt>
  <wgt id="686">4.61286e-12</wgt>
  <wgt id="687">4.53018e-12</wgt>
  <wgt id="688">4.24369e-12</wgt>
  <wgt id="689">4.65086e-12</wgt>
  <wgt id="690">4.54149e-12</wgt>
  <wgt id="691">4.49031e-12</wgt>
  <wgt id="692">4.25571e-12</wgt>
  <wgt id="693">6.15409e-12</wgt>
  <wgt id="694">4.93323e-12</wgt>
  <wgt id="695">4.02077e-12</wgt>
  <wgt id="696">4.13487e-12</wgt>
  <wgt id="697">3.83125e-12</wgt>
  <wgt id="698">3.48116e-12</wgt>
  <wgt id="699">3.63562e-12</wgt>
  <wgt id="700">3.85989e-12</wgt>
  <wgt id="701">4.39772e-12</wgt>
  <wgt id="702">4.13539e-12</wgt>
  <wgt id="703">5.7063e-12</wgt>
  <wgt id="704">5.02116e-12</wgt>
  <wgt id="705">4.99889e-12</wgt>
  <wgt id="706">4.0097e-12</wgt>
  <wgt id="707">4.06094e-12</wgt>
  <wgt id="708">4.11896e-12</wgt>
  <wgt id="709">4.22149e-12</wgt>
  <wgt id="710">3.44468e-12</wgt>
  <wgt id="711">4.84232e-12</wgt>
  <wgt id="712">4.07788e-12</wgt>
  <wgt id="713">4.74937e-12</wgt>
  <wgt id="714">3.83766e-12</wgt>
  <wgt id="715">4.12263e-12</wgt>
  <wgt id="716">4.20326e-12</wgt>
  <wgt id="717">3.67607e-12</wgt>
  <wgt id="718">4.50347e-12</wgt>
  <wgt id="719">4.01285e-12</wgt>
  <wgt id="720">4.60039e-12</wgt>
  <wgt id="721">3.69941e-12</wgt>
  <wgt id="722">3.25244e-12</wgt>
  <wgt id="723">5.09327e-12</wgt>
  <wgt id="724">4.84889e-12</wgt>
  <wgt id="725">4.63577e-12</wgt>
  <wgt id="726">4.36778e-12</wgt>
  <wgt id="727">4.45492e-12</wgt>
  <wgt id="728">4.3935e-12</wgt>
  <wgt id="729">3.83489e-12</wgt>
  <wgt id="730">4.97461e-12</wgt>
  <wgt id="731">4.34873e-12</wgt>
  <wgt id="732">5.24875e-12</wgt>
  <wgt id="733">4.00676e-12</wgt>
  <wgt id="734">4.59051e-12</wgt>
  <wgt id="735">4.33233e-12</wgt>
  <wgt id="736">3.99549e-12</wgt>
  <wgt id="737">3.86844e-12</wgt>
  <wgt id="738">4.15154e-12</wgt>
  <wgt id="739">4.63715e-12</wgt>
  <wgt id="740">5.40297e-12</wgt>
  <wgt id="741">4.78902e-12</wgt>
  <wgt id="742">4.0841e-12</wgt>
  <wgt id="743">3.94524e-12</wgt>
  <wgt id="744">4.29236e-12</wgt>
  <wgt id="745">4.94438e-12</wgt>
  <wgt id="746">5.09269e-12</wgt>
  <wgt id="747">3.55055e-12</wgt>
  <wgt id="748">4.17794e-12</wgt>
  <wgt id="749">4.62691e-12</wgt>
  <wgt id="750">4.79091e-12</wgt>
  <wgt id="751">4.45071e-12</wgt>
  <wgt id="752">3.90086e-12</wgt>
  <wgt id="753">3.84767e-12</wgt>
  <wgt id="754">4.60179e-12</wgt>
  <wgt id="755">4.2531e-12</wgt>
  <wgt id="756">4.21902e-12</wgt>
  <wgt id="757">3.68367e-12</wgt>
  <wgt id="758">4.2651e-12</wgt>
  <wgt id="759">4.80978e-12</wgt>
  <wgt id="760">4.1397e-12</wgt>
  <wgt id="761">5.01557e-12</wgt>
  <wgt id="762">5.04365e-12</wgt>
  <wgt id="763">4.62039e-12</wgt>
  <wgt id="764">4.79571e-12</wgt>
  <wgt id="765">4.45799e-12</wgt>
  <wgt id="766">4.50386e-12</wgt>
  <wgt id="767">4.51385e-12</wgt>
  <wgt id="768">3.92876e-12</wgt>
  <wgt id="769">4.62224e-12</wgt>
  <wgt id="770">3.98626e-12</wgt>
  <wgt id="771">5.59196e-12</wgt>
  <wgt id="772">4.26679e-12</wgt>
  <wgt id="773">4.46467e-12</wgt>
  <wgt id="774">3.37515e-12</wgt>
  <wgt id="775">4.63556e-12</wgt>
  <wgt id="776">5.30887e-12</wgt>
  <wgt id="777">3.73651e-12</wgt>
  <wgt id="778">2.69538e-12</wgt>
  <wgt id="779">1.40605e-12</wgt>
  <wgt id="780">6.01239e-13</wgt>
  <wgt id="781">3.00246e-12</wgt>
  <wgt id="782">3.3998e-12</wgt>
  <wgt id="783">1.09249e-12</wgt>
  <wgt id="784">1.62505e-12</wgt>
  <wgt id="785">4.30841e-12</wgt>
  <wgt id="786">1.03352e-12</wgt>
  <wgt id="787">3.76679e-12</wgt>
  <wgt id="788">1.02252e-20</wgt>
  <wgt id="789">1.5696e-12</wgt>
  <wgt id="790">1.15015e-12</wgt>
  <wgt id="791">3.28248e-12</wgt>
  <wgt id="792">3.74614e-12</wgt>
  <wgt id="793">2.38629e-12</wgt>
  <wgt id="794">9.7727e-13</wgt>
  <wgt id="795">4.07831e-12</wgt>
  <wgt id="796">4.08756e-12</wgt>
  <wgt id="797">3.62849e-12</wgt>
  <wgt id="798">1.86514e-12</wgt>
  <wgt id="799">3.73615e-12</wgt>
  <wgt id="800">1.88727e-12</wgt>
  <wgt id="801">2.84065e-12</wgt>
  <wgt id="802">9.35378e-13</wgt>
  <wgt id="803">4.58805e-12</wgt>
  <wgt id="804">4.0849e-12</wgt>
  <wgt id="805">3.96038e-12</wgt>
  <wgt id="806">3.09628e-12</wgt>
  <wgt id="807">2.70905e-12</wgt>
  <wgt id="808">2.66271e-12</wgt>
  <wgt id="809">2.3345e-12</wgt>
  <wgt id="810">3.81225e-12</wgt>
  <wgt id="811">2.88343e-12</wgt>
  <wgt id="812">1.18256e-12</wgt>
  <wgt id="813">1.31935e-12</wgt>
  <wgt id="814">1.64718e-12</wgt>
  <wgt id="815">1.16668e-12</wgt>
  <wgt id="816">1.48193e-12</wgt>
  <wgt id="817">2.80859e-12</wgt>
  <wgt id="818">4.01401e-12</wgt>
  <wgt id="819">1.35814e-12</wgt>
  <wgt id="820">2.45852e-12</wgt>
  <wgt id="821">3.48583e-12</wgt>
  <wgt id="822">2.09796e-12</wgt>
  <wgt id="823">3.75123e-12</wgt>
  <wgt id="824">4.27139e-12</wgt>
  <wgt id="825">7.58885e-13</wgt>
  <wgt id="826">3.77395e-12</wgt>
  <wgt id="827">7.70752e-13</wgt>
  <wgt id="828">3.62073e-12</wgt>
  <wgt id="829">2.82816e-12</wgt>
  <wgt id="830">7.44633e-13</wgt>
  <wgt id="831">3.43416e-12</wgt>
  <wgt id="832">5.32601e-12</wgt>
  <wgt id="833">1.99208e-12</wgt>
  <wgt id="834">5.26692e-12</wgt>
  <wgt id="835">1.59778e-12</wgt>
  <wgt id="836">1.97212e-12</wgt>
  <wgt id="837">3.37724e-12</wgt>
  <wgt id="838">1.92704e-12</wgt>
  <wgt id="839">3.47058e-12</wgt>
  <wgt id="840">2.21894e-12</wgt>
  <wgt id="841">4.13198e-12</wgt>
  <wgt id="842">2.8417e-12</wgt>
  <wgt id="843">2.96038e-12</wgt>
  <wgt id="844">3.20637e-12</wgt>
  <wgt id="845">5.39543e-12</wgt>
  <wgt id="846">2.49119e-12</wgt>
  <wgt id="847">3.01502e-12</wgt>
  <wgt id="848">1.21389e-12</wgt>
  <wgt id="849">3.15268e-12</wgt>
  <wgt id="850">4.70944e-12</wgt>
  <wgt id="851">3.43189e-12</wgt>
  <wgt id="852">8.39803e-13</wgt>
  <wgt id="853">3.62892e-12</wgt>
  <wgt id="854">4.22355e-12</wgt>
  <wgt id="855">3.57437e-12</wgt>
  <wgt id="856">7.24839e-13</wgt>
  <wgt id="857">2.16216e-12</wgt>
  <wgt id="858">2.64848e-12</wgt>
  <wgt id="859">2.6195e-12</wgt>
  <wgt id="860">3.73577e-12</wgt>
  <wgt id="861">2.06073e-12</wgt>
  <wgt id="862">2.86992e-12</wgt>
  <wgt id="863">3.34731e-12</wgt>
  <wgt id="864">2.77583e-12</wgt>
  <wgt id="865">4.91667e-12</wgt>
  <wgt id="866">5.36776e-12</wgt>
  <wgt id="867">2.75457e-12</wgt>
  <wgt id="868">3.00921e-12</wgt>
  <wgt id="869">1.12379e-12</wgt>
  <wgt id="870">1.62533e-12</wgt>
  <wgt id="871">1.77402e-12</wgt>
  <wgt id="872">4.447e-12</wgt>
  <wgt id="873">1.99752e-12</wgt>
  <wgt id="874">3.17778e-12</wgt>
  <wgt id="875">1.84958e-12</wgt>
  <wgt id="876">4.174e-12</wgt>
  <wgt id="877">3.24798e-12</wgt>
  <wgt id="878">2.11292e-12</wgt>
  <wgt id="879">4.39865e-12</wgt>
  <wgt id="880">4.42981e-12</wgt>
  <wgt id="881">4.92383e-12</wgt>
  <wgt id="882">4.68302e-12</wgt>
  <wgt id="883">4.45037e-12</wgt>
  <wgt id="884">4.24325e-12</wgt>
  <wgt id="885">4.6458e-12</wgt>
  <wgt id="886">3.92269e-12</wgt>
  <wgt id="887">4.70092e-12</wgt>
  <wgt id="888">4.42331e-12</wgt>
  <wgt id="889">4.61286e-12</wgt>
  <wgt id="890">4.53018e-12</wgt>
  <wgt id="891">4.24369e-12</wgt>
  <wgt id="892">4.65086e-12</wgt>
  <wgt id="893">4.54149e-12</wgt>
  <wgt id="894">4.49031e-12</wgt>
  <wgt id="895">4.25571e-12</wgt>
  <wgt id="896">6.15409e-12</wgt>
  <wgt id="897">4.93323e-12</wgt>
  <wgt id="898">4.02077e-12</wgt>
  <wgt id="899">4.13487e-12</wgt>
  <wgt id="900">3.83125e-12</wgt>
  <wgt id="901">3.48116e-12</wgt>
  <wgt id="902">3.63562e-12</wgt>
  <wgt id="903">3.85989e-12</wgt>
  <wgt id="904">4.39772e-12</wgt>
  <wgt id="905">4.13539e-12</wgt>
  <wgt id="906">5.7063e-12</wgt>
  <wgt id="907">5.02116e-12</wgt>
  <wgt id="908">4.99889e-12</wgt>
  <wgt id="909">4.0097e-12</wgt>
  <wgt id="910">4.06094e-12</wgt>
  <wgt id="911">4.11896e-12</wgt>
  <wgt id="912">4.22149e-12</wgt>
  <wgt id="913">3.44468e-12</wgt>
  <wgt id="914">4.84232e-12</wgt>
  <wgt id="915">4.07788e-12</wgt>
  <wgt id="916">4.74937e-12</wgt>
  <wgt id="917">3.83766e-12</wgt>
  <wgt id="918">4.12263e-12</wgt>
  <wgt id="919">4.20326e-12</wgt>
  <wgt id="920">3.67607e-12</wgt>
  <wgt id="921">4.50347e-12</wgt>
  <wgt id="922">4.01285e-12</wgt>
  <wgt id="923">4.60039e-12</wgt>
  <wgt id="924">3.69941e-12</wgt>
  <wgt id="925">3.25244e-12</wgt>
  <wgt id="926">5.09327e-12</wgt>
  <wgt id="927">4.84889e-12</wgt>
  <wgt id="928">4.63577e-12</wgt>
  <wgt id="929">4.36778e-12</wgt>
  <wgt id="930">4.45492e-12</wgt>
  <wgt id="931">4.3935e-12</wgt>
  <wgt id="932">3.83489e-12</wgt>
  <wgt id="933">4.97461e-12</wgt>
  <wgt id="934">4.34873e-12</wgt>
  <wgt id="935">5.24875e-12</wgt>
  <wgt id="936">4.00676e-12</wgt>
  <wgt id="937">4.59051e-12</wgt>
  <wgt id="938">4.33233e-12</wgt>
  <wgt id="939">3.99549e-12</wgt>
  <wgt id="940">3.86844e-12</wgt>
  <wgt id="941">4.15154e-12</wgt>
  <wgt id="942">4.63715e-12</wgt>
  <wgt id="943">5.40297e-12</wgt>
  <wgt id="944">4.78902e-12</wgt>
  <wgt id="945">4.0841e-12</wgt>
  <wgt id="946">3.94524e-12</wgt>
  <wgt id="947">4.29236e-12</wgt>
  <wgt id="948">4.94438e-12</wgt>
  <wgt id="949">5.09269e-12</wgt>
  <wgt id="950">3.55055e-12</wgt>
  <wgt id="951">4.17794e-12</wgt>
  <wgt id="952">4.62691e-12</wgt>
  <wgt id="953">4.79091e-12</wgt>
  <wgt id="954">4.45071e-12</wgt>
  <wgt id="955">3.90086e-12</wgt>
  <wgt id="956">3.84767e-12</wgt>
  <wgt id="957">4.60179e-12</wgt>
  <wgt id="958">4.2531e-12</wgt>
  <wgt id="959">4.21902e-12</wgt>
  <wgt id="960">3.68367e-12</wgt>
  <wgt id="961">4.2651e-12</wgt>
  <wgt id="962">4.80978e-12</wgt>
  <wgt id="963">4.1397e-12</wgt>
  <wgt id="964">5.01557e-12</wgt>
  <wgt id="965">5.04365e-12</wgt>
  <wgt id="966">4.62039e-12</wgt>
  <wgt id="967">4.79571e-12</wgt>
  <wgt id="968">4.45799e-12</wgt>
  <wgt id="969">4.50386e-12</wgt>
  <wgt id="970">4.51385e-12</wgt>
  <wgt id="971">3.92876e-12</wgt>
  <wgt id="972">4.62224e-12</wgt>
  <wgt id="973">3.98626e-12</wgt>
  <wgt id="974">5.59196e-12</wgt>
  <wgt id="975">4.26679e-12</wgt>
  <wgt id="976">4.46467e-12</wgt>
  <wgt id="977">3.37515e-12</wgt>
  <wgt id="978">4.63556e-12</wgt>
  <wgt id="979">5.30887e-12</wgt>
  <wgt id="980">4.36317e-12</wgt>
  <wgt id="981">4.53742e-12</wgt>
  <wgt id="982">4.27465e-12</wgt>
</rwgt>
</event>
<event>
 5   1  0.3028200E-11  0.2444267E+04  0.7818608E-02  0.7662651E-01
       21   -1    0    0  502  501  0.00000000000E+00  0.00000000000E+00  0.14123897447E+04  0.14123897447E+04  0.00000000000E+00 0.  1.
       21   -1    0    0  501  502 -0.00000000000E+00 -0.00000000000E+00 -0.10575057568E+04  0.10575057568E+04  0.00000000000E+00 0. -1.
       39    2    1    2    0    0  0.00000000000E+00  0.00000000000E+00  0.35488398786E+03  0.24698955015E+04  0.24442669952E+04 0.  0.
       25    1    3    3    0    0 -0.49611254258E+02  0.10482104458E+04  0.79770118101E+03  0.13240689519E+04  0.12500000000E+03 0.  0.
       25    1    3    3    0    0  0.49611254258E+02 -0.10482104458E+04 -0.44281719315E+03  0.11458265496E+04  0.12500000000E+03 0.  0.
<mgrwt>
<rscale>  0 0.24442670E+04</rscale>
<asrwt>0</asrwt>
<pdfrwt beam="1">  1       21 0.21729073E+00 0.24442670E+04</pdfrwt>
<pdfrwt beam="2">  1       21 0.16269319E+00 0.24442670E+04</pdfrwt>
<totfact> 0.88533315E+00</totfact>
</mgrwt>
<rwgt>
  <wgt id="1">3.0282e-12</wgt>
  <wgt id="2">2.62877e-12</wgt>
  <wgt id="3">3.52571e-12</wgt>
  <wgt id="4">3.0282e-12</wgt>
  <wgt id="5">2.62877e-12</wgt>
  <wgt id="6">3.52571e-12</wgt>
  <wgt id="7">3.0282e-12</wgt>
  <wgt id="8">2.62877e-12</wgt>
  <wgt id="9">3.52571e-12</wgt>
  <wgt id="10">3.14827e-12</wgt>
  <wgt id="11">3.14513e-12</wgt>
  <wgt id="12">3.14203e-12</wgt>
  <wgt id="13">3.13736e-12</wgt>
  <wgt id="14">3.16005e-12</wgt>
  <wgt id="15">3.15319e-12</wgt>
  <wgt id="16">3.14232e-12</wgt>
  <wgt id="17">3.15383e-12</wgt>
  <wgt id="18">3.14168e-12</wgt>
  <wgt id="19">3.15589e-12</wgt>
  <wgt id="20">3.13873e-12</wgt>
  <wgt id="21">3.12901e-12</wgt>
  <wgt id="22">3.13659e-12</wgt>
  <wgt id="23">3.11921e-12</wgt>
  <wgt id="24">3.13395e-12</wgt>
  <wgt id="25">3.14095e-12</wgt>
  <wgt id="26">3.16161e-12</wgt>
  <wgt id="27">3.14831e-12</wgt>
  <wgt id="28">3.13401e-12</wgt>
  <wgt id="29">3.15097e-12</wgt>
  <wgt id="30">3.14095e-12</wgt>
  <wgt id="31">3.15683e-12</wgt>
  <wgt id="32">3.14445e-12</wgt>
  <wgt id="33">3.15676e-12</wgt>
  <wgt id="34">3.13804e-12</wgt>
  <wgt id="35">3.1475e-12</wgt>
  <wgt id="36">3.15976e-12</wgt>
  <wgt id="37">3.14011e-12</wgt>
  <wgt id="38">3.13815e-12</wgt>
  <wgt id="39">3.1806e-12</wgt>
  <wgt id="40">3.15432e-12</wgt>
  <wgt id="41">3.14762e-12</wgt>
  <wgt id="42">3.1537e-12</wgt>
  <wgt id="43">3.14792e-12</wgt>
  <wgt id="44">3.13997e-12</wgt>
  <wgt id="45">3.15653e-12</wgt>
  <wgt id="46">3.15412e-12</wgt>
  <wgt id="47">3.13725e-12</wgt>
  <wgt id="48">3.14797e-12</wgt>
  <wgt id="49">3.15135e-12</wgt>
  <wgt id="50">3.16461e-12</wgt>
  <wgt id="51">3.16228e-12</wgt>
  <wgt id="52">3.14824e-12</wgt>
  <wgt id="53">3.12336e-12</wgt>
  <wgt id="54">3.14104e-12</wgt>
  <wgt id="55">3.14823e-12</wgt>
  <wgt id="56">3.16016e-12</wgt>
  <wgt id="57">3.15829e-12</wgt>
  <wgt id="58">3.12651e-12</wgt>
  <wgt id="59">3.13667e-12</wgt>
  <wgt id="60">3.14936e-12</wgt>
  <wgt id="61">3.13741e-12</wgt>
  <wgt id="62">3.14516e-12</wgt>
  <wgt id="63">3.1499e-12</wgt>
  <wgt id="64">3.15146e-12</wgt>
  <wgt id="65">3.15218e-12</wgt>
  <wgt id="66">3.14361e-12</wgt>
  <wgt id="67">3.13985e-12</wgt>
  <wgt id="68">3.14499e-12</wgt>
  <wgt id="69">3.14833e-12</wgt>
  <wgt id="70">3.14627e-12</wgt>
  <wgt id="71">3.14803e-12</wgt>
  <wgt id="72">3.14366e-12</wgt>
  <wgt id="73">3.1506e-12</wgt>
  <wgt id="74">3.15067e-12</wgt>
  <wgt id="75">3.14499e-12</wgt>
  <wgt id="76">3.15742e-12</wgt>
  <wgt id="77">3.14756e-12</wgt>
  <wgt id="78">3.14863e-12</wgt>
  <wgt id="79">3.15505e-12</wgt>
  <wgt id="80">3.13439e-12</wgt>
  <wgt id="81">3.14469e-12</wgt>
  <wgt id="82">3.14834e-12</wgt>
  <wgt id="83">3.13512e-12</wgt>
  <wgt id="84">3.14178e-12</wgt>
  <wgt id="85">3.14143e-12</wgt>
  <wgt id="86">3.15715e-12</wgt>
  <wgt id="87">3.13066e-12</wgt>
  <wgt id="88">3.15232e-12</wgt>
  <wgt id="89">3.1514e-12</wgt>
  <wgt id="90">3.15383e-12</wgt>
  <wgt id="91">3.15097e-12</wgt>
  <wgt id="92">3.1547e-12</wgt>
  <wgt id="93">3.14846e-12</wgt>
  <wgt id="94">3.14499e-12</wgt>
  <wgt id="95">3.15147e-12</wgt>
  <wgt id="96">3.15084e-12</wgt>
  <wgt id="97">3.14315e-12</wgt>
  <wgt id="98">3.14976e-12</wgt>
  <wgt id="99">3.14563e-12</wgt>
  <wgt id="100">3.15167e-12</wgt>
  <wgt id="101">3.14751e-12</wgt>
  <wgt id="102">3.14491e-12</wgt>
  <wgt id="103">3.15307e-12</wgt>
  <wgt id="104">3.14607e-12</wgt>
  <wgt id="105">3.15198e-12</wgt>
  <wgt id="106">3.14364e-12</wgt>
  <wgt id="107">3.15744e-12</wgt>
  <wgt id="108">3.14485e-12</wgt>
  <wgt id="109">3.14907e-12</wgt>
  <wgt id="110">3.14814e-12</wgt>
  <wgt id="111">3.17599e-12</wgt>
  <wgt id="112">3.15044e-12</wgt>
  <wgt id="113">4.30107e-12</wgt>
  <wgt id="114">4.40778e-12</wgt>
  <wgt id="115">4.34593e-12</wgt>
  <wgt id="116">6.19175e-12</wgt>
  <wgt id="117">3.53418e-12</wgt>
  <wgt id="118">3.54728e-12</wgt>
  <wgt id="119">3.52669e-12</wgt>
  <wgt id="120">3.53442e-12</wgt>
  <wgt id="121">3.53405e-12</wgt>
  <wgt id="122">3.528e-12</wgt>
  <wgt id="123">3.54247e-12</wgt>
  <wgt id="124">3.52917e-12</wgt>
  <wgt id="125">3.53734e-12</wgt>
  <wgt id="126">3.54094e-12</wgt>
  <wgt id="127">3.52967e-12</wgt>
  <wgt id="128">3.54524e-12</wgt>
  <wgt id="129">3.52319e-12</wgt>
  <wgt id="130">3.55492e-12</wgt>
  <wgt id="131">3.51299e-12</wgt>
  <wgt id="132">3.44013e-12</wgt>
  <wgt id="133">3.64573e-12</wgt>
  <wgt id="134">3.49507e-12</wgt>
  <wgt id="135">3.56482e-12</wgt>
  <wgt id="136">3.58133e-12</wgt>
  <wgt id="137">3.47706e-12</wgt>
  <wgt id="138">3.67651e-12</wgt>
  <wgt id="139">3.39701e-12</wgt>
  <wgt id="140">3.51137e-12</wgt>
  <wgt id="141">3.5519e-12</wgt>
  <wgt id="142">3.53457e-12</wgt>
  <wgt id="143">3.53973e-12</wgt>
  <wgt id="144">3.42572e-12</wgt>
  <wgt id="145">3.63569e-12</wgt>
  <wgt id="146">3.56889e-12</wgt>
  <wgt id="147">3.50646e-12</wgt>
  <wgt id="148">3.54553e-12</wgt>
  <wgt id="149">3.53335e-12</wgt>
  <wgt id="150">3.56535e-12</wgt>
  <wgt id="151">3.51966e-12</wgt>
  <wgt id="152">3.53597e-12</wgt>
  <wgt id="153">3.53344e-12</wgt>
  <wgt id="154">3.56027e-12</wgt>
  <wgt id="155">3.50233e-12</wgt>
  <wgt id="156">3.61282e-12</wgt>
  <wgt id="157">3.4541e-12</wgt>
  <wgt id="158">4.25001e-12</wgt>
  <wgt id="159">4.26795e-12</wgt>
  <wgt id="160">4.23586e-12</wgt>
  <wgt id="161">4.23898e-12</wgt>
  <wgt id="162">4.26273e-12</wgt>
  <wgt id="163">4.2452e-12</wgt>
  <wgt id="164">4.25741e-12</wgt>
  <wgt id="165">4.25175e-12</wgt>
  <wgt id="166">4.24885e-12</wgt>
  <wgt id="167">4.247e-12</wgt>
  <wgt id="168">4.25458e-12</wgt>
  <wgt id="169">4.23208e-12</wgt>
  <wgt id="170">4.26141e-12</wgt>
  <wgt id="171">4.24527e-12</wgt>
  <wgt id="172">4.25702e-12</wgt>
  <wgt id="173">4.24911e-12</wgt>
  <wgt id="174">4.2504e-12</wgt>
  <wgt id="175">4.12752e-12</wgt>
  <wgt id="176">4.4104e-12</wgt>
  <wgt id="177">4.27377e-12</wgt>
  <wgt id="178">4.22847e-12</wgt>
  <wgt id="179">4.43632e-12</wgt>
  <wgt id="180">3.95746e-12</wgt>
  <wgt id="181">4.12159e-12</wgt>
  <wgt id="182">4.33502e-12</wgt>
  <wgt id="183">4.17178e-12</wgt>
  <wgt id="184">4.28908e-12</wgt>
  <wgt id="185">4.21437e-12</wgt>
  <wgt id="186">4.29407e-12</wgt>
  <wgt id="187">4.21073e-12</wgt>
  <wgt id="188">4.32112e-12</wgt>
  <wgt id="189">4.22144e-12</wgt>
  <wgt id="190">4.26182e-12</wgt>
  <wgt id="191">4.26225e-12</wgt>
  <wgt id="192">4.24293e-12</wgt>
  <wgt id="193">4.31352e-12</wgt>
  <wgt id="194">4.21885e-12</wgt>
  <wgt id="195">4.13293e-12</wgt>
  <wgt id="196">4.45303e-12</wgt>
  <wgt id="197">4.27207e-12</wgt>
  <wgt id="198">4.24497e-12</wgt>
  <wgt id="199">4.25001e-12</wgt>
  <wgt id="200">4.28752e-12</wgt>
  <wgt id="201">4.27409e-12</wgt>
  <wgt id="202">4.26077e-12</wgt>
  <wgt id="203">4.24098e-12</wgt>
  <wgt id="204">4.23151e-12</wgt>
  <wgt id="205">4.22393e-12</wgt>
  <wgt id="206">4.11303e-12</wgt>
  <wgt id="207">4.13728e-12</wgt>
  <wgt id="208">4.08921e-12</wgt>
  <wgt id="209">4.12684e-12</wgt>
  <wgt id="210">4.10327e-12</wgt>
  <wgt id="211">4.11151e-12</wgt>
  <wgt id="212">4.11442e-12</wgt>
  <wgt id="213">4.11283e-12</wgt>
  <wgt id="214">4.11367e-12</wgt>
  <wgt id="215">4.11641e-12</wgt>
  <wgt id="216">4.11081e-12</wgt>
  <wgt id="217">4.12514e-12</wgt>
  <wgt id="218">4.10378e-12</wgt>
  <wgt id="219">4.10961e-12</wgt>
  <wgt id="220">4.1154e-12</wgt>
  <wgt id="221">4.11163e-12</wgt>
  <wgt id="222">4.11692e-12</wgt>
  <wgt id="223">3.89032e-12</wgt>
  <wgt id="224">4.31637e-12</wgt>
  <wgt id="225">4.06215e-12</wgt>
  <wgt id="226">4.17736e-12</wgt>
  <wgt id="227">4.07348e-12</wgt>
  <wgt id="228">4.13052e-12</wgt>
  <wgt id="229">4.05483e-12</wgt>
  <wgt id="230">4.14224e-12</wgt>
  <wgt id="231">4.23426e-12</wgt>
  <wgt id="232">4.01381e-12</wgt>
  <wgt id="233">4.09101e-12</wgt>
  <wgt id="234">4.14859e-12</wgt>
  <wgt id="235">4.01796e-12</wgt>
  <wgt id="236">4.19893e-12</wgt>
  <wgt id="237">4.05062e-12</wgt>
  <wgt id="238">4.13443e-12</wgt>
  <wgt id="239">4.08646e-12</wgt>
  <wgt id="240">4.16145e-12</wgt>
  <wgt id="241">4.0698e-12</wgt>
  <wgt id="242">4.16556e-12</wgt>
  <wgt id="243">4.17061e-12</wgt>
  <wgt id="244">4.13101e-12</wgt>
  <wgt id="245">4.11068e-12</wgt>
  <wgt id="246">4.14229e-12</wgt>
  <wgt id="247">4.11303e-12</wgt>
  <wgt id="248">4.14969e-12</wgt>
  <wgt id="249">4.13571e-12</wgt>
  <wgt id="250">4.12281e-12</wgt>
  <wgt id="251">4.10351e-12</wgt>
  <wgt id="252">4.09433e-12</wgt>
  <wgt id="253">4.08793e-12</wgt>
  <wgt id="254">4.02799e-12</wgt>
  <wgt id="255">4.03179e-12</wgt>
  <wgt id="256">4.02376e-12</wgt>
  <wgt id="257">4.03087e-12</wgt>
  <wgt id="258">4.02587e-12</wgt>
  <wgt id="259">4.05495e-12</wgt>
  <wgt id="260">4.00195e-12</wgt>
  <wgt id="261">4.03445e-12</wgt>
  <wgt id="262">4.02008e-12</wgt>
  <wgt id="263">4.02584e-12</wgt>
  <wgt id="264">4.03029e-12</wgt>
  <wgt id="265">4.02299e-12</wgt>
  <wgt id="266">4.03794e-12</wgt>
  <wgt id="267">4.02923e-12</wgt>
  <wgt id="268">4.02601e-12</wgt>
  <wgt id="269">4.04156e-12</wgt>
  <wgt id="270">4.01872e-12</wgt>
  <wgt id="271">4.021e-12</wgt>
  <wgt id="272">4.03588e-12</wgt>
  <wgt id="273">4.01516e-12</wgt>
  <wgt id="274">4.03768e-12</wgt>
  <wgt id="275">4.01046e-12</wgt>
  <wgt id="276">4.04604e-12</wgt>
  <wgt id="277">4.0045e-12</wgt>
  <wgt id="278">4.0495e-12</wgt>
  <wgt id="279">3.9486e-12</wgt>
  <wgt id="280">4.12753e-12</wgt>
  <wgt id="281">4.00961e-12</wgt>
  <wgt id="282">4.0292e-12</wgt>
  <wgt id="283">3.90945e-12</wgt>
  <wgt id="284">4.174e-12</wgt>
  <wgt id="285">3.832e-12</wgt>
  <wgt id="286">4.19032e-12</wgt>
  <wgt id="287">4.0409e-12</wgt>
  <wgt id="288">4.0115e-12</wgt>
  <wgt id="289">4.05689e-12</wgt>
  <wgt id="290">3.96108e-12</wgt>
  <wgt id="291">4.01628e-12</wgt>
  <wgt id="292">4.03058e-12</wgt>
  <wgt id="293">3.99619e-12</wgt>
  <wgt id="294">4.05948e-12</wgt>
  <wgt id="295">3.95031e-12</wgt>
  <wgt id="296">4.12269e-12</wgt>
  <wgt id="297">4.02647e-12</wgt>
  <wgt id="298">4.04422e-12</wgt>
  <wgt id="299">4.0146e-12</wgt>
  <wgt id="300">4.06322e-12</wgt>
  <wgt id="301">3.9663e-12</wgt>
  <wgt id="302">4.17901e-12</wgt>
  <wgt id="303">3.99486e-12</wgt>
  <wgt id="304">4.04684e-12</wgt>
  <wgt id="305">4.0365e-12</wgt>
  <wgt id="306">4.04075e-12</wgt>
  <wgt id="307">4.03199e-12</wgt>
  <wgt id="308">4.03988e-12</wgt>
  <wgt id="309">4.03438e-12</wgt>
  <wgt id="310">4.06462e-12</wgt>
  <wgt id="311">4.01051e-12</wgt>
  <wgt id="312">4.04204e-12</wgt>
  <wgt id="313">4.03089e-12</wgt>
  <wgt id="314">4.03449e-12</wgt>
  <wgt id="315">4.03845e-12</wgt>
  <wgt id="316">4.0317e-12</wgt>
  <wgt id="317">4.04698e-12</wgt>
  <wgt id="318">4.03968e-12</wgt>
  <wgt id="319">4.03115e-12</wgt>
  <wgt id="320">4.05091e-12</wgt>
  <wgt id="321">4.02856e-12</wgt>
  <wgt id="322">4.02751e-12</wgt>
  <wgt id="323">4.04702e-12</wgt>
  <wgt id="324">4.02587e-12</wgt>
  <wgt id="325">4.04583e-12</wgt>
  <wgt id="326">4.02245e-12</wgt>
  <wgt id="327">4.05458e-12</wgt>
  <wgt id="328">4.01549e-12</wgt>
  <wgt id="329">4.04833e-12</wgt>
  <wgt id="330">4.15803e-12</wgt>
  <wgt id="331">3.92085e-12</wgt>
  <wgt id="332">4.02109e-12</wgt>
  <wgt id="333">4.03702e-12</wgt>
  <wgt id="334">3.94361e-12</wgt>
  <wgt id="335">4.15201e-12</wgt>
  <wgt id="336">3.89432e-12</wgt>
  <wgt id="337">4.20987e-12</wgt>
  <wgt id="338">4.08219e-12</wgt>
  <wgt id="339">3.9943e-12</wgt>
  <wgt id="340">4.06368e-12</wgt>
  <wgt id="341">3.9667e-12</wgt>
  <wgt id="342">4.02826e-12</wgt>
  <wgt id="343">4.03241e-12</wgt>
  <wgt id="344">4.00782e-12</wgt>
  <wgt id="345">4.06978e-12</wgt>
  <wgt id="346">3.9559e-12</wgt>
  <wgt id="347">4.12939e-12</wgt>
  <wgt id="348">4.03653e-12</wgt>
  <wgt id="349">4.05038e-12</wgt>
  <wgt id="350">4.01978e-12</wgt>
  <wgt id="351">4.07891e-12</wgt>
  <wgt id="352">3.96864e-12</wgt>
  <wgt id="353">4.19369e-12</wgt>
  <wgt id="354">3.9862e-12</wgt>
  <wgt id="355">4.06709e-12</wgt>
  <wgt id="356">4.02799e-12</wgt>
  <wgt id="357">4.05206e-12</wgt>
  <wgt id="358">4.0365e-12</wgt>
  <wgt id="359">4.04103e-12</wgt>
  <wgt id="360">4.05886e-12</wgt>
  <wgt id="361">4.04155e-12</wgt>
  <wgt id="362">4.11383e-12</wgt>
  <wgt id="363">4.10367e-12</wgt>
  <wgt id="364">4.08888e-12</wgt>
  <wgt id="365">4.07466e-12</wgt>
  <wgt id="366">4.05892e-12</wgt>
  <wgt id="367">4.02696e-12</wgt>
  <wgt id="368">4.00918e-12</wgt>
  <wgt id="369">3.98991e-12</wgt>
  <wgt id="370">4.04155e-12</wgt>
  <wgt id="371">4.05987e-12</wgt>
  <wgt id="372">4.04986e-12</wgt>
  <wgt id="373">4.03487e-12</wgt>
  <wgt id="374">4.03409e-12</wgt>
  <wgt id="375">4.33526e-12</wgt>
  <wgt id="376">4.33584e-12</wgt>
  <wgt id="377">4.33437e-12</wgt>
  <wgt id="378">4.35114e-12</wgt>
  <wgt id="379">4.31938e-12</wgt>
  <wgt id="380">4.34671e-12</wgt>
  <wgt id="381">4.33066e-12</wgt>
  <wgt id="382">4.3585e-12</wgt>
  <wgt id="383">4.31213e-12</wgt>
  <wgt id="384">4.33812e-12</wgt>
  <wgt id="385">4.33246e-12</wgt>
  <wgt id="386">4.35329e-12</wgt>
  <wgt id="387">4.32738e-12</wgt>
  <wgt id="388">4.33091e-12</wgt>
  <wgt id="389">4.34031e-12</wgt>
  <wgt id="390">4.3473e-12</wgt>
  <wgt id="391">4.32256e-12</wgt>
  <wgt id="392">4.30019e-12</wgt>
  <wgt id="393">4.35518e-12</wgt>
  <wgt id="394">4.34132e-12</wgt>
  <wgt id="395">4.32693e-12</wgt>
  <wgt id="396">4.33893e-12</wgt>
  <wgt id="397">4.33266e-12</wgt>
  <wgt id="398">4.3157e-12</wgt>
  <wgt id="399">4.35418e-12</wgt>
  <wgt id="400">4.32759e-12</wgt>
  <wgt id="401">4.3525e-12</wgt>
  <wgt id="402">4.29858e-12</wgt>
  <wgt id="403">4.35191e-12</wgt>
  <wgt id="404">4.43873e-12</wgt>
  <wgt id="405">4.08603e-12</wgt>
  <wgt id="406">4.26098e-12</wgt>
  <wgt id="407">4.49655e-12</wgt>
  <wgt id="408">4.3734e-12</wgt>
  <wgt id="409">4.26247e-12</wgt>
  <wgt id="410">4.21386e-12</wgt>
  <wgt id="411">4.39169e-12</wgt>
  <wgt id="412">4.32725e-12</wgt>
  <wgt id="413">4.3472e-12</wgt>
  <wgt id="414">4.28672e-12</wgt>
  <wgt id="415">4.37301e-12</wgt>
  <wgt id="416">4.45497e-12</wgt>
  <wgt id="417">4.17003e-12</wgt>
  <wgt id="418">4.34122e-12</wgt>
  <wgt id="419">4.30297e-12</wgt>
  <wgt id="420">4.40689e-12</wgt>
  <wgt id="421">4.29315e-12</wgt>
  <wgt id="422">4.32585e-12</wgt>
  <wgt id="423">4.34043e-12</wgt>
  <wgt id="424">4.42954e-12</wgt>
  <wgt id="425">4.27535e-12</wgt>
  <wgt id="426">4.33526e-12</wgt>
  <wgt id="427">4.29296e-12</wgt>
  <wgt id="428">4.45708e-12</wgt>
  <wgt id="429">4.37692e-12</wgt>
  <wgt id="430">4.50251e-12</wgt>
  <wgt id="431">4.47731e-12</wgt>
  <wgt id="432">4.45368e-12</wgt>
  <wgt id="433">4.43074e-12</wgt>
  <wgt id="434">4.40278e-12</wgt>
  <wgt id="435">4.34476e-12</wgt>
  <wgt id="436">4.31509e-12</wgt>
  <wgt id="437">4.28666e-12</wgt>
  <wgt id="438">4.37692e-12</wgt>
  <wgt id="439">4.39139e-12</wgt>
  <wgt id="440">4.38287e-12</wgt>
  <wgt id="441">4.37256e-12</wgt>
  <wgt id="442">4.36889e-12</wgt>
  <wgt id="443">4.21736e-12</wgt>
  <wgt id="444">4.24276e-12</wgt>
  <wgt id="445">4.20055e-12</wgt>
  <wgt id="446">4.18979e-12</wgt>
  <wgt id="447">4.20225e-12</wgt>
  <wgt id="448">4.10326e-12</wgt>
  <wgt id="449">4.28467e-12</wgt>
  <wgt id="450">4.20407e-12</wgt>
  <wgt id="451">4.20999e-12</wgt>
  <wgt id="452">4.31559e-12</wgt>
  <wgt id="453">4.2602e-12</wgt>
  <wgt id="454">4.04595e-12</wgt>
  <wgt id="455">4.22321e-12</wgt>
  <wgt id="456">4.18519e-12</wgt>
  <wgt id="457">4.23569e-12</wgt>
  <wgt id="458">4.2672e-12</wgt>
  <wgt id="459">4.24648e-12</wgt>
  <wgt id="460">4.24237e-12</wgt>
  <wgt id="461">4.13561e-12</wgt>
  <wgt id="462">4.18084e-12</wgt>
  <wgt id="463">4.16944e-12</wgt>
  <wgt id="464">4.19193e-12</wgt>
  <wgt id="465">4.26404e-12</wgt>
  <wgt id="466">4.16588e-12</wgt>
  <wgt id="467">4.17459e-12</wgt>
  <wgt id="468">4.20541e-12</wgt>
  <wgt id="469">4.20452e-12</wgt>
  <wgt id="470">4.1784e-12</wgt>
  <wgt id="471">4.17799e-12</wgt>
  <wgt id="472">4.23811e-12</wgt>
  <wgt id="473">4.07388e-12</wgt>
  <wgt id="474">3.0282e-12</wgt>
  <wgt id="475">3.20601e-12</wgt>
  <wgt id="476">2.95921e-12</wgt>
  <wgt id="477">2.91493e-12</wgt>
  <wgt id="478">3.04337e-12</wgt>
  <wgt id="479">2.96197e-12</wgt>
  <wgt id="480">3.14593e-12</wgt>
  <wgt id="481">2.97497e-12</wgt>
  <wgt id="482">2.92485e-12</wgt>
  <wgt id="483">2.94816e-12</wgt>
  <wgt id="484">3.21715e-12</wgt>
  <wgt id="485">3.01642e-12</wgt>
  <wgt id="486">3.12287e-12</wgt>
  <wgt id="487">3.08962e-12</wgt>
  <wgt id="488">3.07575e-12</wgt>
  <wgt id="489">2.9245e-12</wgt>
  <wgt id="490">2.92389e-12</wgt>
  <wgt id="491">2.99525e-12</wgt>
  <wgt id="492">2.93868e-12</wgt>
  <wgt id="493">2.91006e-12</wgt>
  <wgt id="494">2.93492e-12</wgt>
  <wgt id="495">3.09646e-12</wgt>
  <wgt id="496">2.92905e-12</wgt>
  <wgt id="497">2.90405e-12</wgt>
  <wgt id="498">3.07882e-12</wgt>
  <wgt id="499">2.95805e-12</wgt>
  <wgt id="500">2.98077e-12</wgt>
  <wgt id="501">3.17137e-12</wgt>
  <wgt id="502">2.96069e-12</wgt>
  <wgt id="503">3.0276e-12</wgt>
  <wgt id="504">3.06423e-12</wgt>
  <wgt id="505">3.00689e-12</wgt>
  <wgt id="506">3.08989e-12</wgt>
  <wgt id="507">3.00534e-12</wgt>
  <wgt id="508">3.0768e-12</wgt>
  <wgt id="509">2.93177e-12</wgt>
  <wgt id="510">3.11485e-12</wgt>
  <wgt id="511">2.96639e-12</wgt>
  <wgt id="512">3.08403e-12</wgt>
  <wgt id="513">3.17311e-12</wgt>
  <wgt id="514">3.01434e-12</wgt>
  <wgt id="515">2.9903e-12</wgt>
  <wgt id="516">3.12565e-12</wgt>
  <wgt id="517">3.09101e-12</wgt>
  <wgt id="518">3.09723e-12</wgt>
  <wgt id="519">2.93515e-12</wgt>
  <wgt id="520">3.06639e-12</wgt>
  <wgt id="521">3.1267e-12</wgt>
  <wgt id="522">3.14862e-12</wgt>
  <wgt id="523">3.09259e-12</wgt>
  <wgt id="524">3.06581e-12</wgt>
  <wgt id="525">3.12934e-12</wgt>
  <wgt id="526">3.04941e-12</wgt>
  <wgt id="527">3.06851e-12</wgt>
  <wgt id="528">3.05026e-12</wgt>
  <wgt id="529">2.97016e-12</wgt>
  <wgt id="530">3.0683e-12</wgt>
  <wgt id="531">2.99604e-12</wgt>
  <wgt id="532">3.20734e-12</wgt>
  <wgt id="533">2.85414e-12</wgt>
  <wgt id="534">3.04178e-12</wgt>
  <wgt id="535">3.08804e-12</wgt>
  <wgt id="536">3.00774e-12</wgt>
  <wgt id="537">3.03517e-12</wgt>
  <wgt id="538">3.05772e-12</wgt>
  <wgt id="539">2.97496e-12</wgt>
  <wgt id="540">2.9671e-12</wgt>
  <wgt id="541">2.93373e-12</wgt>
  <wgt id="542">2.98297e-12</wgt>
  <wgt id="543">3.02163e-12</wgt>
  <wgt id="544">3.17539e-12</wgt>
  <wgt id="545">2.98673e-12</wgt>
  <wgt id="546">2.98152e-12</wgt>
  <wgt id="547">2.93656e-12</wgt>
  <wgt id="548">2.90451e-12</wgt>
  <wgt id="549">2.97292e-12</wgt>
  <wgt id="550">2.99139e-12</wgt>
  <wgt id="551">3.05703e-12</wgt>
  <wgt id="552">2.99208e-12</wgt>
  <wgt id="553">3.01525e-12</wgt>
  <wgt id="554">3.24976e-12</wgt>
  <wgt id="555">3.10343e-12</wgt>
  <wgt id="556">2.92389e-12</wgt>
  <wgt id="557">3.08346e-12</wgt>
  <wgt id="558">2.93333e-12</wgt>
  <wgt id="559">2.98396e-12</wgt>
  <wgt id="560">3.29278e-12</wgt>
  <wgt id="561">2.97603e-12</wgt>
  <wgt id="562">3.08437e-12</wgt>
  <wgt id="563">2.94802e-12</wgt>
  <wgt id="564">3.03947e-12</wgt>
  <wgt id="565">2.91396e-12</wgt>
  <wgt id="566">3.08065e-12</wgt>
  <wgt id="567">2.98892e-12</wgt>
  <wgt id="568">3.0113e-12</wgt>
  <wgt id="569">3.09239e-12</wgt>
  <wgt id="570">2.92171e-12</wgt>
  <wgt id="571">3.3598e-12</wgt>
  <wgt id="572">2.95728e-12</wgt>
  <wgt id="573">2.89696e-12</wgt>
  <wgt id="574">2.92129e-12</wgt>
  <wgt id="575">3.3426e-12</wgt>
  <wgt id="576">3.33145e-12</wgt>
  <wgt id="577">3.4255e-12</wgt>
  <wgt id="578">3.43934e-12</wgt>
  <wgt id="579">3.41031e-12</wgt>
  <wgt id="580">3.41787e-12</wgt>
  <wgt id="581">3.56958e-12</wgt>
  <wgt id="582">3.32333e-12</wgt>
  <wgt id="583">3.38055e-12</wgt>
  <wgt id="584">3.34628e-12</wgt>
  <wgt id="585">3.35465e-12</wgt>
  <wgt id="586">3.26366e-12</wgt>
  <wgt id="587">3.39377e-12</wgt>
  <wgt id="588">3.33242e-12</wgt>
  <wgt id="589">3.42273e-12</wgt>
  <wgt id="590">3.39701e-12</wgt>
  <wgt id="591">3.46585e-12</wgt>
  <wgt id="592">3.25492e-12</wgt>
  <wgt id="593">3.32626e-12</wgt>
  <wgt id="594">3.42863e-12</wgt>
  <wgt id="595">3.33709e-12</wgt>
  <wgt id="596">3.37781e-12</wgt>
  <wgt id="597">3.25225e-12</wgt>
  <wgt id="598">3.23024e-12</wgt>
  <wgt id="599">3.51735e-12</wgt>
  <wgt id="600">3.31455e-12</wgt>
  <wgt id="601">3.24808e-12</wgt>
  <wgt id="602">3.26439e-12</wgt>
  <wgt id="603">3.26986e-12</wgt>
  <wgt id="604">3.39426e-12</wgt>
  <wgt id="605">3.47533e-12</wgt>
  <wgt id="606">3.27694e-12</wgt>
  <wgt id="607">3.30747e-12</wgt>
  <wgt id="608">3.38135e-12</wgt>
  <wgt id="609">3.16964e-12</wgt>
  <wgt id="610">3.21905e-12</wgt>
  <wgt id="611">3.36408e-12</wgt>
  <wgt id="612">3.57219e-12</wgt>
  <wgt id="613">3.32667e-12</wgt>
  <wgt id="614">3.38578e-12</wgt>
  <wgt id="615">3.27739e-12</wgt>
  <wgt id="616">3.51357e-12</wgt>
  <wgt id="617">3.47212e-12</wgt>
  <wgt id="618">3.43782e-12</wgt>
  <wgt id="619">3.29665e-12</wgt>
  <wgt id="620">3.49559e-12</wgt>
  <wgt id="621">3.38414e-12</wgt>
  <wgt id="622">3.39377e-12</wgt>
  <wgt id="623">3.43961e-12</wgt>
  <wgt id="624">3.33723e-12</wgt>
  <wgt id="625">3.29925e-12</wgt>
  <wgt id="626">3.25003e-12</wgt>
  <wgt id="627">3.20132e-12</wgt>
  <wgt id="628">3.53582e-12</wgt>
  <wgt id="629">3.26711e-12</wgt>
  <wgt id="630">3.2147e-12</wgt>
  <wgt id="631">3.36506e-12</wgt>
  <wgt id="632">3.21222e-12</wgt>
  <wgt id="633">3.30834e-12</wgt>
  <wgt id="634">3.32362e-12</wgt>
  <wgt id="635">3.25233e-12</wgt>
  <wgt id="636">3.3637e-12</wgt>
  <wgt id="637">3.32665e-12</wgt>
  <wgt id="638">3.21056e-12</wgt>
  <wgt id="639">3.29232e-12</wgt>
  <wgt id="640">3.34066e-12</wgt>
  <wgt id="641">3.37267e-12</wgt>
  <wgt id="642">3.19964e-12</wgt>
  <wgt id="643">3.3189e-12</wgt>
  <wgt id="644">3.19329e-12</wgt>
  <wgt id="645">3.37555e-12</wgt>
  <wgt id="646">3.37507e-12</wgt>
  <wgt id="647">3.30456e-12</wgt>
  <wgt id="648">3.36728e-12</wgt>
  <wgt id="649">3.39228e-12</wgt>
  <wgt id="650">3.27474e-12</wgt>
  <wgt id="651">3.36089e-12</wgt>
  <wgt id="652">3.31096e-12</wgt>
  <wgt id="653">3.24569e-12</wgt>
  <wgt id="654">3.31966e-12</wgt>
  <wgt id="655">3.29244e-12</wgt>
  <wgt id="656">3.3696e-12</wgt>
  <wgt id="657">3.48418e-12</wgt>
  <wgt id="658">3.34473e-12</wgt>
  <wgt id="659">3.20881e-12</wgt>
  <wgt id="660">3.40365e-12</wgt>
  <wgt id="661">3.28482e-12</wgt>
  <wgt id="662">3.3429e-12</wgt>
  <wgt id="663">3.34698e-12</wgt>
  <wgt id="664">3.29732e-12</wgt>
  <wgt id="665">3.33263e-12</wgt>
  <wgt id="666">3.30895e-12</wgt>
  <wgt id="667">3.44948e-12</wgt>
  <wgt id="668">3.34093e-12</wgt>
  <wgt id="669">3.42074e-12</wgt>
  <wgt id="670">3.41933e-12</wgt>
  <wgt id="671">3.3197e-12</wgt>
  <wgt id="672">3.20257e-12</wgt>
  <wgt id="673">3.36155e-12</wgt>
  <wgt id="674">3.27864e-12</wgt>
  <wgt id="675">3.30076e-12</wgt>
  <wgt id="676">4.23867e-12</wgt>
  <wgt id="677">4.283e-12</wgt>
  <wgt id="678">4.44985e-12</wgt>
  <wgt id="679">3.95882e-12</wgt>
  <wgt id="680">4.15166e-12</wgt>
  <wgt id="681">4.32085e-12</wgt>
  <wgt id="682">4.37962e-12</wgt>
  <wgt id="683">4.17062e-12</wgt>
  <wgt id="684">4.43454e-12</wgt>
  <wgt id="685">4.02061e-12</wgt>
  <wgt id="686">4.13715e-12</wgt>
  <wgt id="687">4.45549e-12</wgt>
  <wgt id="688">4.22052e-12</wgt>
  <wgt id="689">4.59546e-12</wgt>
  <wgt id="690">4.44811e-12</wgt>
  <wgt id="691">4.50171e-12</wgt>
  <wgt id="692">4.18359e-12</wgt>
  <wgt id="693">5.01605e-12</wgt>
  <wgt id="694">4.49988e-12</wgt>
  <wgt id="695">4.10576e-12</wgt>
  <wgt id="696">4.0076e-12</wgt>
  <wgt id="697">4.11927e-12</wgt>
  <wgt id="698">3.86136e-12</wgt>
  <wgt id="699">3.83779e-12</wgt>
  <wgt id="700">3.6826e-12</wgt>
  <wgt id="701">4.25531e-12</wgt>
  <wgt id="702">4.1092e-12</wgt>
  <wgt id="703">4.89161e-12</wgt>
  <wgt id="704">4.65243e-12</wgt>
  <wgt id="705">4.44518e-12</wgt>
  <wgt id="706">3.94806e-12</wgt>
  <wgt id="707">4.06395e-12</wgt>
  <wgt id="708">4.17988e-12</wgt>
  <wgt id="709">4.16184e-12</wgt>
  <wgt id="710">3.80696e-12</wgt>
  <wgt id="711">4.21195e-12</wgt>
  <wgt id="712">4.15594e-12</wgt>
  <wgt id="713">4.6016e-12</wgt>
  <wgt id="714">4.15189e-12</wgt>
  <wgt id="715">4.19169e-12</wgt>
  <wgt id="716">4.07395e-12</wgt>
  <wgt id="717">4.0234e-12</wgt>
  <wgt id="718">4.24207e-12</wgt>
  <wgt id="719">3.83809e-12</wgt>
  <wgt id="720">3.98898e-12</wgt>
  <wgt id="721">3.86779e-12</wgt>
  <wgt id="722">3.73063e-12</wgt>
  <wgt id="723">4.53751e-12</wgt>
  <wgt id="724">4.4518e-12</wgt>
  <wgt id="725">4.47236e-12</wgt>
  <wgt id="726">4.27721e-12</wgt>
  <wgt id="727">4.14158e-12</wgt>
  <wgt id="728">4.13411e-12</wgt>
  <wgt id="729">3.87826e-12</wgt>
  <wgt id="730">4.60181e-12</wgt>
  <wgt id="731">4.18273e-12</wgt>
  <wgt id="732">4.67587e-12</wgt>
  <wgt id="733">4.22546e-12</wgt>
  <wgt id="734">4.34492e-12</wgt>
  <wgt id="735">4.22285e-12</wgt>
  <wgt id="736">4.145e-12</wgt>
  <wgt id="737">4.30566e-12</wgt>
  <wgt id="738">4.01114e-12</wgt>
  <wgt id="739">4.3278e-12</wgt>
  <wgt id="740">4.72609e-12</wgt>
  <wgt id="741">3.78662e-12</wgt>
  <wgt id="742">4.17181e-12</wgt>
  <wgt id="743">4.02453e-12</wgt>
  <wgt id="744">4.15155e-12</wgt>
  <wgt id="745">4.44893e-12</wgt>
  <wgt id="746">4.52956e-12</wgt>
  <wgt id="747">3.81148e-12</wgt>
  <wgt id="748">4.18712e-12</wgt>
  <wgt id="749">4.45898e-12</wgt>
  <wgt id="750">4.33778e-12</wgt>
  <wgt id="751">4.36789e-12</wgt>
  <wgt id="752">3.87207e-12</wgt>
  <wgt id="753">4.0217e-12</wgt>
  <wgt id="754">4.4551e-12</wgt>
  <wgt id="755">4.24883e-12</wgt>
  <wgt id="756">4.26433e-12</wgt>
  <wgt id="757">3.88151e-12</wgt>
  <wgt id="758">4.2682e-12</wgt>
  <wgt id="759">4.35834e-12</wgt>
  <wgt id="760">4.27822e-12</wgt>
  <wgt id="761">4.47225e-12</wgt>
  <wgt id="762">4.507e-12</wgt>
  <wgt id="763">4.21655e-12</wgt>
  <wgt id="764">4.41754e-12</wgt>
  <wgt id="765">4.32646e-12</wgt>
  <wgt id="766">4.23576e-12</wgt>
  <wgt id="767">4.3527e-12</wgt>
  <wgt id="768">3.98494e-12</wgt>
  <wgt id="769">4.50397e-12</wgt>
  <wgt id="770">4.10972e-12</wgt>
  <wgt id="771">5.04083e-12</wgt>
  <wgt id="772">4.00541e-12</wgt>
  <wgt id="773">4.20234e-12</wgt>
  <wgt id="774">3.73327e-12</wgt>
  <wgt id="775">4.48294e-12</wgt>
  <wgt id="776">4.63941e-12</wgt>
  <wgt id="777">3.99867e-12</wgt>
  <wgt id="778">3.09054e-12</wgt>
  <wgt id="779">2.51964e-12</wgt>
  <wgt id="780">1.99977e-12</wgt>
  <wgt id="781">3.21552e-12</wgt>
  <wgt id="782">3.29054e-12</wgt>
  <wgt id="783">2.53864e-12</wgt>
  <wgt id="784">2.66204e-12</wgt>
  <wgt id="785">3.8173e-12</wgt>
  <wgt id="786">2.34576e-12</wgt>
  <wgt id="787">3.56674e-12</wgt>
  <wgt id="788">1.84825e-12</wgt>
  <wgt id="789">2.44976e-12</wgt>
  <wgt id="790">2.30685e-12</wgt>
  <wgt id="791">2.92261e-12</wgt>
  <wgt id="792">4.05575e-12</wgt>
  <wgt id="793">3.02772e-12</wgt>
  <wgt id="794">2.29314e-12</wgt>
  <wgt id="795">3.69466e-12</wgt>
  <wgt id="796">4.10977e-12</wgt>
  <wgt id="797">3.64207e-12</wgt>
  <wgt id="798">2.81126e-12</wgt>
  <wgt id="799">3.55754e-12</wgt>
  <wgt id="800">2.48293e-12</wgt>
  <wgt id="801">2.86277e-12</wgt>
  <wgt id="802">2.30122e-12</wgt>
  <wgt id="803">4.08689e-12</wgt>
  <wgt id="804">3.66387e-12</wgt>
  <wgt id="805">3.72641e-12</wgt>
  <wgt id="806">3.44368e-12</wgt>
  <wgt id="807">2.92907e-12</wgt>
  <wgt id="808">2.9972e-12</wgt>
  <wgt id="809">2.83816e-12</wgt>
  <wgt id="810">3.50957e-12</wgt>
  <wgt id="811">3.38677e-12</wgt>
  <wgt id="812">2.28116e-12</wgt>
  <wgt id="813">2.35514e-12</wgt>
  <wgt id="814">2.63145e-12</wgt>
  <wgt id="815">2.52174e-12</wgt>
  <wgt id="816">2.21018e-12</wgt>
  <wgt id="817">3.23615e-12</wgt>
  <wgt id="818">3.1185e-12</wgt>
  <wgt id="819">2.51312e-12</wgt>
  <wgt id="820">3.08637e-12</wgt>
  <wgt id="821">3.60308e-12</wgt>
  <wgt id="822">2.50568e-12</wgt>
  <wgt id="823">3.63671e-12</wgt>
  <wgt id="824">4.2099e-12</wgt>
  <wgt id="825">2.21527e-12</wgt>
  <wgt id="826">3.31805e-12</wgt>
  <wgt id="827">1.80556e-12</wgt>
  <wgt id="828">3.97127e-12</wgt>
  <wgt id="829">3.23317e-12</wgt>
  <wgt id="830">2.09531e-12</wgt>
  <wgt id="831">3.36203e-12</wgt>
  <wgt id="832">5.17261e-12</wgt>
  <wgt id="833">2.8373e-12</wgt>
  <wgt id="834">4.83388e-12</wgt>
  <wgt id="835">2.47716e-12</wgt>
  <wgt id="836">3.04041e-12</wgt>
  <wgt id="837">3.55372e-12</wgt>
  <wgt id="838">2.92606e-12</wgt>
  <wgt id="839">3.33532e-12</wgt>
  <wgt id="840">2.85367e-12</wgt>
  <wgt id="841">3.89398e-12</wgt>
  <wgt id="842">2.77941e-12</wgt>
  <wgt id="843">3.06818e-12</wgt>
  <wgt id="844">3.25468e-12</wgt>
  <wgt id="845">4.4599e-12</wgt>
  <wgt id="846">2.92008e-12</wgt>
  <wgt id="847">3.16007e-12</wgt>
  <wgt id="848">2.60363e-12</wgt>
  <wgt id="849">3.18413e-12</wgt>
  <wgt id="850">4.12788e-12</wgt>
  <wgt id="851">3.41725e-12</wgt>
  <wgt id="852">2.57953e-12</wgt>
  <wgt id="853">3.43416e-12</wgt>
  <wgt id="854">3.82487e-12</wgt>
  <wgt id="855">3.65104e-12</wgt>
  <wgt id="856">2.14973e-12</wgt>
  <wgt id="857">3.07057e-12</wgt>
  <wgt id="858">3.05e-12</wgt>
  <wgt id="859">2.86666e-12</wgt>
  <wgt id="860">3.39302e-12</wgt>
  <wgt id="861">2.67199e-12</wgt>
  <wgt id="862">3.15966e-12</wgt>
  <wgt id="863">3.30985e-12</wgt>
  <wgt id="864">3.31111e-12</wgt>
  <wgt id="865">4.54935e-12</wgt>
  <wgt id="866">4.97967e-12</wgt>
  <wgt id="867">3.1808e-12</wgt>
  <wgt id="868">3.08583e-12</wgt>
  <wgt id="869">2.34039e-12</wgt>
  <wgt id="870">2.46719e-12</wgt>
  <wgt id="871">2.38968e-12</wgt>
  <wgt id="872">3.77637e-12</wgt>
  <wgt id="873">2.51368e-12</wgt>
  <wgt id="874">3.28441e-12</wgt>
  <wgt id="875">2.66308e-12</wgt>
  <wgt id="876">3.78128e-12</wgt>
  <wgt id="877">3.59584e-12</wgt>
  <wgt id="878">2.59922e-12</wgt>
  <wgt id="879">4.23867e-12</wgt>
  <wgt id="880">4.283e-12</wgt>
  <wgt id="881">4.44985e-12</wgt>
  <wgt id="882">3.95882e-12</wgt>
  <wgt id="883">4.15166e-12</wgt>
  <wgt id="884">4.32085e-12</wgt>
  <wgt id="885">4.37962e-12</wgt>
  <wgt id="886">4.17062e-12</wgt>
  <wgt id="887">4.43454e-12</wgt>
  <wgt id="888">4.02061e-12</wgt>
  <wgt id="889">4.13715e-12</wgt>
  <wgt id="890">4.45549e-12</wgt>
  <wgt id="891">4.22052e-12</wgt>
  <wgt id="892">4.59546e-12</wgt>
  <wgt id="893">4.44811e-12</wgt>
  <wgt id="894">4.50171e-12</wgt>
  <wgt id="895">4.18359e-12</wgt>
  <wgt id="896">5.01605e-12</wgt>
  <wgt id="897">4.49988e-12</wgt>
  <wgt id="898">4.10576e-12</wgt>
  <wgt id="899">4.0076e-12</wgt>
  <wgt id="900">4.11927e-12</wgt>
  <wgt id="901">3.86136e-12</wgt>
  <wgt id="902">3.83779e-12</wgt>
  <wgt id="903">3.6826e-12</wgt>
  <wgt id="904">4.25531e-12</wgt>
  <wgt id="905">4.1092e-12</wgt>
  <wgt id="906">4.89161e-12</wgt>
  <wgt id="907">4.65243e-12</wgt>
  <wgt id="908">4.44518e-12</wgt>
  <wgt id="909">3.94806e-12</wgt>
  <wgt id="910">4.06395e-12</wgt>
  <wgt id="911">4.17988e-12</wgt>
  <wgt id="912">4.16184e-12</wgt>
  <wgt id="913">3.80696e-12</wgt>
  <wgt id="914">4.21195e-12</wgt>
  <wgt id="915">4.15594e-12</wgt>
  <wgt id="916">4.6016e-12</wgt>
  <wgt id="917">4.15189e-12</wgt>
  <wgt id="918">4.19169e-12</wgt>
  <wgt id="919">4.07395e-12</wgt>
  <wgt id="920">4.0234e-12</wgt>
  <wgt id="921">4.24207e-12</wgt>
  <wgt id="922">3.83809e-12</wgt>
  <wgt id="923">3.98898e-12</wgt>
  <wgt id="924">3.86779e-12</wgt>
  <wgt id="925">3.73063e-12</wgt>
  <wgt id="926">4.53751e-12</wgt>
  <wgt id="927">4.4518e-12</wgt>
  <wgt id="928">4.47236e-12</wgt>
  <wgt id="929">4.27721e-12</wgt>
  <wgt id="930">4.14158e-12</wgt>
  <wgt id="931">4.13411e-12</wgt>
  <wgt id="932">3.87826e-12</wgt>
  <wgt id="933">4.60181e-12</wgt>
  <wgt id="934">4.18273e-12</wgt>
  <wgt id="935">4.67587e-12</wgt>
  <wgt id="936">4.22546e-12</wgt>
  <wgt id="937">4.34492e-12</wgt>
  <wgt id="938">4.22285e-12</wgt>
  <wgt id="939">4.145e-12</wgt>
  <wgt id="940">4.30566e-12</wgt>
  <wgt id="941">4.01114e-12</wgt>
  <wgt id="942">4.3278e-12</wgt>
  <wgt id="943">4.72609e-12</wgt>
  <wgt id="944">3.78662e-12</wgt>
  <wgt id="945">4.17181e-12</wgt>
  <wgt id="946">4.02453e-12</wgt>
  <wgt id="947">4.15155e-12</wgt>
  <wgt id="948">4.44893e-12</wgt>
  <wgt id="949">4.52956e-12</wgt>
  <wgt id="950">3.81148e-12</wgt>
  <wgt id="951">4.18712e-12</wgt>
  <wgt id="952">4.45898e-12</wgt>
  <wgt id="953">4.33778e-12</wgt>
  <wgt id="954">4.36789e-12</wgt>
  <wgt id="955">3.87207e-12</wgt>
  <wgt id="956">4.0217e-12</wgt>
  <wgt id="957">4.4551e-12</wgt>
  <wgt id="958">4.24883e-12</wgt>
  <wgt id="959">4.26433e-12</wgt>
  <wgt id="960">3.88151e-12</wgt>
  <wgt id="961">4.2682e-12</wgt>
  <wgt id="962">4.35834e-12</wgt>
  <wgt id="963">4.27822e-12</wgt>
  <wgt id="964">4.47225e-12</wgt>
  <wgt id="965">4.507e-12</wgt>
  <wgt id="966">4.21655e-12</wgt>
  <wgt id="967">4.41754e-12</wgt>
  <wgt id="968">4.32646e-12</wgt>
  <wgt id="969">4.23576e-12</wgt>
  <wgt id="970">4.3527e-12</wgt>
  <wgt id="971">3.98494e-12</wgt>
  <wgt id="972">4.50397e-12</wgt>
  <wgt id="973">4.10972e-12</wgt>
  <wgt id="974">5.04083e-12</wgt>
  <wgt id="975">4.00541e-12</wgt>
  <wgt id="976">4.20234e-12</wgt>
  <wgt id="977">3.73327e-12</wgt>
  <wgt id="978">4.48294e-12</wgt>
  <wgt id="979">4.63941e-12</wgt>
  <wgt id="980">4.23382e-12</wgt>
  <wgt id="981">4.26801e-12</wgt>
  <wgt id="982">4.11446e-12</wgt>
</rwgt>
</event>
<event>
 5   1  0.3028200E-11  0.2035502E+04  0.7818608E-02  0.7813813E-01
       21   -1    0    0  502  501  0.00000000000E+00  0.00000000000E+00  0.21463666047E+04  0.21463666047E+04  0.00000000000E+00 0.  1.
       21   -1    0    0  501  502 -0.00000000000E+00 -0.00000000000E+00 -0.48259102276E+03  0.48259102276E+03  0.00000000000E+00 0. -1.
       39    2    1    2    0    0  0.00000000000E+00  0.00000000000E+00  0.16637755820E+04  0.26289576275E+04  0.20355021543E+04 0.  0.
       25    1    3    3    0    0  0.29207887773E+03  0.92343207335E+03  0.46169321517E+03  0.10801955794E+04  0.12500000000E+03 0.  0.
       25    1    3    3    0    0 -0.29207887773E+03 -0.92343207335E+03  0.12020823668E+04  0.15487620481E+04  0.12500000000E+03 0.  0.
<mgrwt>
<rscale>  0 0.20355022E+04</rscale>
<asrwt>0</asrwt>
<pdfrwt beam="1">  1       21 0.33021024E+00 0.20355022E+04</pdfrwt>
<pdfrwt beam="2">  1       21 0.74244774E-01 0.20355022E+04</pdfrwt>
<totfact> 0.14100875E+01</totfact>
</mgrwt>
<rwgt>
  <wgt id="1">3.0282e-12</wgt>
  <wgt id="2">2.62392e-12</wgt>
  <wgt id="3">3.53261e-12</wgt>
  <wgt id="4">3.0282e-12</wgt>
  <wgt id="5">2.62392e-12</wgt>
  <wgt id="6">3.53261e-12</wgt>
  <wgt id="7">3.0282e-12</wgt>
  <wgt id="8">2.62392e-12</wgt>
  <wgt id="9">3.53261e-12</wgt>
  <wgt id="10">3.16855e-12</wgt>
  <wgt id="11">3.16773e-12</wgt>
  <wgt id="12">3.1606e-12</wgt>
  <wgt id="13">3.16324e-12</wgt>
  <wgt id="14">3.17876e-12</wgt>
  <wgt id="15">3.17312e-12</wgt>
  <wgt id="16">3.16051e-12</wgt>
  <wgt id="17">3.18532e-12</wgt>
  <wgt id="18">3.16485e-12</wgt>
  <wgt id="19">3.18207e-12</wgt>
  <wgt id="20">3.16876e-12</wgt>
  <wgt id="21">3.14248e-12</wgt>
  <wgt id="22">3.14437e-12</wgt>
  <wgt id="23">3.11756e-12</wgt>
  <wgt id="24">3.14407e-12</wgt>
  <wgt id="25">3.15677e-12</wgt>
  <wgt id="26">3.17724e-12</wgt>
  <wgt id="27">3.16175e-12</wgt>
  <wgt id="28">3.14811e-12</wgt>
  <wgt id="29">3.16935e-12</wgt>
  <wgt id="30">3.14219e-12</wgt>
  <wgt id="31">3.18202e-12</wgt>
  <wgt id="32">3.14418e-12</wgt>
  <wgt id="33">3.17273e-12</wgt>
  <wgt id="34">3.14614e-12</wgt>
  <wgt id="35">3.14718e-12</wgt>
  <wgt id="36">3.18686e-12</wgt>
  <wgt id="37">3.1576e-12</wgt>
  <wgt id="38">3.15276e-12</wgt>
  <wgt id="39">3.22625e-12</wgt>
  <wgt id="40">3.17115e-12</wgt>
  <wgt id="41">3.1676e-12</wgt>
  <wgt id="42">3.17216e-12</wgt>
  <wgt id="43">3.17051e-12</wgt>
  <wgt id="44">3.19203e-12</wgt>
  <wgt id="45">3.17283e-12</wgt>
  <wgt id="46">3.15546e-12</wgt>
  <wgt id="47">3.20558e-12</wgt>
  <wgt id="48">3.18839e-12</wgt>
  <wgt id="49">3.14482e-12</wgt>
  <wgt id="50">3.13661e-12</wgt>
  <wgt id="51">3.14648e-12</wgt>
  <wgt id="52">3.18064e-12</wgt>
  <wgt id="53">3.20139e-12</wgt>
  <wgt id="54">3.18708e-12</wgt>
  <wgt id="55">3.16589e-12</wgt>
  <wgt id="56">3.14923e-12</wgt>
  <wgt id="57">3.14591e-12</wgt>
  <wgt id="58">3.1677e-12</wgt>
  <wgt id="59">3.17524e-12</wgt>
  <wgt id="60">3.13902e-12</wgt>
  <wgt id="61">3.1521e-12</wgt>
  <wgt id="62">3.16418e-12</wgt>
  <wgt id="63">3.16671e-12</wgt>
  <wgt id="64">3.16556e-12</wgt>
  <wgt id="65">3.15253e-12</wgt>
  <wgt id="66">3.17296e-12</wgt>
  <wgt id="67">3.16839e-12</wgt>
  <wgt id="68">3.16746e-12</wgt>
  <wgt id="69">3.16151e-12</wgt>
  <wgt id="70">3.15668e-12</wgt>
  <wgt id="71">3.1682e-12</wgt>
  <wgt id="72">3.15222e-12</wgt>
  <wgt id="73">3.18063e-12</wgt>
  <wgt id="74">3.18264e-12</wgt>
  <wgt id="75">3.16706e-12</wgt>
  <wgt id="76">3.19111e-12</wgt>
  <wgt id="77">3.16227e-12</wgt>
  <wgt id="78">3.16554e-12</wgt>
  <wgt id="79">3.17622e-12</wgt>
  <wgt id="80">3.14039e-12</wgt>
  <wgt id="81">3.16729e-12</wgt>
  <wgt id="82">3.17193e-12</wgt>
  <wgt id="83">3.14741e-12</wgt>
  <wgt id="84">3.15615e-12</wgt>
  <wgt id="85">3.15532e-12</wgt>
  <wgt id="86">3.18191e-12</wgt>
  <wgt id="87">3.13729e-12</wgt>
  <wgt id="88">3.17871e-12</wgt>
  <wgt id="89">3.17514e-12</wgt>
  <wgt id="90">3.18022e-12</wgt>
  <wgt id="91">3.17254e-12</wgt>
  <wgt id="92">3.17801e-12</wgt>
  <wgt id="93">3.17244e-12</wgt>
  <wgt id="94">3.15907e-12</wgt>
  <wgt id="95">3.17927e-12</wgt>
  <wgt id="96">3.17739e-12</wgt>
  <wgt id="97">3.15522e-12</wgt>
  <wgt id="98">3.16852e-12</wgt>
  <wgt id="99">3.16475e-12</wgt>
  <wgt id="100">3.17599e-12</wgt>
  <wgt id="101">3.16358e-12</wgt>
  <wgt id="102">3.16235e-12</wgt>
  <wgt id="103">3.18055e-12</wgt>
  <wgt id="104">3.16238e-12</wgt>
  <wgt id="105">3.17611e-12</wgt>
  <wgt id="106">3.15976e-12</wgt>
  <wgt id="107">3.18826e-12</wgt>
  <wgt id="108">3.16198e-12</wgt>
  <wgt id="109">3.17103e-12</wgt>
  <wgt id="110">3.16745e-12</wgt>
  <wgt id="111">3.162e-12</wgt>
  <wgt id="112">3.21218e-12</wgt>
  <wgt id="113">4.49819e-12</wgt>
  <wgt id="114">4.15223e-12</wgt>
  <wgt id="115">4.06905e-12</wgt>
  <wgt id="116">5.40885e-12</wgt>
  <wgt id="117">3.43179e-12</wgt>
  <wgt id="118">3.44315e-12</wgt>
  <wgt id="119">3.42524e-12</wgt>
  <wgt id="120">3.43193e-12</wgt>
  <wgt id="121">3.43166e-12</wgt>
  <wgt id="122">3.42624e-12</wgt>
  <wgt id="123">3.43943e-12</wgt>
  <wgt id="124">3.42708e-12</wgt>
  <wgt id="125">3.43477e-12</wgt>
  <wgt id="126">3.43563e-12</wgt>
  <wgt id="127">3.42929e-12</wgt>
  <wgt id="128">3.44217e-12</wgt>
  <wgt id="129">3.42148e-12</wgt>
  <wgt id="130">3.4473e-12</wgt>
  <wgt id="131">3.4156e-12</wgt>
  <wgt id="132">3.33954e-12</wgt>
  <wgt id="133">3.54127e-12</wgt>
  <wgt id="134">3.39682e-12</wgt>
  <wgt id="135">3.45916e-12</wgt>
  <wgt id="136">3.48288e-12</wgt>
  <wgt id="137">3.37034e-12</wgt>
  <wgt id="138">3.58338e-12</wgt>
  <wgt id="139">3.28773e-12</wgt>
  <wgt id="140">3.41583e-12</wgt>
  <wgt id="141">3.44364e-12</wgt>
  <wgt id="142">3.43074e-12</wgt>
  <wgt id="143">3.44254e-12</wgt>
  <wgt id="144">3.29401e-12</wgt>
  <wgt id="145">3.56523e-12</wgt>
  <wgt id="146">3.47561e-12</wgt>
  <wgt id="147">3.39576e-12</wgt>
  <wgt id="148">3.44392e-12</wgt>
  <wgt id="149">3.43089e-12</wgt>
  <wgt id="150">3.45957e-12</wgt>
  <wgt id="151">3.41871e-12</wgt>
  <wgt id="152">3.43241e-12</wgt>
  <wgt id="153">3.43154e-12</wgt>
  <wgt id="154">3.43819e-12</wgt>
  <wgt id="155">3.41659e-12</wgt>
  <wgt id="156">3.54439e-12</wgt>
  <wgt id="157">3.32824e-12</wgt>
  <wgt id="158">4.1133e-12</wgt>
  <wgt id="159">4.13098e-12</wgt>
  <wgt id="160">4.09921e-12</wgt>
  <wgt id="161">4.10393e-12</wgt>
  <wgt id="162">4.12383e-12</wgt>
  <wgt id="163">4.10934e-12</wgt>
  <wgt id="164">4.11948e-12</wgt>
  <wgt id="165">4.11502e-12</wgt>
  <wgt id="166">4.11226e-12</wgt>
  <wgt id="167">4.11047e-12</wgt>
  <wgt id="168">4.11744e-12</wgt>
  <wgt id="169">4.0959e-12</wgt>
  <wgt id="170">4.12409e-12</wgt>
  <wgt id="171">4.11128e-12</wgt>
  <wgt id="172">4.11633e-12</wgt>
  <wgt id="173">4.10505e-12</wgt>
  <wgt id="174">4.11634e-12</wgt>
  <wgt id="175">4.00011e-12</wgt>
  <wgt id="176">4.26127e-12</wgt>
  <wgt id="177">4.1303e-12</wgt>
  <wgt id="178">4.09807e-12</wgt>
  <wgt id="179">4.31674e-12</wgt>
  <wgt id="180">3.79953e-12</wgt>
  <wgt id="181">3.98084e-12</wgt>
  <wgt id="182">4.20183e-12</wgt>
  <wgt id="183">4.03296e-12</wgt>
  <wgt id="184">4.15327e-12</wgt>
  <wgt id="185">4.06789e-12</wgt>
  <wgt id="186">4.16783e-12</wgt>
  <wgt id="187">4.06629e-12</wgt>
  <wgt id="188">4.19601e-12</wgt>
  <wgt id="189">4.08211e-12</wgt>
  <wgt id="190">4.12617e-12</wgt>
  <wgt id="191">4.12834e-12</wgt>
  <wgt id="192">4.10453e-12</wgt>
  <wgt id="193">4.17955e-12</wgt>
  <wgt id="194">4.07988e-12</wgt>
  <wgt id="195">3.97242e-12</wgt>
  <wgt id="196">4.3424e-12</wgt>
  <wgt id="197">4.13417e-12</wgt>
  <wgt id="198">4.10827e-12</wgt>
  <wgt id="199">4.1133e-12</wgt>
  <wgt id="200">4.15235e-12</wgt>
  <wgt id="201">4.13937e-12</wgt>
  <wgt id="202">4.12647e-12</wgt>
  <wgt id="203">4.10872e-12</wgt>
  <wgt id="204">4.09957e-12</wgt>
  <wgt id="205">4.09173e-12</wgt>
  <wgt id="206">4.04024e-12</wgt>
  <wgt id="207">4.06391e-12</wgt>
  <wgt id="208">4.01655e-12</wgt>
  <wgt id="209">4.05019e-12</wgt>
  <wgt id="210">4.03291e-12</wgt>
  <wgt id="211">4.03922e-12</wgt>
  <wgt id="212">4.04095e-12</wgt>
  <wgt id="213">4.03982e-12</wgt>
  <wgt id="214">4.04065e-12</wgt>
  <wgt id="215">4.04274e-12</wgt>
  <wgt id="216">4.03843e-12</wgt>
  <wgt id="217">4.04825e-12</wgt>
  <wgt id="218">4.0339e-12</wgt>
  <wgt id="219">4.03312e-12</wgt>
  <wgt id="220">4.04448e-12</wgt>
  <wgt id="221">4.04241e-12</wgt>
  <wgt id="222">4.0337e-12</wgt>
  <wgt id="223">3.81906e-12</wgt>
  <wgt id="224">4.24266e-12</wgt>
  <wgt id="225">3.99263e-12</wgt>
  <wgt id="226">4.10066e-12</wgt>
  <wgt id="227">4.00313e-12</wgt>
  <wgt id="228">4.05642e-12</wgt>
  <wgt id="229">3.98477e-12</wgt>
  <wgt id="230">4.06762e-12</wgt>
  <wgt id="231">4.17476e-12</wgt>
  <wgt id="232">3.92997e-12</wgt>
  <wgt id="233">4.01472e-12</wgt>
  <wgt id="234">4.08308e-12</wgt>
  <wgt id="235">3.87252e-12</wgt>
  <wgt id="236">4.1764e-12</wgt>
  <wgt id="237">3.9435e-12</wgt>
  <wgt id="238">4.07222e-12</wgt>
  <wgt id="239">4.00117e-12</wgt>
  <wgt id="240">4.11013e-12</wgt>
  <wgt id="241">3.99208e-12</wgt>
  <wgt id="242">4.09643e-12</wgt>
  <wgt id="243">4.10623e-12</wgt>
  <wgt id="244">4.03737e-12</wgt>
  <wgt id="245">4.03892e-12</wgt>
  <wgt id="246">4.05968e-12</wgt>
  <wgt id="247">4.04024e-12</wgt>
  <wgt id="248">4.08289e-12</wgt>
  <wgt id="249">4.06858e-12</wgt>
  <wgt id="250">4.05305e-12</wgt>
  <wgt id="251">4.03265e-12</wgt>
  <wgt id="252">4.02209e-12</wgt>
  <wgt id="253">4.01494e-12</wgt>
  <wgt id="254">3.88844e-12</wgt>
  <wgt id="255">3.89169e-12</wgt>
  <wgt id="256">3.88493e-12</wgt>
  <wgt id="257">3.89174e-12</wgt>
  <wgt id="258">3.8861e-12</wgt>
  <wgt id="259">3.91429e-12</wgt>
  <wgt id="260">3.86357e-12</wgt>
  <wgt id="261">3.89307e-12</wgt>
  <wgt id="262">3.88311e-12</wgt>
  <wgt id="263">3.88587e-12</wgt>
  <wgt id="264">3.89141e-12</wgt>
  <wgt id="265">3.88428e-12</wgt>
  <wgt id="266">3.89667e-12</wgt>
  <wgt id="267">3.88986e-12</wgt>
  <wgt id="268">3.8868e-12</wgt>
  <wgt id="269">3.89915e-12</wgt>
  <wgt id="270">3.88127e-12</wgt>
  <wgt id="271">3.8771e-12</wgt>
  <wgt id="272">3.90115e-12</wgt>
  <wgt id="273">3.87923e-12</wgt>
  <wgt id="274">3.89537e-12</wgt>
  <wgt id="275">3.86488e-12</wgt>
  <wgt id="276">3.91294e-12</wgt>
  <wgt id="277">3.86644e-12</wgt>
  <wgt id="278">3.90883e-12</wgt>
  <wgt id="279">3.82234e-12</wgt>
  <wgt id="280">3.97176e-12</wgt>
  <wgt id="281">3.87143e-12</wgt>
  <wgt id="282">3.89413e-12</wgt>
  <wgt id="283">3.76563e-12</wgt>
  <wgt id="284">4.04186e-12</wgt>
  <wgt id="285">3.68374e-12</wgt>
  <wgt id="286">4.06183e-12</wgt>
  <wgt id="287">3.90228e-12</wgt>
  <wgt id="288">3.87084e-12</wgt>
  <wgt id="289">3.91925e-12</wgt>
  <wgt id="290">3.82116e-12</wgt>
  <wgt id="291">3.87387e-12</wgt>
  <wgt id="292">3.88833e-12</wgt>
  <wgt id="293">3.85503e-12</wgt>
  <wgt id="294">3.92179e-12</wgt>
  <wgt id="295">3.8068e-12</wgt>
  <wgt id="296">3.98836e-12</wgt>
  <wgt id="297">3.87946e-12</wgt>
  <wgt id="298">3.90683e-12</wgt>
  <wgt id="299">3.87566e-12</wgt>
  <wgt id="300">3.92224e-12</wgt>
  <wgt id="301">3.81312e-12</wgt>
  <wgt id="302">4.06106e-12</wgt>
  <wgt id="303">3.84677e-12</wgt>
  <wgt id="304">3.91183e-12</wgt>
  <wgt id="305">3.85064e-12</wgt>
  <wgt id="306">3.85404e-12</wgt>
  <wgt id="307">3.84717e-12</wgt>
  <wgt id="308">3.85414e-12</wgt>
  <wgt id="309">3.84846e-12</wgt>
  <wgt id="310">3.87694e-12</wgt>
  <wgt id="311">3.82658e-12</wgt>
  <wgt id="312">3.85468e-12</wgt>
  <wgt id="313">3.84638e-12</wgt>
  <wgt id="314">3.848e-12</wgt>
  <wgt id="315">3.85343e-12</wgt>
  <wgt id="316">3.84647e-12</wgt>
  <wgt id="317">3.85967e-12</wgt>
  <wgt id="318">3.85346e-12</wgt>
  <wgt id="319">3.84605e-12</wgt>
  <wgt id="320">3.8622e-12</wgt>
  <wgt id="321">3.84439e-12</wgt>
  <wgt id="322">3.83859e-12</wgt>
  <wgt id="323">3.86506e-12</wgt>
  <wgt id="324">3.84443e-12</wgt>
  <wgt id="325">3.85617e-12</wgt>
  <wgt id="326">3.83114e-12</wgt>
  <wgt id="327">3.8759e-12</wgt>
  <wgt id="328">3.83034e-12</wgt>
  <wgt id="329">3.86213e-12</wgt>
  <wgt id="330">3.95301e-12</wgt>
  <wgt id="331">3.75347e-12</wgt>
  <wgt id="332">3.83656e-12</wgt>
  <wgt id="333">3.85442e-12</wgt>
  <wgt id="334">3.75757e-12</wgt>
  <wgt id="335">3.96761e-12</wgt>
  <wgt id="336">3.70604e-12</wgt>
  <wgt id="337">4.0301e-12</wgt>
  <wgt id="338">3.89776e-12</wgt>
  <wgt id="339">3.8074e-12</wgt>
  <wgt id="340">3.87832e-12</wgt>
  <wgt id="341">3.78338e-12</wgt>
  <wgt id="342">3.8405e-12</wgt>
  <wgt id="343">3.84298e-12</wgt>
  <wgt id="344">3.82159e-12</wgt>
  <wgt id="345">3.88474e-12</wgt>
  <wgt id="346">3.76795e-12</wgt>
  <wgt id="347">3.94556e-12</wgt>
  <wgt id="348">3.84279e-12</wgt>
  <wgt id="349">3.86708e-12</wgt>
  <wgt id="350">3.83496e-12</wgt>
  <wgt id="351">3.89053e-12</wgt>
  <wgt id="352">3.77573e-12</wgt>
  <wgt id="353">4.01696e-12</wgt>
  <wgt id="354">3.79249e-12</wgt>
  <wgt id="355">3.88505e-12</wgt>
  <wgt id="356">3.88844e-12</wgt>
  <wgt id="357">3.85273e-12</wgt>
  <wgt id="358">3.85064e-12</wgt>
  <wgt id="359">3.88691e-12</wgt>
  <wgt id="360">3.95748e-12</wgt>
  <wgt id="361">3.90888e-12</wgt>
  <wgt id="362">3.98391e-12</wgt>
  <wgt id="363">3.97428e-12</wgt>
  <wgt id="364">3.95518e-12</wgt>
  <wgt id="365">3.94072e-12</wgt>
  <wgt id="366">3.92622e-12</wgt>
  <wgt id="367">3.89863e-12</wgt>
  <wgt id="368">3.88053e-12</wgt>
  <wgt id="369">3.86108e-12</wgt>
  <wgt id="370">3.90888e-12</wgt>
  <wgt id="371">3.9242e-12</wgt>
  <wgt id="372">3.91545e-12</wgt>
  <wgt id="373">3.90337e-12</wgt>
  <wgt id="374">3.909e-12</wgt>
  <wgt id="375">4.48478e-12</wgt>
  <wgt id="376">4.4847e-12</wgt>
  <wgt id="377">4.48481e-12</wgt>
  <wgt id="378">4.50176e-12</wgt>
  <wgt id="379">4.46795e-12</wgt>
  <wgt id="380">4.49787e-12</wgt>
  <wgt id="381">4.47941e-12</wgt>
  <wgt id="382">4.50307e-12</wgt>
  <wgt id="383">4.46661e-12</wgt>
  <wgt id="384">4.48752e-12</wgt>
  <wgt id="385">4.48209e-12</wgt>
  <wgt id="386">4.49663e-12</wgt>
  <wgt id="387">4.47965e-12</wgt>
  <wgt id="388">4.4813e-12</wgt>
  <wgt id="389">4.48893e-12</wgt>
  <wgt id="390">4.49371e-12</wgt>
  <wgt id="391">4.47529e-12</wgt>
  <wgt id="392">4.44732e-12</wgt>
  <wgt id="393">4.5059e-12</wgt>
  <wgt id="394">4.48707e-12</wgt>
  <wgt id="395">4.48143e-12</wgt>
  <wgt id="396">4.49243e-12</wgt>
  <wgt id="397">4.47922e-12</wgt>
  <wgt id="398">4.48208e-12</wgt>
  <wgt id="399">4.48724e-12</wgt>
  <wgt id="400">4.47933e-12</wgt>
  <wgt id="401">4.49615e-12</wgt>
  <wgt id="402">4.44523e-12</wgt>
  <wgt id="403">4.51069e-12</wgt>
  <wgt id="404">4.61215e-12</wgt>
  <wgt id="405">4.18192e-12</wgt>
  <wgt id="406">4.39175e-12</wgt>
  <wgt id="407">4.69157e-12</wgt>
  <wgt id="408">4.53271e-12</wgt>
  <wgt id="409">4.39607e-12</wgt>
  <wgt id="410">4.33489e-12</wgt>
  <wgt id="411">4.55714e-12</wgt>
  <wgt id="412">4.47423e-12</wgt>
  <wgt id="413">4.49949e-12</wgt>
  <wgt id="414">4.42476e-12</wgt>
  <wgt id="415">4.53109e-12</wgt>
  <wgt id="416">4.63571e-12</wgt>
  <wgt id="417">4.27685e-12</wgt>
  <wgt id="418">4.49429e-12</wgt>
  <wgt id="419">4.43322e-12</wgt>
  <wgt id="420">4.59087e-12</wgt>
  <wgt id="421">4.41247e-12</wgt>
  <wgt id="422">4.45663e-12</wgt>
  <wgt id="423">4.49753e-12</wgt>
  <wgt id="424">4.61654e-12</wgt>
  <wgt id="425">4.39363e-12</wgt>
  <wgt id="426">4.48478e-12</wgt>
  <wgt id="427">4.39317e-12</wgt>
  <wgt id="428">4.69033e-12</wgt>
  <wgt id="429">4.54571e-12</wgt>
  <wgt id="430">4.69193e-12</wgt>
  <wgt id="431">4.66229e-12</wgt>
  <wgt id="432">4.63558e-12</wgt>
  <wgt id="433">4.60902e-12</wgt>
  <wgt id="434">4.57486e-12</wgt>
  <wgt id="435">4.50904e-12</wgt>
  <wgt id="436">4.47586e-12</wgt>
  <wgt id="437">4.4433e-12</wgt>
  <wgt id="438">4.54571e-12</wgt>
  <wgt id="439">4.55893e-12</wgt>
  <wgt id="440">4.55053e-12</wgt>
  <wgt id="441">4.54229e-12</wgt>
  <wgt id="442">4.53981e-12</wgt>
  <wgt id="443">4.09044e-12</wgt>
  <wgt id="444">4.13626e-12</wgt>
  <wgt id="445">4.14547e-12</wgt>
  <wgt id="446">4.0584e-12</wgt>
  <wgt id="447">4.0952e-12</wgt>
  <wgt id="448">3.99695e-12</wgt>
  <wgt id="449">4.17696e-12</wgt>
  <wgt id="450">4.15661e-12</wgt>
  <wgt id="451">4.07816e-12</wgt>
  <wgt id="452">4.17565e-12</wgt>
  <wgt id="453">4.1437e-12</wgt>
  <wgt id="454">3.87969e-12</wgt>
  <wgt id="455">4.12927e-12</wgt>
  <wgt id="456">4.18236e-12</wgt>
  <wgt id="457">4.10183e-12</wgt>
  <wgt id="458">4.17052e-12</wgt>
  <wgt id="459">4.12911e-12</wgt>
  <wgt id="460">4.18432e-12</wgt>
  <wgt id="461">3.99102e-12</wgt>
  <wgt id="462">4.06543e-12</wgt>
  <wgt id="463">4.0225e-12</wgt>
  <wgt id="464">4.07188e-12</wgt>
  <wgt id="465">4.13288e-12</wgt>
  <wgt id="466">3.98596e-12</wgt>
  <wgt id="467">4.061e-12</wgt>
  <wgt id="468">4.089e-12</wgt>
  <wgt id="469">4.08199e-12</wgt>
  <wgt id="470">4.02362e-12</wgt>
  <wgt id="471">4.03802e-12</wgt>
  <wgt id="472">4.11935e-12</wgt>
  <wgt id="473">3.96205e-12</wgt>
  <wgt id="474">3.0282e-12</wgt>
  <wgt id="475">3.01815e-12</wgt>
  <wgt id="476">3.00702e-12</wgt>
  <wgt id="477">3.05562e-12</wgt>
  <wgt id="478">3.0752e-12</wgt>
  <wgt id="479">2.85719e-12</wgt>
  <wgt id="480">3.21564e-12</wgt>
  <wgt id="481">3.06865e-12</wgt>
  <wgt id="482">3.05504e-12</wgt>
  <wgt id="483">3.06605e-12</wgt>
  <wgt id="484">3.14506e-12</wgt>
  <wgt id="485">2.75204e-12</wgt>
  <wgt id="486">3.20203e-12</wgt>
  <wgt id="487">2.94113e-12</wgt>
  <wgt id="488">3.0534e-12</wgt>
  <wgt id="489">2.70527e-12</wgt>
  <wgt id="490">2.99003e-12</wgt>
  <wgt id="491">2.99067e-12</wgt>
  <wgt id="492">2.99016e-12</wgt>
  <wgt id="493">2.77545e-12</wgt>
  <wgt id="494">2.79059e-12</wgt>
  <wgt id="495">3.04751e-12</wgt>
  <wgt id="496">2.85809e-12</wgt>
  <wgt id="497">2.81564e-12</wgt>
  <wgt id="498">3.11322e-12</wgt>
  <wgt id="499">3.06569e-12</wgt>
  <wgt id="500">3.00909e-12</wgt>
  <wgt id="501">3.12399e-12</wgt>
  <wgt id="502">3.18842e-12</wgt>
  <wgt id="503">2.9739e-12</wgt>
  <wgt id="504">3.14701e-12</wgt>
  <wgt id="505">3.16331e-12</wgt>
  <wgt id="506">2.82167e-12</wgt>
  <wgt id="507">2.95887e-12</wgt>
  <wgt id="508">3.19959e-12</wgt>
  <wgt id="509">2.91917e-12</wgt>
  <wgt id="510">3.05697e-12</wgt>
  <wgt id="511">2.86791e-12</wgt>
  <wgt id="512">3.25125e-12</wgt>
  <wgt id="513">3.178e-12</wgt>
  <wgt id="514">3.22282e-12</wgt>
  <wgt id="515">3.13056e-12</wgt>
  <wgt id="516">3.37185e-12</wgt>
  <wgt id="517">3.09376e-12</wgt>
  <wgt id="518">3.14219e-12</wgt>
  <wgt id="519">2.90144e-12</wgt>
  <wgt id="520">3.07447e-12</wgt>
  <wgt id="521">2.92772e-12</wgt>
  <wgt id="522">3.1345e-12</wgt>
  <wgt id="523">2.86518e-12</wgt>
  <wgt id="524">3.11018e-12</wgt>
  <wgt id="525">2.95031e-12</wgt>
  <wgt id="526">3.20639e-12</wgt>
  <wgt id="527">2.96793e-12</wgt>
  <wgt id="528">3.01864e-12</wgt>
  <wgt id="529">2.86667e-12</wgt>
  <wgt id="530">3.19685e-12</wgt>
  <wgt id="531">2.89731e-12</wgt>
  <wgt id="532">3.27385e-12</wgt>
  <wgt id="533">3.04749e-12</wgt>
  <wgt id="534">2.89974e-12</wgt>
  <wgt id="535">3.08485e-12</wgt>
  <wgt id="536">3.14035e-12</wgt>
  <wgt id="537">2.8493e-12</wgt>
  <wgt id="538">2.98888e-12</wgt>
  <wgt id="539">2.96372e-12</wgt>
  <wgt id="540">3.20571e-12</wgt>
  <wgt id="541">3.00808e-12</wgt>
  <wgt id="542">2.96488e-12</wgt>
  <wgt id="543">2.91463e-12</wgt>
  <wgt id="544">3.03395e-12</wgt>
  <wgt id="545">2.84953e-12</wgt>
  <wgt id="546">2.75078e-12</wgt>
  <wgt id="547">2.92184e-12</wgt>
  <wgt id="548">2.93606e-12</wgt>
  <wgt id="549">2.97726e-12</wgt>
  <wgt id="550">2.91861e-12</wgt>
  <wgt id="551">3.02342e-12</wgt>
  <wgt id="552">2.77988e-12</wgt>
  <wgt id="553">2.81416e-12</wgt>
  <wgt id="554">3.1588e-12</wgt>
  <wgt id="555">3.08608e-12</wgt>
  <wgt id="556">2.99003e-12</wgt>
  <wgt id="557">3.08628e-12</wgt>
  <wgt id="558">3.00963e-12</wgt>
  <wgt id="559">3.0509e-12</wgt>
  <wgt id="560">3.33453e-12</wgt>
  <wgt id="561">3.13608e-12</wgt>
  <wgt id="562">3.15924e-12</wgt>
  <wgt id="563">3.36943e-12</wgt>
  <wgt id="564">3.23278e-12</wgt>
  <wgt id="565">3.16786e-12</wgt>
  <wgt id="566">2.9155e-12</wgt>
  <wgt id="567">3.03717e-12</wgt>
  <wgt id="568">2.8982e-12</wgt>
  <wgt id="569">3.0873e-12</wgt>
  <wgt id="570">3.0513e-12</wgt>
  <wgt id="571">3.32397e-12</wgt>
  <wgt id="572">2.92433e-12</wgt>
  <wgt id="573">2.95007e-12</wgt>
  <wgt id="574">2.96854e-12</wgt>
  <wgt id="575">3.32612e-12</wgt>
  <wgt id="576">3.67535e-12</wgt>
  <wgt id="577">3.46044e-12</wgt>
  <wgt id="578">3.36725e-12</wgt>
  <wgt id="579">3.47348e-12</wgt>
  <wgt id="580">3.56108e-12</wgt>
  <wgt id="581">3.68012e-12</wgt>
  <wgt id="582">3.60991e-12</wgt>
  <wgt id="583">3.41934e-12</wgt>
  <wgt id="584">3.28832e-12</wgt>
  <wgt id="585">3.05858e-12</wgt>
  <wgt id="586">3.12114e-12</wgt>
  <wgt id="587">3.40481e-12</wgt>
  <wgt id="588">3.69872e-12</wgt>
  <wgt id="589">3.67366e-12</wgt>
  <wgt id="590">3.30726e-12</wgt>
  <wgt id="591">3.41046e-12</wgt>
  <wgt id="592">3.08564e-12</wgt>
  <wgt id="593">3.20481e-12</wgt>
  <wgt id="594">3.21065e-12</wgt>
  <wgt id="595">3.53191e-12</wgt>
  <wgt id="596">3.96414e-12</wgt>
  <wgt id="597">3.4022e-12</wgt>
  <wgt id="598">3.37913e-12</wgt>
  <wgt id="599">3.5828e-12</wgt>
  <wgt id="600">3.60669e-12</wgt>
  <wgt id="601">3.18509e-12</wgt>
  <wgt id="602">3.20717e-12</wgt>
  <wgt id="603">3.0751e-12</wgt>
  <wgt id="604">3.42167e-12</wgt>
  <wgt id="605">3.3275e-12</wgt>
  <wgt id="606">3.40757e-12</wgt>
  <wgt id="607">3.50674e-12</wgt>
  <wgt id="608">3.47054e-12</wgt>
  <wgt id="609">3.32037e-12</wgt>
  <wgt id="610">3.15849e-12</wgt>
  <wgt id="611">3.12341e-12</wgt>
  <wgt id="612">3.36439e-12</wgt>
  <wgt id="613">3.15412e-12</wgt>
  <wgt id="614">3.3091e-12</wgt>
  <wgt id="615">3.41325e-12</wgt>
  <wgt id="616">3.11858e-12</wgt>
  <wgt id="617">3.48069e-12</wgt>
  <wgt id="618">3.694e-12</wgt>
  <wgt id="619">3.24813e-12</wgt>
  <wgt id="620">3.4435e-12</wgt>
  <wgt id="621">3.27878e-12</wgt>
  <wgt id="622">3.40481e-12</wgt>
  <wgt id="623">3.33083e-12</wgt>
  <wgt id="624">3.35472e-12</wgt>
  <wgt id="625">3.15811e-12</wgt>
  <wgt id="626">2.9014e-12</wgt>
  <wgt id="627">2.97417e-12</wgt>
  <wgt id="628">3.30808e-12</wgt>
  <wgt id="629">3.45054e-12</wgt>
  <wgt id="630">3.19635e-12</wgt>
  <wgt id="631">3.43475e-12</wgt>
  <wgt id="632">3.01538e-12</wgt>
  <wgt id="633">3.30902e-12</wgt>
  <wgt id="634">3.13861e-12</wgt>
  <wgt id="635">3.03771e-12</wgt>
  <wgt id="636">3.35962e-12</wgt>
  <wgt id="637">3.27399e-12</wgt>
  <wgt id="638">3.15691e-12</wgt>
  <wgt id="639">3.15832e-12</wgt>
  <wgt id="640">3.22312e-12</wgt>
  <wgt id="641">3.51098e-12</wgt>
  <wgt id="642">2.95303e-12</wgt>
  <wgt id="643">3.21452e-12</wgt>
  <wgt id="644">2.96899e-12</wgt>
  <wgt id="645">3.31648e-12</wgt>
  <wgt id="646">2.98134e-12</wgt>
  <wgt id="647">3.40139e-12</wgt>
  <wgt id="648">3.51065e-12</wgt>
  <wgt id="649">3.33451e-12</wgt>
  <wgt id="650">3.17625e-12</wgt>
  <wgt id="651">3.57347e-12</wgt>
  <wgt id="652">3.14948e-12</wgt>
  <wgt id="653">3.16249e-12</wgt>
  <wgt id="654">3.3779e-12</wgt>
  <wgt id="655">3.18928e-12</wgt>
  <wgt id="656">3.36046e-12</wgt>
  <wgt id="657">3.6923e-12</wgt>
  <wgt id="658">3.26965e-12</wgt>
  <wgt id="659">3.19419e-12</wgt>
  <wgt id="660">3.19212e-12</wgt>
  <wgt id="661">3.22912e-12</wgt>
  <wgt id="662">3.28268e-12</wgt>
  <wgt id="663">3.41152e-12</wgt>
  <wgt id="664">3.40021e-12</wgt>
  <wgt id="665">3.27725e-12</wgt>
  <wgt id="666">3.22957e-12</wgt>
  <wgt id="667">3.51112e-12</wgt>
  <wgt id="668">3.27493e-12</wgt>
  <wgt id="669">3.29292e-12</wgt>
  <wgt id="670">3.51052e-12</wgt>
  <wgt id="671">3.39372e-12</wgt>
  <wgt id="672">3.27043e-12</wgt>
  <wgt id="673">3.58067e-12</wgt>
  <wgt id="674">3.21826e-12</wgt>
  <wgt id="675">3.20337e-12</wgt>
  <wgt id="676">4.29845e-12</wgt>
  <wgt id="677">4.35159e-12</wgt>
  <wgt id="678">4.7352e-12</wgt>
  <wgt id="679">4.48955e-12</wgt>
  <wgt id="680">4.36785e-12</wgt>
  <wgt id="681">4.1685e-12</wgt>
  <wgt id="682">4.57352e-12</wgt>
  <wgt id="683">3.89063e-12</wgt>
  <wgt id="684">4.53667e-12</wgt>
  <wgt id="685">4.33886e-12</wgt>
  <wgt id="686">4.38488e-12</wgt>
  <wgt id="687">4.36675e-12</wgt>
  <wgt id="688">4.17875e-12</wgt>
  <wgt id="689">4.51178e-12</wgt>
  <wgt id="690">4.36317e-12</wgt>
  <wgt id="691">4.41076e-12</wgt>
  <wgt id="692">4.17707e-12</wgt>
  <wgt id="693">5.77451e-12</wgt>
  <wgt id="694">4.75694e-12</wgt>
  <wgt id="695">4.01761e-12</wgt>
  <wgt id="696">4.13411e-12</wgt>
  <wgt id="697">3.86152e-12</wgt>
  <wgt id="698">3.46828e-12</wgt>
  <wgt id="699">3.64457e-12</wgt>
  <wgt id="700">3.81546e-12</wgt>
  <wgt id="701">4.28758e-12</wgt>
  <wgt id="702">4.13582e-12</wgt>
  <wgt id="703">5.37494e-12</wgt>
  <wgt id="704">4.8367e-12</wgt>
  <wgt id="705">4.87004e-12</wgt>
  <wgt id="706">4.0279e-12</wgt>
  <wgt id="707">4.00765e-12</wgt>
  <wgt id="708">4.04703e-12</wgt>
  <wgt id="709">4.13096e-12</wgt>
  <wgt id="710">3.54512e-12</wgt>
  <wgt id="711">4.6293e-12</wgt>
  <wgt id="712">3.99841e-12</wgt>
  <wgt id="713">4.64288e-12</wgt>
  <wgt id="714">3.79601e-12</wgt>
  <wgt id="715">4.08597e-12</wgt>
  <wgt id="716">4.12149e-12</wgt>
  <wgt id="717">3.69617e-12</wgt>
  <wgt id="718">4.4269e-12</wgt>
  <wgt id="719">3.93797e-12</wgt>
  <wgt id="720">4.45919e-12</wgt>
  <wgt id="721">3.61514e-12</wgt>
  <wgt id="722">3.32681e-12</wgt>
  <wgt id="723">4.87779e-12</wgt>
  <wgt id="724">4.69384e-12</wgt>
  <wgt id="725">4.46769e-12</wgt>
  <wgt id="726">4.25147e-12</wgt>
  <wgt id="727">4.33408e-12</wgt>
  <wgt id="728">4.2102e-12</wgt>
  <wgt id="729">3.89316e-12</wgt>
  <wgt id="730">4.81417e-12</wgt>
  <wgt id="731">4.21603e-12</wgt>
  <wgt id="732">5.02641e-12</wgt>
  <wgt id="733">3.97033e-12</wgt>
  <wgt id="734">4.43666e-12</wgt>
  <wgt id="735">4.3021e-12</wgt>
  <wgt id="736">3.94227e-12</wgt>
  <wgt id="737">3.90055e-12</wgt>
  <wgt id="738">4.08025e-12</wgt>
  <wgt id="739">4.56821e-12</wgt>
  <wgt id="740">5.11182e-12</wgt>
  <wgt id="741">4.60726e-12</wgt>
  <wgt id="742">4.06486e-12</wgt>
  <wgt id="743">3.9337e-12</wgt>
  <wgt id="744">4.20592e-12</wgt>
  <wgt id="745">4.71674e-12</wgt>
  <wgt id="746">4.86038e-12</wgt>
  <wgt id="747">3.51544e-12</wgt>
  <wgt id="748">4.14507e-12</wgt>
  <wgt id="749">4.43454e-12</wgt>
  <wgt id="750">4.69368e-12</wgt>
  <wgt id="751">4.3094e-12</wgt>
  <wgt id="752">3.8485e-12</wgt>
  <wgt id="753">3.82507e-12</wgt>
  <wgt id="754">4.52971e-12</wgt>
  <wgt id="755">4.17083e-12</wgt>
  <wgt id="756">4.14777e-12</wgt>
  <wgt id="757">3.66419e-12</wgt>
  <wgt id="758">4.13728e-12</wgt>
  <wgt id="759">4.78883e-12</wgt>
  <wgt id="760">4.0592e-12</wgt>
  <wgt id="761">4.79243e-12</wgt>
  <wgt id="762">4.82084e-12</wgt>
  <wgt id="763">4.42559e-12</wgt>
  <wgt id="764">4.61766e-12</wgt>
  <wgt id="765">4.41916e-12</wgt>
  <wgt id="766">4.36932e-12</wgt>
  <wgt id="767">4.39176e-12</wgt>
  <wgt id="768">3.87603e-12</wgt>
  <wgt id="769">4.5093e-12</wgt>
  <wgt id="770">3.98926e-12</wgt>
  <wgt id="771">5.27209e-12</wgt>
  <wgt id="772">4.21138e-12</wgt>
  <wgt id="773">4.33054e-12</wgt>
  <wgt id="774">3.36526e-12</wgt>
  <wgt id="775">4.51777e-12</wgt>
  <wgt id="776">5.04451e-12</wgt>
  <wgt id="777">3.73351e-12</wgt>
  <wgt id="778">2.75496e-12</wgt>
  <wgt id="779">1.58024e-12</wgt>
  <wgt id="780">8.31217e-13</wgt>
  <wgt id="781">3.15044e-12</wgt>
  <wgt id="782">3.39364e-12</wgt>
  <wgt id="783">1.32865e-12</wgt>
  <wgt id="784">1.81329e-12</wgt>
  <wgt id="785">4.19328e-12</wgt>
  <wgt id="786">1.33919e-12</wgt>
  <wgt id="787">3.67722e-12</wgt>
  <wgt id="788">2.14257e-13</wgt>
  <wgt id="789">1.83704e-12</wgt>
  <wgt id="790">1.39587e-12</wgt>
  <wgt id="791">3.31941e-12</wgt>
  <wgt id="792">3.77743e-12</wgt>
  <wgt id="793">2.53325e-12</wgt>
  <wgt id="794">1.20946e-12</wgt>
  <wgt id="795">3.94045e-12</wgt>
  <wgt id="796">4.08472e-12</wgt>
  <wgt id="797">3.64398e-12</wgt>
  <wgt id="798">1.97572e-12</wgt>
  <wgt id="799">3.59619e-12</wgt>
  <wgt id="800">2.0647e-12</wgt>
  <wgt id="801">2.74891e-12</wgt>
  <wgt id="802">1.16326e-12</wgt>
  <wgt id="803">4.50425e-12</wgt>
  <wgt id="804">4.06397e-12</wgt>
  <wgt id="805">3.80495e-12</wgt>
  <wgt id="806">3.0892e-12</wgt>
  <wgt id="807">2.73823e-12</wgt>
  <wgt id="808">2.64096e-12</wgt>
  <wgt id="809">2.4759e-12</wgt>
  <wgt id="810">3.48564e-12</wgt>
  <wgt id="811">2.87631e-12</wgt>
  <wgt id="812">1.42584e-12</wgt>
  <wgt id="813">1.56682e-12</wgt>
  <wgt id="814">1.83684e-12</wgt>
  <wgt id="815">1.39248e-12</wgt>
  <wgt id="816">1.68143e-12</wgt>
  <wgt id="817">2.78415e-12</wgt>
  <wgt id="818">3.92888e-12</wgt>
  <wgt id="819">1.53642e-12</wgt>
  <wgt id="820">2.54647e-12</wgt>
  <wgt id="821">3.40035e-12</wgt>
  <wgt id="822">2.1881e-12</wgt>
  <wgt id="823">3.66057e-12</wgt>
  <wgt id="824">4.19224e-12</wgt>
  <wgt id="825">1.04813e-12</wgt>
  <wgt id="826">3.66153e-12</wgt>
  <wgt id="827">1.02391e-12</wgt>
  <wgt id="828">3.58661e-12</wgt>
  <wgt id="829">2.84705e-12</wgt>
  <wgt id="830">1.01573e-12</wgt>
  <wgt id="831">3.3741e-12</wgt>
  <wgt id="832">5.15397e-12</wgt>
  <wgt id="833">2.10122e-12</wgt>
  <wgt id="834">5.08966e-12</wgt>
  <wgt id="835">1.80776e-12</wgt>
  <wgt id="836">2.16877e-12</wgt>
  <wgt id="837">3.32049e-12</wgt>
  <wgt id="838">2.09223e-12</wgt>
  <wgt id="839">3.38295e-12</wgt>
  <wgt id="840">2.2946e-12</wgt>
  <wgt id="841">4.04983e-12</wgt>
  <wgt id="842">2.84958e-12</wgt>
  <wgt id="843">3.0465e-12</wgt>
  <wgt id="844">3.16419e-12</wgt>
  <wgt id="845">5.34758e-12</wgt>
  <wgt id="846">2.71095e-12</wgt>
  <wgt id="847">3.06207e-12</wgt>
  <wgt id="848">1.44945e-12</wgt>
  <wgt id="849">3.1075e-12</wgt>
  <wgt id="850">4.47072e-12</wgt>
  <wgt id="851">3.37603e-12</wgt>
  <wgt id="852">1.13669e-12</wgt>
  <wgt id="853">3.559e-12</wgt>
  <wgt id="854">4.07358e-12</wgt>
  <wgt id="855">3.45329e-12</wgt>
  <wgt id="856">9.88978e-13</wgt>
  <wgt id="857">2.28405e-12</wgt>
  <wgt id="858">2.63541e-12</wgt>
  <wgt id="859">2.68413e-12</wgt>
  <wgt id="860">3.71312e-12</wgt>
  <wgt id="861">2.19827e-12</wgt>
  <wgt id="862">2.85301e-12</wgt>
  <wgt id="863">3.30549e-12</wgt>
  <wgt id="864">2.85355e-12</wgt>
  <wgt id="865">4.62383e-12</wgt>
  <wgt id="866">5.17488e-12</wgt>
  <wgt id="867">2.79957e-12</wgt>
  <wgt id="868">2.91548e-12</wgt>
  <wgt id="869">1.36088e-12</wgt>
  <wgt id="870">1.76281e-12</wgt>
  <wgt id="871">1.84881e-12</wgt>
  <wgt id="872">4.23242e-12</wgt>
  <wgt id="873">2.12583e-12</wgt>
  <wgt id="874">3.14331e-12</wgt>
  <wgt id="875">2.02262e-12</wgt>
  <wgt id="876">3.992e-12</wgt>
  <wgt id="877">3.18825e-12</wgt>
  <wgt id="878">2.1982e-12</wgt>
  <wgt id="879">4.29845e-12</wgt>
  <wgt id="880">4.35159e-12</wgt>
  <wgt id="881">4.7352e-12</wgt>
  <wgt id="882">4.48955e-12</wgt>
  <wgt id="883">4.36785e-12</wgt>
  <wgt id="884">4.1685e-12</wgt>
  <wgt id="885">4.57352e-12</wgt>
  <wgt id="886">3.89063e-12</wgt>
  <wgt id="887">4.53667e-12</wgt>
  <wgt id="888">4.33886e-12</wgt>
  <wgt id="889">4.38488e-12</wgt>
  <wgt id="890">4.36675e-12</wgt>
  <wgt id="891">4.17875e-12</wgt>
  <wgt id="892">4.51178e-12</wgt>
  <wgt id="893">4.36317e-12</wgt>
  <wgt id="894">4.41076e-12</wgt>
  <wgt id="895">4.17707e-12</wgt>
  <wgt id="896">5.77451e-12</wgt>
  <wgt id="897">4.75694e-12</wgt>
  <wgt id="898">4.01761e-12</wgt>
  <wgt id="899">4.13411e-12</wgt>
  <wgt id="900">3.86152e-12</wgt>
  <wgt id="901">3.46828e-12</wgt>
  <wgt id="902">3.64457e-12</wgt>
  <wgt id="903">3.81546e-12</wgt>
  <wgt id="904">4.28758e-12</wgt>
  <wgt id="905">4.13582e-12</wgt>
  <wgt id="906">5.37494e-12</wgt>
  <wgt id="907">4.8367e-12</wgt>
  <wgt id="908">4.87004e-12</wgt>
  <wgt id="909">4.0279e-12</wgt>
  <wgt id="910">4.00765e-12</wgt>
  <wgt id="911">4.04703e-12</wgt>
  <wgt id="912">4.13096e-12</wgt>
  <wgt id="913">3.54512e-12</wgt>
  <wgt id="914">4.6293e-12</wgt>
  <wgt id="915">3.99841e-12</wgt>
  <wgt id="916">4.64288e-12</wgt>
  <wgt id="917">3.79601e-12</wgt>
  <wgt id="918">4.08597e-12</wgt>
  <wgt id="919">4.12149e-12</wgt>
  <wgt id="920">3.69617e-12</wgt>
  <wgt id="921">4.4269e-12</wgt>
  <wgt id="922">3.93797e-12</wgt>
  <wgt id="923">4.45919e-12</wgt>
  <wgt id="924">3.61514e-12</wgt>
  <wgt id="925">3.32681e-12</wgt>
  <wgt id="926">4.87779e-12</wgt>
  <wgt id="927">4.69384e-12</wgt>
  <wgt id="928">4.46769e-12</wgt>
  <wgt id="929">4.25147e-12</wgt>
  <wgt id="930">4.33408e-12</wgt>
  <wgt id="931">4.2102e-12</wgt>
  <wgt id="932">3.89316e-12</wgt>
  <wgt id="933">4.81417e-12</wgt>
  <wgt id="934">4.21603e-12</wgt>
  <wgt id="935">5.02641e-12</wgt>
  <wgt id="936">3.97033e-12</wgt>
  <wgt id="937">4.43666e-12</wgt>
  <wgt id="938">4.3021e-12</wgt>
  <wgt id="939">3.94227e-12</wgt>
  <wgt id="940">3.90055e-12</wgt>
  <wgt id="941">4.08025e-12</wgt>
  <wgt id="942">4.56821e-12</wgt>
  <wgt id="943">5.11182e-12</wgt>
  <wgt id="944">4.60726e-12</wgt>
  <wgt id="945">4.06486e-12</wgt>
  <wgt id="946">3.9337e-12</wgt>
  <wgt id="947">4.20592e-12</wgt>
  <wgt id="948">4.71674e-12</wgt>
  <wgt id="949">4.86038e-12</wgt>
  <wgt id="950">3.51544e-12</wgt>
  <wgt id="951">4.14507e-12</wgt>
  <wgt id="952">4.43454e-12</wgt>
  <wgt id="953">4.69368e-12</wgt>
  <wgt id="954">4.3094e-12</wgt>
  <wgt id="955">3.8485e-12</wgt>
  <wgt id="956">3.82507e-12</wgt>
  <wgt id="957">4.52971e-12</wgt>
  <wgt id="958">4.17083e-12</wgt>
  <wgt id="959">4.14777e-12</wgt>
  <wgt id="960">3.66419e-12</wgt>
  <wgt id="961">4.13728e-12</wgt>
  <wgt id="962">4.78883e-12</wgt>
  <wgt id="963">4.0592e-12</wgt>
  <wgt id="964">4.79243e-12</wgt>
  <wgt id="965">4.82084e-12</wgt>
  <wgt id="966">4.42559e-12</wgt>
  <wgt id="967">4.61766e-12</wgt>
  <wgt id="968">4.41916e-12</wgt>
  <wgt id="969">4.36932e-12</wgt>
  <wgt id="970">4.39176e-12</wgt>
  <wgt id="971">3.87603e-12</wgt>
  <wgt id="972">4.5093e-12</wgt>
  <wgt id="973">3.98926e-12</wgt>
  <wgt id="974">5.27209e-12</wgt>
  <wgt id="975">4.21138e-12</wgt>
  <wgt id="976">4.33054e-12</wgt>
  <wgt id="977">3.36526e-12</wgt>
  <wgt id="978">4.51777e-12</wgt>
  <wgt id="979">5.04451e-12</wgt>
  <wgt id="980">4.26444e-12</wgt>
  <wgt id="981">4.40936e-12</wgt>
  <wgt id="982">4.16945e-12</wgt>
</rwgt>
</event>
<event>
 5   1  0.3028200E-11  0.2362779E+04  0.7818608E-02  0.7690195E-01
       21   -1    0    0  502  501  0.00000000000E+00  0.00000000000E+00  0.11565064620E+04  0.11565064620E+04  0.00000000000E+00 0.  1.
       21   -1    0    0  501  502 -0.00000000000E+00 -0.00000000000E+00 -0.12068077587E+04  0.12068077587E+04  0.00000000000E+00 0. -1.
       39    2    1    2    0    0  0.00000000000E+00  0.00000000000E+00 -0.50301296740E+02  0.23633142208E+04  0.23627788482E+04 0.  0.
       25    1    3    3    0    0 -0.91438478653E+03  0.73527920746E+03 -0.82791135494E+02  0.11828839431E+04  0.12500000000E+03 0.  0.
       25    1    3    3    0    0  0.91438478653E+03 -0.73527920746E+03  0.32489838754E+02  0.11804302776E+04  0.12500000000E+03 0.  0.
<mgrwt>
<rscale>  0 0.23627788E+04</rscale>
<asrwt>0</asrwt>
<pdfrwt beam="1">  1       21 0.17792407E+00 0.23627788E+04</pdfrwt>
<pdfrwt beam="2">  1       21 0.18566273E+00 0.23627788E+04</pdfrwt>
<totfact> 0.11653496E+01</totfact>
</mgrwt>
<rwgt>
  <wgt id="1">3.0282e-12</wgt>
  <wgt id="2">2.63437e-12</wgt>
  <wgt id="3">3.5176e-12</wgt>
  <wgt id="4">3.0282e-12</wgt>
  <wgt id="5">2.63437e-12</wgt>
  <wgt id="6">3.5176e-12</wgt>
  <wgt id="7">3.0282e-12</wgt>
  <wgt id="8">2.63437e-12</wgt>
  <wgt id="9">3.5176e-12</wgt>
  <wgt id="10">3.13337e-12</wgt>
  <wgt id="11">3.12987e-12</wgt>
  <wgt id="12">3.12704e-12</wgt>
  <wgt id="13">3.12226e-12</wgt>
  <wgt id="14">3.14497e-12</wgt>
  <wgt id="15">3.13794e-12</wgt>
  <wgt id="16">3.12667e-12</wgt>
  <wgt id="17">3.13765e-12</wgt>
  <wgt id="18">3.12753e-12</wgt>
  <wgt id="19">3.1406e-12</wgt>
  <wgt id="20">3.12331e-12</wgt>
  <wgt id="21">3.11629e-12</wgt>
  <wgt id="22">3.12404e-12</wgt>
  <wgt id="23">3.10678e-12</wgt>
  <wgt id="24">3.12021e-12</wgt>
  <wgt id="25">3.12631e-12</wgt>
  <wgt id="26">3.14738e-12</wgt>
  <wgt id="27">3.13381e-12</wgt>
  <wgt id="28">3.11932e-12</wgt>
  <wgt id="29">3.13648e-12</wgt>
  <wgt id="30">3.12779e-12</wgt>
  <wgt id="31">3.1406e-12</wgt>
  <wgt id="32">3.1299e-12</wgt>
  <wgt id="33">3.14151e-12</wgt>
  <wgt id="34">3.12472e-12</wgt>
  <wgt id="35">3.1331e-12</wgt>
  <wgt id="36">3.14309e-12</wgt>
  <wgt id="37">3.12546e-12</wgt>
  <wgt id="38">3.12419e-12</wgt>
  <wgt id="39">3.16331e-12</wgt>
  <wgt id="40">3.14088e-12</wgt>
  <wgt id="41">3.13303e-12</wgt>
  <wgt id="42">3.14097e-12</wgt>
  <wgt id="43">3.13457e-12</wgt>
  <wgt id="44">3.12189e-12</wgt>
  <wgt id="45">3.14061e-12</wgt>
  <wgt id="46">3.13985e-12</wgt>
  <wgt id="47">3.11855e-12</wgt>
  <wgt id="48">3.13292e-12</wgt>
  <wgt id="49">3.14285e-12</wgt>
  <wgt id="50">3.15502e-12</wgt>
  <wgt id="51">3.1501e-12</wgt>
  <wgt id="52">3.12742e-12</wgt>
  <wgt id="53">3.10776e-12</wgt>
  <wgt id="54">3.12524e-12</wgt>
  <wgt id="55">3.13304e-12</wgt>
  <wgt id="56">3.14406e-12</wgt>
  <wgt id="57">3.1447e-12</wgt>
  <wgt id="58">3.10962e-12</wgt>
  <wgt id="59">3.12127e-12</wgt>
  <wgt id="60">3.1341e-12</wgt>
  <wgt id="61">3.12803e-12</wgt>
  <wgt id="62">3.13352e-12</wgt>
  <wgt id="63">3.13784e-12</wgt>
  <wgt id="64">3.13733e-12</wgt>
  <wgt id="65">3.13652e-12</wgt>
  <wgt id="66">3.12897e-12</wgt>
  <wgt id="67">3.1294e-12</wgt>
  <wgt id="68">3.12961e-12</wgt>
  <wgt id="69">3.13272e-12</wgt>
  <wgt id="70">3.13038e-12</wgt>
  <wgt id="71">3.13286e-12</wgt>
  <wgt id="72">3.13053e-12</wgt>
  <wgt id="73">3.13526e-12</wgt>
  <wgt id="74">3.13573e-12</wgt>
  <wgt id="75">3.13184e-12</wgt>
  <wgt id="76">3.14225e-12</wgt>
  <wgt id="77">3.13299e-12</wgt>
  <wgt id="78">3.13442e-12</wgt>
  <wgt id="79">3.13874e-12</wgt>
  <wgt id="80">3.11999e-12</wgt>
  <wgt id="81">3.129e-12</wgt>
  <wgt id="82">3.13335e-12</wgt>
  <wgt id="83">3.12118e-12</wgt>
  <wgt id="84">3.12608e-12</wgt>
  <wgt id="85">3.128e-12</wgt>
  <wgt id="86">3.14011e-12</wgt>
  <wgt id="87">3.11786e-12</wgt>
  <wgt id="88">3.13728e-12</wgt>
  <wgt id="89">3.13636e-12</wgt>
  <wgt id="90">3.13699e-12</wgt>
  <wgt id="91">3.13534e-12</wgt>
  <wgt id="92">3.13913e-12</wgt>
  <wgt id="93">3.13243e-12</wgt>
  <wgt id="94">3.13051e-12</wgt>
  <wgt id="95">3.13477e-12</wgt>
  <wgt id="96">3.1356e-12</wgt>
  <wgt id="97">3.12962e-12</wgt>
  <wgt id="98">3.13484e-12</wgt>
  <wgt id="99">3.13297e-12</wgt>
  <wgt id="100">3.13623e-12</wgt>
  <wgt id="101">3.13173e-12</wgt>
  <wgt id="102">3.12985e-12</wgt>
  <wgt id="103">3.13788e-12</wgt>
  <wgt id="104">3.13058e-12</wgt>
  <wgt id="105">3.1359e-12</wgt>
  <wgt id="106">3.12962e-12</wgt>
  <wgt id="107">3.14121e-12</wgt>
  <wgt id="108">3.13056e-12</wgt>
  <wgt id="109">3.13461e-12</wgt>
  <wgt id="110">3.1327e-12</wgt>
  <wgt id="111">3.16536e-12</wgt>
  <wgt id="112">3.12885e-12</wgt>
  <wgt id="113">4.21335e-12</wgt>
  <wgt id="114">4.36379e-12</wgt>
  <wgt id="115">4.30501e-12</wgt>
  <wgt id="116">6.06572e-12</wgt>
  <wgt id="117">3.49551e-12</wgt>
  <wgt id="118">3.5079e-12</wgt>
  <wgt id="119">3.48861e-12</wgt>
  <wgt id="120">3.49584e-12</wgt>
  <wgt id="121">3.49527e-12</wgt>
  <wgt id="122">3.48951e-12</wgt>
  <wgt id="123">3.504e-12</wgt>
  <wgt id="124">3.49063e-12</wgt>
  <wgt id="125">3.49887e-12</wgt>
  <wgt id="126">3.50211e-12</wgt>
  <wgt id="127">3.49114e-12</wgt>
  <wgt id="128">3.50657e-12</wgt>
  <wgt id="129">3.48457e-12</wgt>
  <wgt id="130">3.51606e-12</wgt>
  <wgt id="131">3.47444e-12</wgt>
  <wgt id="132">3.40446e-12</wgt>
  <wgt id="133">3.60323e-12</wgt>
  <wgt id="134">3.4578e-12</wgt>
  <wgt id="135">3.52502e-12</wgt>
  <wgt id="136">3.54023e-12</wgt>
  <wgt id="137">3.44144e-12</wgt>
  <wgt id="138">3.63088e-12</wgt>
  <wgt id="139">3.36464e-12</wgt>
  <wgt id="140">3.4721e-12</wgt>
  <wgt id="141">3.51386e-12</wgt>
  <wgt id="142">3.49608e-12</wgt>
  <wgt id="143">3.50026e-12</wgt>
  <wgt id="144">3.39803e-12</wgt>
  <wgt id="145">3.58597e-12</wgt>
  <wgt id="146">3.52666e-12</wgt>
  <wgt id="147">3.47094e-12</wgt>
  <wgt id="148">3.50635e-12</wgt>
  <wgt id="149">3.49486e-12</wgt>
  <wgt id="150">3.52605e-12</wgt>
  <wgt id="151">3.48123e-12</wgt>
  <wgt id="152">3.49718e-12</wgt>
  <wgt id="153">3.49495e-12</wgt>
  <wgt id="154">3.52431e-12</wgt>
  <wgt id="155">3.4614e-12</wgt>
  <wgt id="156">3.56397e-12</wgt>
  <wgt id="157">3.42316e-12</wgt>
  <wgt id="158">4.20517e-12</wgt>
  <wgt id="159">4.22265e-12</wgt>
  <wgt id="160">4.19101e-12</wgt>
  <wgt id="161">4.1944e-12</wgt>
  <wgt id="162">4.21719e-12</wgt>
  <wgt id="163">4.20066e-12</wgt>
  <wgt id="164">4.21203e-12</wgt>
  <wgt id="165">4.20677e-12</wgt>
  <wgt id="166">4.2041e-12</wgt>
  <wgt id="167">4.20212e-12</wgt>
  <wgt id="168">4.20945e-12</wgt>
  <wgt id="169">4.18735e-12</wgt>
  <wgt id="170">4.21658e-12</wgt>
  <wgt id="171">4.20038e-12</wgt>
  <wgt id="172">4.21192e-12</wgt>
  <wgt id="173">4.20521e-12</wgt>
  <wgt id="174">4.20503e-12</wgt>
  <wgt id="175">4.08648e-12</wgt>
  <wgt id="176">4.35985e-12</wgt>
  <wgt id="177">4.228e-12</wgt>
  <wgt id="178">4.18412e-12</wgt>
  <wgt id="179">4.38092e-12</wgt>
  <wgt id="180">3.92789e-12</wgt>
  <wgt id="181">4.08283e-12</wgt>
  <wgt id="182">4.28587e-12</wgt>
  <wgt id="183">4.13044e-12</wgt>
  <wgt id="184">4.24246e-12</wgt>
  <wgt id="185">4.1717e-12</wgt>
  <wgt id="186">4.24592e-12</wgt>
  <wgt id="187">4.16778e-12</wgt>
  <wgt id="188">4.27314e-12</wgt>
  <wgt id="189">4.17834e-12</wgt>
  <wgt id="190">4.21632e-12</wgt>
  <wgt id="191">4.21668e-12</wgt>
  <wgt id="192">4.19846e-12</wgt>
  <wgt id="193">4.2652e-12</wgt>
  <wgt id="194">4.17564e-12</wgt>
  <wgt id="195">4.10128e-12</wgt>
  <wgt id="196">4.39028e-12</wgt>
  <wgt id="197">4.22624e-12</wgt>
  <wgt id="198">4.2003e-12</wgt>
  <wgt id="199">4.20517e-12</wgt>
  <wgt id="200">4.2412e-12</wgt>
  <wgt id="201">4.22793e-12</wgt>
  <wgt id="202">4.21521e-12</wgt>
  <wgt id="203">4.19588e-12</wgt>
  <wgt id="204">4.18671e-12</wgt>
  <wgt id="205">4.17928e-12</wgt>
  <wgt id="206">4.07457e-12</wgt>
  <wgt id="207">4.09843e-12</wgt>
  <wgt id="208">4.05103e-12</wgt>
  <wgt id="209">4.08737e-12</wgt>
  <wgt id="210">4.06516e-12</wgt>
  <wgt id="211">4.07313e-12</wgt>
  <wgt id="212">4.07593e-12</wgt>
  <wgt id="213">4.0742e-12</wgt>
  <wgt id="214">4.07518e-12</wgt>
  <wgt id="215">4.07759e-12</wgt>
  <wgt id="216">4.07241e-12</wgt>
  <wgt id="217">4.08655e-12</wgt>
  <wgt id="218">4.06542e-12</wgt>
  <wgt id="219">4.07062e-12</wgt>
  <wgt id="220">4.07695e-12</wgt>
  <wgt id="221">4.07263e-12</wgt>
  <wgt id="222">4.07905e-12</wgt>
  <wgt id="223">3.8596e-12</wgt>
  <wgt id="224">4.27046e-12</wgt>
  <wgt id="225">4.02571e-12</wgt>
  <wgt id="226">4.13599e-12</wgt>
  <wgt id="227">4.03614e-12</wgt>
  <wgt id="228">4.09144e-12</wgt>
  <wgt id="229">4.01794e-12</wgt>
  <wgt id="230">4.1028e-12</wgt>
  <wgt id="231">4.19014e-12</wgt>
  <wgt id="232">3.97963e-12</wgt>
  <wgt id="233">4.05341e-12</wgt>
  <wgt id="234">4.10747e-12</wgt>
  <wgt id="235">3.99461e-12</wgt>
  <wgt id="236">4.14978e-12</wgt>
  <wgt id="237">4.01976e-12</wgt>
  <wgt id="238">4.09347e-12</wgt>
  <wgt id="239">4.05071e-12</wgt>
  <wgt id="240">4.11779e-12</wgt>
  <wgt id="241">4.03367e-12</wgt>
  <wgt id="242">4.12419e-12</wgt>
  <wgt id="243">4.12508e-12</wgt>
  <wgt id="244">4.09654e-12</wgt>
  <wgt id="245">4.07184e-12</wgt>
  <wgt id="246">4.10485e-12</wgt>
  <wgt id="247">4.07457e-12</wgt>
  <wgt id="248">4.10923e-12</wgt>
  <wgt id="249">4.09584e-12</wgt>
  <wgt id="250">4.08371e-12</wgt>
  <wgt id="251">4.06495e-12</wgt>
  <wgt id="252">4.05632e-12</wgt>
  <wgt id="253">4.04996e-12</wgt>
  <wgt id="254">3.99545e-12</wgt>
  <wgt id="255">3.99928e-12</wgt>
  <wgt id="256">3.99116e-12</wgt>
  <wgt id="257">3.99829e-12</wgt>
  <wgt id="258">3.99319e-12</wgt>
  <wgt id="259">4.0222e-12</wgt>
  <wgt id="260">3.96964e-12</wgt>
  <wgt id="261">4.0012e-12</wgt>
  <wgt id="262">3.98852e-12</wgt>
  <wgt id="263">3.99368e-12</wgt>
  <wgt id="264">3.99749e-12</wgt>
  <wgt id="265">3.99067e-12</wgt>
  <wgt id="266">4.00463e-12</wgt>
  <wgt id="267">3.99678e-12</wgt>
  <wgt id="268">3.99369e-12</wgt>
  <wgt id="269">4.00834e-12</wgt>
  <wgt id="270">3.98663e-12</wgt>
  <wgt id="271">3.98895e-12</wgt>
  <wgt id="272">4.00283e-12</wgt>
  <wgt id="273">3.9828e-12</wgt>
  <wgt id="274">4.00502e-12</wgt>
  <wgt id="275">3.97928e-12</wgt>
  <wgt id="276">4.012e-12</wgt>
  <wgt id="277">3.97271e-12</wgt>
  <wgt id="278">4.01621e-12</wgt>
  <wgt id="279">3.91825e-12</wgt>
  <wgt id="280">4.09197e-12</wgt>
  <wgt id="281">3.97783e-12</wgt>
  <wgt id="282">3.99603e-12</wgt>
  <wgt id="283">3.88245e-12</wgt>
  <wgt id="284">4.13442e-12</wgt>
  <wgt id="285">3.80783e-12</wgt>
  <wgt id="286">4.15018e-12</wgt>
  <wgt id="287">4.00759e-12</wgt>
  <wgt id="288">3.9796e-12</wgt>
  <wgt id="289">4.02276e-12</wgt>
  <wgt id="290">3.93113e-12</wgt>
  <wgt id="291">3.98499e-12</wgt>
  <wgt id="292">3.99782e-12</wgt>
  <wgt id="293">3.9651e-12</wgt>
  <wgt id="294">4.02544e-12</wgt>
  <wgt id="295">3.92096e-12</wgt>
  <wgt id="296">4.08619e-12</wgt>
  <wgt id="297">3.99573e-12</wgt>
  <wgt id="298">4.01002e-12</wgt>
  <wgt id="299">3.98257e-12</wgt>
  <wgt id="300">4.0289e-12</wgt>
  <wgt id="301">3.94153e-12</wgt>
  <wgt id="302">4.13223e-12</wgt>
  <wgt id="303">3.96608e-12</wgt>
  <wgt id="304">4.01242e-12</wgt>
  <wgt id="305">4.01088e-12</wgt>
  <wgt id="306">4.01519e-12</wgt>
  <wgt id="307">4.0066e-12</wgt>
  <wgt id="308">4.01435e-12</wgt>
  <wgt id="309">4.00873e-12</wgt>
  <wgt id="310">4.03874e-12</wgt>
  <wgt id="311">3.98541e-12</wgt>
  <wgt id="312">4.01583e-12</wgt>
  <wgt id="313">4.00621e-12</wgt>
  <wgt id="314">4.00949e-12</wgt>
  <wgt id="315">4.01267e-12</wgt>
  <wgt id="316">4.00645e-12</wgt>
  <wgt id="317">4.02084e-12</wgt>
  <wgt id="318">4.01399e-12</wgt>
  <wgt id="319">4.00613e-12</wgt>
  <wgt id="320">4.02452e-12</wgt>
  <wgt id="321">4.00346e-12</wgt>
  <wgt id="322">4.0023e-12</wgt>
  <wgt id="323">4.02127e-12</wgt>
  <wgt id="324">4.00061e-12</wgt>
  <wgt id="325">4.02023e-12</wgt>
  <wgt id="326">3.99815e-12</wgt>
  <wgt id="327">4.02746e-12</wgt>
  <wgt id="328">3.99061e-12</wgt>
  <wgt id="329">4.02259e-12</wgt>
  <wgt id="330">4.12976e-12</wgt>
  <wgt id="331">3.89776e-12</wgt>
  <wgt id="332">3.99632e-12</wgt>
  <wgt id="333">4.01112e-12</wgt>
  <wgt id="334">3.9219e-12</wgt>
  <wgt id="335">4.12153e-12</wgt>
  <wgt id="336">3.87449e-12</wgt>
  <wgt id="337">4.17663e-12</wgt>
  <wgt id="338">4.05473e-12</wgt>
  <wgt id="339">3.97064e-12</wgt>
  <wgt id="340">4.03721e-12</wgt>
  <wgt id="341">3.94359e-12</wgt>
  <wgt id="342">4.00376e-12</wgt>
  <wgt id="343">4.00747e-12</wgt>
  <wgt id="344">3.98361e-12</wgt>
  <wgt id="345">4.04297e-12</wgt>
  <wgt id="346">3.93366e-12</wgt>
  <wgt id="347">4.10038e-12</wgt>
  <wgt id="348">4.01294e-12</wgt>
  <wgt id="349">4.02297e-12</wgt>
  <wgt id="350">3.99504e-12</wgt>
  <wgt id="351">4.05175e-12</wgt>
  <wgt id="352">3.95101e-12</wgt>
  <wgt id="353">4.15505e-12</wgt>
  <wgt id="354">3.9657e-12</wgt>
  <wgt id="355">4.0388e-12</wgt>
  <wgt id="356">3.99545e-12</wgt>
  <wgt id="357">4.02851e-12</wgt>
  <wgt id="358">4.01088e-12</wgt>
  <wgt id="359">4.01041e-12</wgt>
  <wgt id="360">4.01927e-12</wgt>
  <wgt id="361">4.00747e-12</wgt>
  <wgt id="362">4.07615e-12</wgt>
  <wgt id="363">4.06625e-12</wgt>
  <wgt id="364">4.05282e-12</wgt>
  <wgt id="365">4.03926e-12</wgt>
  <wgt id="366">4.02419e-12</wgt>
  <wgt id="367">3.99264e-12</wgt>
  <wgt id="368">3.97564e-12</wgt>
  <wgt id="369">3.95711e-12</wgt>
  <wgt id="370">4.00747e-12</wgt>
  <wgt id="371">4.02551e-12</wgt>
  <wgt id="372">4.01559e-12</wgt>
  <wgt id="373">4.00092e-12</wgt>
  <wgt id="374">3.9991e-12</wgt>
  <wgt id="375">4.25887e-12</wgt>
  <wgt id="376">4.25951e-12</wgt>
  <wgt id="377">4.25814e-12</wgt>
  <wgt id="378">4.27411e-12</wgt>
  <wgt id="379">4.24353e-12</wgt>
  <wgt id="380">4.27019e-12</wgt>
  <wgt id="381">4.25418e-12</wgt>
  <wgt id="382">4.28106e-12</wgt>
  <wgt id="383">4.23672e-12</wgt>
  <wgt id="384">4.26157e-12</wgt>
  <wgt id="385">4.25616e-12</wgt>
  <wgt id="386">4.27614e-12</wgt>
  <wgt id="387">4.25122e-12</wgt>
  <wgt id="388">4.25468e-12</wgt>
  <wgt id="389">4.26367e-12</wgt>
  <wgt id="390">4.27059e-12</wgt>
  <wgt id="391">4.24642e-12</wgt>
  <wgt id="392">4.22641e-12</wgt>
  <wgt id="393">4.27709e-12</wgt>
  <wgt id="394">4.26489e-12</wgt>
  <wgt id="395">4.25021e-12</wgt>
  <wgt id="396">4.26132e-12</wgt>
  <wgt id="397">4.25701e-12</wgt>
  <wgt id="398">4.23944e-12</wgt>
  <wgt id="399">4.2776e-12</wgt>
  <wgt id="400">4.25147e-12</wgt>
  <wgt id="401">4.2753e-12</wgt>
  <wgt id="402">4.22435e-12</wgt>
  <wgt id="403">4.27347e-12</wgt>
  <wgt id="404">4.35527e-12</wgt>
  <wgt id="405">4.02611e-12</wgt>
  <wgt id="406">4.18972e-12</wgt>
  <wgt id="407">4.40848e-12</wgt>
  <wgt id="408">4.29434e-12</wgt>
  <wgt id="409">4.19067e-12</wgt>
  <wgt id="410">4.1452e-12</wgt>
  <wgt id="411">4.31112e-12</wgt>
  <wgt id="412">4.2515e-12</wgt>
  <wgt id="413">4.26942e-12</wgt>
  <wgt id="414">4.21339e-12</wgt>
  <wgt id="415">4.29395e-12</wgt>
  <wgt id="416">4.36873e-12</wgt>
  <wgt id="417">4.10694e-12</wgt>
  <wgt id="418">4.26425e-12</wgt>
  <wgt id="419">4.2295e-12</wgt>
  <wgt id="420">4.31967e-12</wgt>
  <wgt id="421">4.22465e-12</wgt>
  <wgt id="422">4.25324e-12</wgt>
  <wgt id="423">4.26228e-12</wgt>
  <wgt id="424">4.34225e-12</wgt>
  <wgt id="425">4.20679e-12</wgt>
  <wgt id="426">4.25887e-12</wgt>
  <wgt id="427">4.2241e-12</wgt>
  <wgt id="428">4.36423e-12</wgt>
  <wgt id="429">4.29579e-12</wgt>
  <wgt id="430">4.41402e-12</wgt>
  <wgt id="431">4.39055e-12</wgt>
  <wgt id="432">4.36809e-12</wgt>
  <wgt id="433">4.34631e-12</wgt>
  <wgt id="434">4.32015e-12</wgt>
  <wgt id="435">4.26521e-12</wgt>
  <wgt id="436">4.23695e-12</wgt>
  <wgt id="437">4.2103e-12</wgt>
  <wgt id="438">4.29579e-12</wgt>
  <wgt id="439">4.31e-12</wgt>
  <wgt id="440">4.30175e-12</wgt>
  <wgt id="441">4.29149e-12</wgt>
  <wgt id="442">4.2875e-12</wgt>
  <wgt id="443">4.17982e-12</wgt>
  <wgt id="444">4.20138e-12</wgt>
  <wgt id="445">4.15949e-12</wgt>
  <wgt id="446">4.15373e-12</wgt>
  <wgt id="447">4.16344e-12</wgt>
  <wgt id="448">4.06995e-12</wgt>
  <wgt id="449">4.24267e-12</wgt>
  <wgt id="450">4.16022e-12</wgt>
  <wgt id="451">4.17343e-12</wgt>
  <wgt id="452">4.27283e-12</wgt>
  <wgt id="453">4.21902e-12</wgt>
  <wgt id="454">4.01792e-12</wgt>
  <wgt id="455">4.18326e-12</wgt>
  <wgt id="456">4.12888e-12</wgt>
  <wgt id="457">4.19723e-12</wgt>
  <wgt id="458">4.22516e-12</wgt>
  <wgt id="459">4.20629e-12</wgt>
  <wgt id="460">4.19955e-12</wgt>
  <wgt id="461">4.10575e-12</wgt>
  <wgt id="462">4.14547e-12</wgt>
  <wgt id="463">4.13686e-12</wgt>
  <wgt id="464">4.15601e-12</wgt>
  <wgt id="465">4.22276e-12</wgt>
  <wgt id="466">4.13491e-12</wgt>
  <wgt id="467">4.13965e-12</wgt>
  <wgt id="468">4.16833e-12</wgt>
  <wgt id="469">4.16769e-12</wgt>
  <wgt id="470">4.14495e-12</wgt>
  <wgt id="471">4.1442e-12</wgt>
  <wgt id="472">4.19871e-12</wgt>
  <wgt id="473">4.0459e-12</wgt>
  <wgt id="474">3.0282e-12</wgt>
  <wgt id="475">3.22944e-12</wgt>
  <wgt id="476">2.95678e-12</wgt>
  <wgt id="477">2.93132e-12</wgt>
  <wgt id="478">3.04139e-12</wgt>
  <wgt id="479">2.97364e-12</wgt>
  <wgt id="480">3.13347e-12</wgt>
  <wgt id="481">2.95561e-12</wgt>
  <wgt id="482">2.90622e-12</wgt>
  <wgt id="483">2.94691e-12</wgt>
  <wgt id="484">3.25462e-12</wgt>
  <wgt id="485">3.0389e-12</wgt>
  <wgt id="486">3.09636e-12</wgt>
  <wgt id="487">3.09333e-12</wgt>
  <wgt id="488">3.06798e-12</wgt>
  <wgt id="489">2.93728e-12</wgt>
  <wgt id="490">2.94023e-12</wgt>
  <wgt id="491">2.99114e-12</wgt>
  <wgt id="492">2.92976e-12</wgt>
  <wgt id="493">2.91884e-12</wgt>
  <wgt id="494">2.9385e-12</wgt>
  <wgt id="495">3.1008e-12</wgt>
  <wgt id="496">2.9268e-12</wgt>
  <wgt id="497">2.91228e-12</wgt>
  <wgt id="498">3.06494e-12</wgt>
  <wgt id="499">2.94696e-12</wgt>
  <wgt id="500">2.98258e-12</wgt>
  <wgt id="501">3.16737e-12</wgt>
  <wgt id="502">2.94279e-12</wgt>
  <wgt id="503">3.02297e-12</wgt>
  <wgt id="504">3.04405e-12</wgt>
  <wgt id="505">3.0333e-12</wgt>
  <wgt id="506">3.11091e-12</wgt>
  <wgt id="507">2.99406e-12</wgt>
  <wgt id="508">3.06379e-12</wgt>
  <wgt id="509">2.99164e-12</wgt>
  <wgt id="510">3.1083e-12</wgt>
  <wgt id="511">2.97178e-12</wgt>
  <wgt id="512">3.06543e-12</wgt>
  <wgt id="513">3.16255e-12</wgt>
  <wgt id="514">2.99729e-12</wgt>
  <wgt id="515">2.98342e-12</wgt>
  <wgt id="516">3.10173e-12</wgt>
  <wgt id="517">3.08977e-12</wgt>
  <wgt id="518">3.09682e-12</wgt>
  <wgt id="519">2.94355e-12</wgt>
  <wgt id="520">3.05014e-12</wgt>
  <wgt id="521">3.13732e-12</wgt>
  <wgt id="522">3.14121e-12</wgt>
  <wgt id="523">3.11218e-12</wgt>
  <wgt id="524">3.08669e-12</wgt>
  <wgt id="525">3.12179e-12</wgt>
  <wgt id="526">3.03177e-12</wgt>
  <wgt id="527">3.0782e-12</wgt>
  <wgt id="528">3.04009e-12</wgt>
  <wgt id="529">2.97471e-12</wgt>
  <wgt id="530">3.04866e-12</wgt>
  <wgt id="531">2.9988e-12</wgt>
  <wgt id="532">3.19219e-12</wgt>
  <wgt id="533">2.84021e-12</wgt>
  <wgt id="534">3.04433e-12</wgt>
  <wgt id="535">3.09847e-12</wgt>
  <wgt id="536">3.02028e-12</wgt>
  <wgt id="537">3.04205e-12</wgt>
  <wgt id="538">3.06646e-12</wgt>
  <wgt id="539">2.96946e-12</wgt>
  <wgt id="540">2.9682e-12</wgt>
  <wgt id="541">2.95571e-12</wgt>
  <wgt id="542">2.97054e-12</wgt>
  <wgt id="543">3.02503e-12</wgt>
  <wgt id="544">3.17932e-12</wgt>
  <wgt id="545">2.99283e-12</wgt>
  <wgt id="546">2.99936e-12</wgt>
  <wgt id="547">2.93267e-12</wgt>
  <wgt id="548">2.90408e-12</wgt>
  <wgt id="549">2.97524e-12</wgt>
  <wgt id="550">3.02769e-12</wgt>
  <wgt id="551">3.05574e-12</wgt>
  <wgt id="552">3.01191e-12</wgt>
  <wgt id="553">3.02369e-12</wgt>
  <wgt id="554">3.25301e-12</wgt>
  <wgt id="555">3.10396e-12</wgt>
  <wgt id="556">2.94023e-12</wgt>
  <wgt id="557">3.07253e-12</wgt>
  <wgt id="558">2.92535e-12</wgt>
  <wgt id="559">2.99238e-12</wgt>
  <wgt id="560">3.27162e-12</wgt>
  <wgt id="561">2.96212e-12</wgt>
  <wgt id="562">3.06916e-12</wgt>
  <wgt id="563">2.92832e-12</wgt>
  <wgt id="564">3.017e-12</wgt>
  <wgt id="565">2.90966e-12</wgt>
  <wgt id="566">3.07552e-12</wgt>
  <wgt id="567">2.98162e-12</wgt>
  <wgt id="568">3.01922e-12</wgt>
  <wgt id="569">3.08383e-12</wgt>
  <wgt id="570">2.94288e-12</wgt>
  <wgt id="571">3.35458e-12</wgt>
  <wgt id="572">2.95519e-12</wgt>
  <wgt id="573">2.8887e-12</wgt>
  <wgt id="574">2.91759e-12</wgt>
  <wgt id="575">3.33063e-12</wgt>
  <wgt id="576">3.28527e-12</wgt>
  <wgt id="577">3.42568e-12</wgt>
  <wgt id="578">3.41128e-12</wgt>
  <wgt id="579">3.37751e-12</wgt>
  <wgt id="580">3.38414e-12</wgt>
  <wgt id="581">3.53479e-12</wgt>
  <wgt id="582">3.27655e-12</wgt>
  <wgt id="583">3.36743e-12</wgt>
  <wgt id="584">3.33778e-12</wgt>
  <wgt id="585">3.37041e-12</wgt>
  <wgt id="586">3.2618e-12</wgt>
  <wgt id="587">3.37596e-12</wgt>
  <wgt id="588">3.30651e-12</wgt>
  <wgt id="589">3.38183e-12</wgt>
  <wgt id="590">3.39448e-12</wgt>
  <wgt id="591">3.45824e-12</wgt>
  <wgt id="592">3.27682e-12</wgt>
  <wgt id="593">3.31889e-12</wgt>
  <wgt id="594">3.44215e-12</wgt>
  <wgt id="595">3.31005e-12</wgt>
  <wgt id="596">3.3503e-12</wgt>
  <wgt id="597">3.21805e-12</wgt>
  <wgt id="598">3.26077e-12</wgt>
  <wgt id="599">3.52145e-12</wgt>
  <wgt id="600">3.29126e-12</wgt>
  <wgt id="601">3.2386e-12</wgt>
  <wgt id="602">3.26815e-12</wgt>
  <wgt id="603">3.27653e-12</wgt>
  <wgt id="604">3.37776e-12</wgt>
  <wgt id="605">3.46785e-12</wgt>
  <wgt id="606">3.24449e-12</wgt>
  <wgt id="607">3.28044e-12</wgt>
  <wgt id="608">3.34218e-12</wgt>
  <wgt id="609">3.14032e-12</wgt>
  <wgt id="610">3.20318e-12</wgt>
  <wgt id="611">3.37439e-12</wgt>
  <wgt id="612">3.55658e-12</wgt>
  <wgt id="613">3.33142e-12</wgt>
  <wgt id="614">3.37993e-12</wgt>
  <wgt id="615">3.25815e-12</wgt>
  <wgt id="616">3.53525e-12</wgt>
  <wgt id="617">3.45554e-12</wgt>
  <wgt id="618">3.34713e-12</wgt>
  <wgt id="619">3.29642e-12</wgt>
  <wgt id="620">3.47329e-12</wgt>
  <wgt id="621">3.38634e-12</wgt>
  <wgt id="622">3.37596e-12</wgt>
  <wgt id="623">3.42695e-12</wgt>
  <wgt id="624">3.31576e-12</wgt>
  <wgt id="625">3.29754e-12</wgt>
  <wgt id="626">3.25951e-12</wgt>
  <wgt id="627">3.20691e-12</wgt>
  <wgt id="628">3.53411e-12</wgt>
  <wgt id="629">3.24921e-12</wgt>
  <wgt id="630">3.20885e-12</wgt>
  <wgt id="631">3.34269e-12</wgt>
  <wgt id="632">3.22821e-12</wgt>
  <wgt id="633">3.29004e-12</wgt>
  <wgt id="634">3.33526e-12</wgt>
  <wgt id="635">3.28283e-12</wgt>
  <wgt id="636">3.34672e-12</wgt>
  <wgt id="637">3.31951e-12</wgt>
  <wgt id="638">3.20258e-12</wgt>
  <wgt id="639">3.28967e-12</wgt>
  <wgt id="640">3.33474e-12</wgt>
  <wgt id="641">3.34084e-12</wgt>
  <wgt id="642">3.19467e-12</wgt>
  <wgt id="643">3.31379e-12</wgt>
  <wgt id="644">3.22296e-12</wgt>
  <wgt id="645">3.36176e-12</wgt>
  <wgt id="646">3.39454e-12</wgt>
  <wgt id="647">3.2846e-12</wgt>
  <wgt id="648">3.34249e-12</wgt>
  <wgt id="649">3.3848e-12</wgt>
  <wgt id="650">3.27428e-12</wgt>
  <wgt id="651">3.33769e-12</wgt>
  <wgt id="652">3.31547e-12</wgt>
  <wgt id="653">3.23973e-12</wgt>
  <wgt id="654">3.319e-12</wgt>
  <wgt id="655">3.27448e-12</wgt>
  <wgt id="656">3.3509e-12</wgt>
  <wgt id="657">3.42974e-12</wgt>
  <wgt id="658">3.35375e-12</wgt>
  <wgt id="659">3.20333e-12</wgt>
  <wgt id="660">3.401e-12</wgt>
  <wgt id="661">3.27596e-12</wgt>
  <wgt id="662">3.33311e-12</wgt>
  <wgt id="663">3.32587e-12</wgt>
  <wgt id="664">3.27758e-12</wgt>
  <wgt id="665">3.31829e-12</wgt>
  <wgt id="666">3.30916e-12</wgt>
  <wgt id="667">3.43032e-12</wgt>
  <wgt id="668">3.32309e-12</wgt>
  <wgt id="669">3.41328e-12</wgt>
  <wgt id="670">3.38584e-12</wgt>
  <wgt id="671">3.29346e-12</wgt>
  <wgt id="672">3.19154e-12</wgt>
  <wgt id="673">3.32662e-12</wgt>
  <wgt id="674">3.26877e-12</wgt>
  <wgt id="675">3.28032e-12</wgt>
  <wgt id="676">4.18471e-12</wgt>
  <wgt id="677">4.23305e-12</wgt>
  <wgt id="678">4.37501e-12</wgt>
  <wgt id="679">3.92245e-12</wgt>
  <wgt id="680">4.06624e-12</wgt>
  <wgt id="681">4.29362e-12</wgt>
  <wgt id="682">4.29409e-12</wgt>
  <wgt id="683">4.14064e-12</wgt>
  <wgt id="684">4.37506e-12</wgt>
  <wgt id="685">3.94968e-12</wgt>
  <wgt id="686">4.14119e-12</wgt>
  <wgt id="687">4.393e-12</wgt>
  <wgt id="688">4.18662e-12</wgt>
  <wgt id="689">4.5359e-12</wgt>
  <wgt id="690">4.41156e-12</wgt>
  <wgt id="691">4.45476e-12</wgt>
  <wgt id="692">4.14579e-12</wgt>
  <wgt id="693">4.86942e-12</wgt>
  <wgt id="694">4.42332e-12</wgt>
  <wgt id="695">4.05635e-12</wgt>
  <wgt id="696">3.95473e-12</wgt>
  <wgt id="697">4.09161e-12</wgt>
  <wgt id="698">3.87841e-12</wgt>
  <wgt id="699">3.84313e-12</wgt>
  <wgt id="700">3.66663e-12</wgt>
  <wgt id="701">4.20098e-12</wgt>
  <wgt id="702">4.02303e-12</wgt>
  <wgt id="703">4.77731e-12</wgt>
  <wgt id="704">4.53781e-12</wgt>
  <wgt id="705">4.33933e-12</wgt>
  <wgt id="706">3.89132e-12</wgt>
  <wgt id="707">4.02282e-12</wgt>
  <wgt id="708">4.13522e-12</wgt>
  <wgt id="709">4.11517e-12</wgt>
  <wgt id="710">3.74495e-12</wgt>
  <wgt id="711">4.16325e-12</wgt>
  <wgt id="712">4.12798e-12</wgt>
  <wgt id="713">4.52604e-12</wgt>
  <wgt id="714">4.1462e-12</wgt>
  <wgt id="715">4.14895e-12</wgt>
  <wgt id="716">4.02206e-12</wgt>
  <wgt id="717">4.01586e-12</wgt>
  <wgt id="718">4.14831e-12</wgt>
  <wgt id="719">3.80745e-12</wgt>
  <wgt id="720">3.92975e-12</wgt>
  <wgt id="721">3.90053e-12</wgt>
  <wgt id="722">3.74458e-12</wgt>
  <wgt id="723">4.44637e-12</wgt>
  <wgt id="724">4.36948e-12</wgt>
  <wgt id="725">4.42265e-12</wgt>
  <wgt id="726">4.2317e-12</wgt>
  <wgt id="727">4.08268e-12</wgt>
  <wgt id="728">4.1121e-12</wgt>
  <wgt id="729">3.76052e-12</wgt>
  <wgt id="730">4.505e-12</wgt>
  <wgt id="731">4.13959e-12</wgt>
  <wgt id="732">4.57837e-12</wgt>
  <wgt id="733">4.2e-12</wgt>
  <wgt id="734">4.28593e-12</wgt>
  <wgt id="735">4.15508e-12</wgt>
  <wgt id="736">4.12065e-12</wgt>
  <wgt id="737">4.26163e-12</wgt>
  <wgt id="738">3.979e-12</wgt>
  <wgt id="739">4.21054e-12</wgt>
  <wgt id="740">4.63598e-12</wgt>
  <wgt id="741">3.71137e-12</wgt>
  <wgt id="742">4.11488e-12</wgt>
  <wgt id="743">4.018e-12</wgt>
  <wgt id="744">4.1008e-12</wgt>
  <wgt id="745">4.36583e-12</wgt>
  <wgt id="746">4.42991e-12</wgt>
  <wgt id="747">3.82185e-12</wgt>
  <wgt id="748">4.13249e-12</wgt>
  <wgt id="749">4.41621e-12</wgt>
  <wgt id="750">4.19461e-12</wgt>
  <wgt id="751">4.33276e-12</wgt>
  <wgt id="752">3.8427e-12</wgt>
  <wgt id="753">3.99743e-12</wgt>
  <wgt id="754">4.38051e-12</wgt>
  <wgt id="755">4.20737e-12</wgt>
  <wgt id="756">4.22165e-12</wgt>
  <wgt id="757">3.86646e-12</wgt>
  <wgt id="758">4.23523e-12</wgt>
  <wgt id="759">4.21095e-12</wgt>
  <wgt id="760">4.25133e-12</wgt>
  <wgt id="761">4.40195e-12</wgt>
  <wgt id="762">4.42544e-12</wgt>
  <wgt id="763">4.17334e-12</wgt>
  <wgt id="764">4.34582e-12</wgt>
  <wgt id="765">4.27213e-12</wgt>
  <wgt id="766">4.17444e-12</wgt>
  <wgt id="767">4.29514e-12</wgt>
  <wgt id="768">3.9604e-12</wgt>
  <wgt id="769">4.4367e-12</wgt>
  <wgt id="770">4.04876e-12</wgt>
  <wgt id="771">4.93607e-12</wgt>
  <wgt id="772">3.94041e-12</wgt>
  <wgt id="773">4.15729e-12</wgt>
  <wgt id="774">3.75648e-12</wgt>
  <wgt id="775">4.4198e-12</wgt>
  <wgt id="776">4.57137e-12</wgt>
  <wgt id="777">4.00476e-12</wgt>
  <wgt id="778">3.10099e-12</wgt>
  <wgt id="779">2.61194e-12</wgt>
  <wgt id="780">2.14995e-12</wgt>
  <wgt id="781">3.09876e-12</wgt>
  <wgt id="782">3.27733e-12</wgt>
  <wgt id="783">2.64876e-12</wgt>
  <wgt id="784">2.73068e-12</wgt>
  <wgt id="785">3.73991e-12</wgt>
  <wgt id="786">2.40618e-12</wgt>
  <wgt id="787">3.51447e-12</wgt>
  <wgt id="788">2.00008e-12</wgt>
  <wgt id="789">2.46361e-12</wgt>
  <wgt id="790">2.38176e-12</wgt>
  <wgt id="791">2.87205e-12</wgt>
  <wgt id="792">3.98756e-12</wgt>
  <wgt id="793">3.0109e-12</wgt>
  <wgt id="794">2.40113e-12</wgt>
  <wgt id="795">3.61199e-12</wgt>
  <wgt id="796">4.07479e-12</wgt>
  <wgt id="797">3.56869e-12</wgt>
  <wgt id="798">2.87923e-12</wgt>
  <wgt id="799">3.52409e-12</wgt>
  <wgt id="800">2.49685e-12</wgt>
  <wgt id="801">2.90449e-12</wgt>
  <wgt id="802">2.42155e-12</wgt>
  <wgt id="803">3.97052e-12</wgt>
  <wgt id="804">3.58321e-12</wgt>
  <wgt id="805">3.65856e-12</wgt>
  <wgt id="806">3.49662e-12</wgt>
  <wgt id="807">2.95438e-12</wgt>
  <wgt id="808">3.02575e-12</wgt>
  <wgt id="809">2.85404e-12</wgt>
  <wgt id="810">3.54662e-12</wgt>
  <wgt id="811">3.39332e-12</wgt>
  <wgt id="812">2.37638e-12</wgt>
  <wgt id="813">2.42398e-12</wgt>
  <wgt id="814">2.67359e-12</wgt>
  <wgt id="815">2.61934e-12</wgt>
  <wgt id="816">2.28416e-12</wgt>
  <wgt id="817">3.26866e-12</wgt>
  <wgt id="818">3.03853e-12</wgt>
  <wgt id="819">2.60948e-12</wgt>
  <wgt id="820">3.11354e-12</wgt>
  <wgt id="821">3.56942e-12</wgt>
  <wgt id="822">2.59659e-12</wgt>
  <wgt id="823">3.58317e-12</wgt>
  <wgt id="824">4.15845e-12</wgt>
  <wgt id="825">2.31594e-12</wgt>
  <wgt id="826">3.25882e-12</wgt>
  <wgt id="827">1.90919e-12</wgt>
  <wgt id="828">3.98399e-12</wgt>
  <wgt id="829">3.23102e-12</wgt>
  <wgt id="830">2.19673e-12</wgt>
  <wgt id="831">3.33338e-12</wgt>
  <wgt id="832">5.08287e-12</wgt>
  <wgt id="833">2.90894e-12</wgt>
  <wgt id="834">4.72823e-12</wgt>
  <wgt id="835">2.51762e-12</wgt>
  <wgt id="836">3.10968e-12</wgt>
  <wgt id="837">3.52408e-12</wgt>
  <wgt id="838">2.98012e-12</wgt>
  <wgt id="839">3.3121e-12</wgt>
  <wgt id="840">2.91192e-12</wgt>
  <wgt id="841">3.80212e-12</wgt>
  <wgt id="842">2.80417e-12</wgt>
  <wgt id="843">3.03296e-12</wgt>
  <wgt id="844">3.23576e-12</wgt>
  <wgt id="845">4.29236e-12</wgt>
  <wgt id="846">2.83359e-12</wgt>
  <wgt id="847">3.12574e-12</wgt>
  <wgt id="848">2.7076e-12</wgt>
  <wgt id="849">3.1788e-12</wgt>
  <wgt id="850">4.02726e-12</wgt>
  <wgt id="851">3.39539e-12</wgt>
  <wgt id="852">2.69889e-12</wgt>
  <wgt id="853">3.38849e-12</wgt>
  <wgt id="854">3.76377e-12</wgt>
  <wgt id="855">3.59935e-12</wgt>
  <wgt id="856">2.25879e-12</wgt>
  <wgt id="857">3.12425e-12</wgt>
  <wgt id="858">3.10562e-12</wgt>
  <wgt id="859">2.87464e-12</wgt>
  <wgt id="860">3.31272e-12</wgt>
  <wgt id="861">2.7347e-12</wgt>
  <wgt id="862">3.16806e-12</wgt>
  <wgt id="863">3.27501e-12</wgt>
  <wgt id="864">3.30717e-12</wgt>
  <wgt id="865">4.44428e-12</wgt>
  <wgt id="866">4.85509e-12</wgt>
  <wgt id="867">3.16873e-12</wgt>
  <wgt id="868">3.07863e-12</wgt>
  <wgt id="869">2.42783e-12</wgt>
  <wgt id="870">2.54802e-12</wgt>
  <wgt id="871">2.4731e-12</wgt>
  <wgt id="872">3.6841e-12</wgt>
  <wgt id="873">2.5402e-12</wgt>
  <wgt id="874">3.26129e-12</wgt>
  <wgt id="875">2.70309e-12</wgt>
  <wgt id="876">3.70175e-12</wgt>
  <wgt id="877">3.5668e-12</wgt>
  <wgt id="878">2.67871e-12</wgt>
  <wgt id="879">4.18471e-12</wgt>
  <wgt id="880">4.23305e-12</wgt>
  <wgt id="881">4.37501e-12</wgt>
  <wgt id="882">3.92245e-12</wgt>
  <wgt id="883">4.06624e-12</wgt>
  <wgt id="884">4.29362e-12</wgt>
  <wgt id="885">4.29409e-12</wgt>
  <wgt id="886">4.14064e-12</wgt>
  <wgt id="887">4.37506e-12</wgt>
  <wgt id="888">3.94968e-12</wgt>
  <wgt id="889">4.14119e-12</wgt>
  <wgt id="890">4.393e-12</wgt>
  <wgt id="891">4.18662e-12</wgt>
  <wgt id="892">4.5359e-12</wgt>
  <wgt id="893">4.41156e-12</wgt>
  <wgt id="894">4.45476e-12</wgt>
  <wgt id="895">4.14579e-12</wgt>
  <wgt id="896">4.86942e-12</wgt>
  <wgt id="897">4.42332e-12</wgt>
  <wgt id="898">4.05635e-12</wgt>
  <wgt id="899">3.95473e-12</wgt>
  <wgt id="900">4.09161e-12</wgt>
  <wgt id="901">3.87841e-12</wgt>
  <wgt id="902">3.84313e-12</wgt>
  <wgt id="903">3.66663e-12</wgt>
  <wgt id="904">4.20098e-12</wgt>
  <wgt id="905">4.02303e-12</wgt>
  <wgt id="906">4.77731e-12</wgt>
  <wgt id="907">4.53781e-12</wgt>
  <wgt id="908">4.33933e-12</wgt>
  <wgt id="909">3.89132e-12</wgt>
  <wgt id="910">4.02282e-12</wgt>
  <wgt id="911">4.13522e-12</wgt>
  <wgt id="912">4.11517e-12</wgt>
  <wgt id="913">3.74495e-12</wgt>
  <wgt id="914">4.16325e-12</wgt>
  <wgt id="915">4.12798e-12</wgt>
  <wgt id="916">4.52604e-12</wgt>
  <wgt id="917">4.1462e-12</wgt>
  <wgt id="918">4.14895e-12</wgt>
  <wgt id="919">4.02206e-12</wgt>
  <wgt id="920">4.01586e-12</wgt>
  <wgt id="921">4.14831e-12</wgt>
  <wgt id="922">3.80745e-12</wgt>
  <wgt id="923">3.92975e-12</wgt>
  <wgt id="924">3.90053e-12</wgt>
  <wgt id="925">3.74458e-12</wgt>
  <wgt id="926">4.44637e-12</wgt>
  <wgt id="927">4.36948e-12</wgt>
  <wgt id="928">4.42265e-12</wgt>
  <wgt id="929">4.2317e-12</wgt>
  <wgt id="930">4.08268e-12</wgt>
  <wgt id="931">4.1121e-12</wgt>
  <wgt id="932">3.76052e-12</wgt>
  <wgt id="933">4.505e-12</wgt>
  <wgt id="934">4.13959e-12</wgt>
  <wgt id="935">4.57837e-12</wgt>
  <wgt id="936">4.2e-12</wgt>
  <wgt id="937">4.28593e-12</wgt>
  <wgt id="938">4.15508e-12</wgt>
  <wgt id="939">4.12065e-12</wgt>
  <wgt id="940">4.26163e-12</wgt>
  <wgt id="941">3.979e-12</wgt>
  <wgt id="942">4.21054e-12</wgt>
  <wgt id="943">4.63598e-12</wgt>
  <wgt id="944">3.71137e-12</wgt>
  <wgt id="945">4.11488e-12</wgt>
  <wgt id="946">4.018e-12</wgt>
  <wgt id="947">4.1008e-12</wgt>
  <wgt id="948">4.36583e-12</wgt>
  <wgt id="949">4.42991e-12</wgt>
  <wgt id="950">3.82185e-12</wgt>
  <wgt id="951">4.13249e-12</wgt>
  <wgt id="952">4.41621e-12</wgt>
  <wgt id="953">4.19461e-12</wgt>
  <wgt id="954">4.33276e-12</wgt>
  <wgt id="955">3.8427e-12</wgt>
  <wgt id="956">3.99743e-12</wgt>
  <wgt id="957">4.38051e-12</wgt>
  <wgt id="958">4.20737e-12</wgt>
  <wgt id="959">4.22165e-12</wgt>
  <wgt id="960">3.86646e-12</wgt>
  <wgt id="961">4.23523e-12</wgt>
  <wgt id="962">4.21095e-12</wgt>
  <wgt id="963">4.25133e-12</wgt>
  <wgt id="964">4.40195e-12</wgt>
  <wgt id="965">4.42544e-12</wgt>
  <wgt id="966">4.17334e-12</wgt>
  <wgt id="967">4.34582e-12</wgt>
  <wgt id="968">4.27213e-12</wgt>
  <wgt id="969">4.17444e-12</wgt>
  <wgt id="970">4.29514e-12</wgt>
  <wgt id="971">3.9604e-12</wgt>
  <wgt id="972">4.4367e-12</wgt>
  <wgt id="973">4.04876e-12</wgt>
  <wgt id="974">4.93607e-12</wgt>
  <wgt id="975">3.94041e-12</wgt>
  <wgt id="976">4.15729e-12</wgt>
  <wgt id="977">3.75648e-12</wgt>
  <wgt id="978">4.4198e-12</wgt>
  <wgt id="979">4.57137e-12</wgt>
  <wgt id="980">4.18663e-12</wgt>
  <wgt id="981">4.20693e-12</wgt>
  <wgt id="982">4.06691e-12</wgt>
</rwgt>
</event>
<event>
 5   1  0.3028200E-11  0.2164437E+04  0.7818608E-02  0.7762398E-01
       21   -1    0    0  502  501  0.00000000000E+00  0.00000000000E+00  0.13614482738E+04  0.13614482738E+04  0.00000000000E+00 0.  1.
       21   -1    0    0  501  502 -0.00000000000E+00 -0.00000000000E+00 -0.86025825883E+03  0.86025825883E+03  0.00000000000E+00 0. -1.
       39    2    1    2    0    0  0.00000000000E+00  0.00000000000E+00  0.50119001500E+03  0.22217065327E+04  0.21644372216E+04 0.  0.
       25    1    3    3    0    0  0.87384213812E+03 -0.43707810244E+03  0.71071303244E+03  0.12146503054E+04  0.12500000000E+03 0.  0.
       25    1    3    3    0    0 -0.87384213812E+03  0.43707810244E+03 -0.20952301744E+03  0.10070562272E+04  0.12500000000E+03 0.  0.
<mgrwt>
<rscale>  0 0.21644372E+04</rscale>
<asrwt>0</asrwt>
<pdfrwt beam="1">  1       21 0.20945358E+00 0.21644372E+04</pdfrwt>
<pdfrwt beam="2">  1       21 0.13234742E+00 0.21644372E+04</pdfrwt>
<totfact> 0.19674428E+01</totfact>
</mgrwt>
<rwgt>
  <wgt id="1">3.0282e-12</wgt>
  <wgt id="2">2.6447e-12</wgt>
  <wgt id="3">3.50256e-12</wgt>
  <wgt id="4">3.0282e-12</wgt>
  <wgt id="5">2.6447e-12</wgt>
  <wgt id="6">3.50256e-12</wgt>
  <wgt id="7">3.0282e-12</wgt>
  <wgt id="8">2.6447e-12</wgt>
  <wgt id="9">3.50256e-12</wgt>
  <wgt id="10">3.11828e-12</wgt>
  <wgt id="11">3.11562e-12</wgt>
  <wgt id="12">3.11278e-12</wgt>
  <wgt id="13">3.10793e-12</wgt>
  <wgt id="14">3.12939e-12</wgt>
  <wgt id="15">3.12309e-12</wgt>
  <wgt id="16">3.11234e-12</wgt>
  <wgt id="17">3.1249e-12</wgt>
  <wgt id="18">3.11408e-12</wgt>
  <wgt id="19">3.1245e-12</wgt>
  <wgt id="20">3.10958e-12</wgt>
  <wgt id="21">3.10012e-12</wgt>
  <wgt id="22">3.10701e-12</wgt>
  <wgt id="23">3.09055e-12</wgt>
  <wgt id="24">3.10368e-12</wgt>
  <wgt id="25">3.11054e-12</wgt>
  <wgt id="26">3.13005e-12</wgt>
  <wgt id="27">3.11756e-12</wgt>
  <wgt id="28">3.10334e-12</wgt>
  <wgt id="29">3.12105e-12</wgt>
  <wgt id="30">3.10837e-12</wgt>
  <wgt id="31">3.12754e-12</wgt>
  <wgt id="32">3.11065e-12</wgt>
  <wgt id="33">3.12468e-12</wgt>
  <wgt id="34">3.10821e-12</wgt>
  <wgt id="35">3.1133e-12</wgt>
  <wgt id="36">3.12612e-12</wgt>
  <wgt id="37">3.11026e-12</wgt>
  <wgt id="38">3.1105e-12</wgt>
  <wgt id="39">3.15155e-12</wgt>
  <wgt id="40">3.12476e-12</wgt>
  <wgt id="41">3.11732e-12</wgt>
  <wgt id="42">3.12665e-12</wgt>
  <wgt id="43">3.11993e-12</wgt>
  <wgt id="44">3.10875e-12</wgt>
  <wgt id="45">3.12299e-12</wgt>
  <wgt id="46">3.12078e-12</wgt>
  <wgt id="47">3.10838e-12</wgt>
  <wgt id="48">3.11821e-12</wgt>
  <wgt id="49">3.12471e-12</wgt>
  <wgt id="50">3.13287e-12</wgt>
  <wgt id="51">3.12814e-12</wgt>
  <wgt id="52">3.11173e-12</wgt>
  <wgt id="53">3.10105e-12</wgt>
  <wgt id="54">3.1133e-12</wgt>
  <wgt id="55">3.11755e-12</wgt>
  <wgt id="56">3.12936e-12</wgt>
  <wgt id="57">3.12831e-12</wgt>
  <wgt id="58">3.09965e-12</wgt>
  <wgt id="59">3.10885e-12</wgt>
  <wgt id="60">3.12055e-12</wgt>
  <wgt id="61">3.11122e-12</wgt>
  <wgt id="62">3.11514e-12</wgt>
  <wgt id="63">3.11964e-12</wgt>
  <wgt id="64">3.12138e-12</wgt>
  <wgt id="65">3.12231e-12</wgt>
  <wgt id="66">3.11454e-12</wgt>
  <wgt id="67">3.11085e-12</wgt>
  <wgt id="68">3.1157e-12</wgt>
  <wgt id="69">3.11826e-12</wgt>
  <wgt id="70">3.11741e-12</wgt>
  <wgt id="71">3.11737e-12</wgt>
  <wgt id="72">3.114e-12</wgt>
  <wgt id="73">3.12011e-12</wgt>
  <wgt id="74">3.11929e-12</wgt>
  <wgt id="75">3.11587e-12</wgt>
  <wgt id="76">3.1248e-12</wgt>
  <wgt id="77">3.1178e-12</wgt>
  <wgt id="78">3.11903e-12</wgt>
  <wgt id="79">3.12399e-12</wgt>
  <wgt id="80">3.10735e-12</wgt>
  <wgt id="81">3.11498e-12</wgt>
  <wgt id="82">3.1183e-12</wgt>
  <wgt id="83">3.10788e-12</wgt>
  <wgt id="84">3.11357e-12</wgt>
  <wgt id="85">3.11258e-12</wgt>
  <wgt id="86">3.12572e-12</wgt>
  <wgt id="87">3.10409e-12</wgt>
  <wgt id="88">3.12124e-12</wgt>
  <wgt id="89">3.12094e-12</wgt>
  <wgt id="90">3.123e-12</wgt>
  <wgt id="91">3.12078e-12</wgt>
  <wgt id="92">3.1236e-12</wgt>
  <wgt id="93">3.11858e-12</wgt>
  <wgt id="94">3.11582e-12</wgt>
  <wgt id="95">3.12077e-12</wgt>
  <wgt id="96">3.11988e-12</wgt>
  <wgt id="97">3.1141e-12</wgt>
  <wgt id="98">3.1195e-12</wgt>
  <wgt id="99">3.11569e-12</wgt>
  <wgt id="100">3.12056e-12</wgt>
  <wgt id="101">3.11796e-12</wgt>
  <wgt id="102">3.11569e-12</wgt>
  <wgt id="103">3.12189e-12</wgt>
  <wgt id="104">3.11705e-12</wgt>
  <wgt id="105">3.12156e-12</wgt>
  <wgt id="106">3.11438e-12</wgt>
  <wgt id="107">3.12583e-12</wgt>
  <wgt id="108">3.1156e-12</wgt>
  <wgt id="109">3.11828e-12</wgt>
  <wgt id="110">3.11843e-12</wgt>
  <wgt id="111">3.15178e-12</wgt>
  <wgt id="112">3.11656e-12</wgt>
  <wgt id="113">4.12491e-12</wgt>
  <wgt id="114">4.26582e-12</wgt>
  <wgt id="115">4.20531e-12</wgt>
  <wgt id="116">5.72997e-12</wgt>
  <wgt id="117">3.4271e-12</wgt>
  <wgt id="118">3.43817e-12</wgt>
  <wgt id="119">3.42085e-12</wgt>
  <wgt id="120">3.42756e-12</wgt>
  <wgt id="121">3.42698e-12</wgt>
  <wgt id="122">3.42097e-12</wgt>
  <wgt id="123">3.43558e-12</wgt>
  <wgt id="124">3.42207e-12</wgt>
  <wgt id="125">3.43034e-12</wgt>
  <wgt id="126">3.43275e-12</wgt>
  <wgt id="127">3.42339e-12</wgt>
  <wgt id="128">3.43784e-12</wgt>
  <wgt id="129">3.41657e-12</wgt>
  <wgt id="130">3.4466e-12</wgt>
  <wgt id="131">3.40721e-12</wgt>
  <wgt id="132">3.3408e-12</wgt>
  <wgt id="133">3.52896e-12</wgt>
  <wgt id="134">3.39197e-12</wgt>
  <wgt id="135">3.45459e-12</wgt>
  <wgt id="136">3.46876e-12</wgt>
  <wgt id="137">3.37673e-12</wgt>
  <wgt id="138">3.55331e-12</wgt>
  <wgt id="139">3.30486e-12</wgt>
  <wgt id="140">3.40403e-12</wgt>
  <wgt id="141">3.44516e-12</wgt>
  <wgt id="142">3.42756e-12</wgt>
  <wgt id="143">3.43164e-12</wgt>
  <wgt id="144">3.34163e-12</wgt>
  <wgt id="145">3.50569e-12</wgt>
  <wgt id="146">3.4541e-12</wgt>
  <wgt id="147">3.40592e-12</wgt>
  <wgt id="148">3.43708e-12</wgt>
  <wgt id="149">3.42639e-12</wgt>
  <wgt id="150">3.45588e-12</wgt>
  <wgt id="151">3.4137e-12</wgt>
  <wgt id="152">3.42852e-12</wgt>
  <wgt id="153">3.42671e-12</wgt>
  <wgt id="154">3.45635e-12</wgt>
  <wgt id="155">3.39259e-12</wgt>
  <wgt id="156">3.48544e-12</wgt>
  <wgt id="157">3.36275e-12</wgt>
  <wgt id="158">4.12445e-12</wgt>
  <wgt id="159">4.14157e-12</wgt>
  <wgt id="160">4.11051e-12</wgt>
  <wgt id="161">4.11475e-12</wgt>
  <wgt id="162">4.13513e-12</wgt>
  <wgt id="163">4.12027e-12</wgt>
  <wgt id="164">4.13056e-12</wgt>
  <wgt id="165">4.12607e-12</wgt>
  <wgt id="166">4.12313e-12</wgt>
  <wgt id="167">4.12136e-12</wgt>
  <wgt id="168">4.12864e-12</wgt>
  <wgt id="169">4.10665e-12</wgt>
  <wgt id="170">4.13546e-12</wgt>
  <wgt id="171">4.12021e-12</wgt>
  <wgt id="172">4.13023e-12</wgt>
  <wgt id="173">4.12464e-12</wgt>
  <wgt id="174">4.12422e-12</wgt>
  <wgt id="175">4.01341e-12</wgt>
  <wgt id="176">4.26868e-12</wgt>
  <wgt id="177">4.14488e-12</wgt>
  <wgt id="178">4.10541e-12</wgt>
  <wgt id="179">4.28726e-12</wgt>
  <wgt id="180">3.8662e-12</wgt>
  <wgt id="181">4.01052e-12</wgt>
  <wgt id="182">4.19939e-12</wgt>
  <wgt id="183">4.05468e-12</wgt>
  <wgt id="184">4.15887e-12</wgt>
  <wgt id="185">4.09222e-12</wgt>
  <wgt id="186">4.16238e-12</wgt>
  <wgt id="187">4.08839e-12</wgt>
  <wgt id="188">4.18912e-12</wgt>
  <wgt id="189">4.0995e-12</wgt>
  <wgt id="190">4.1346e-12</wgt>
  <wgt id="191">4.13499e-12</wgt>
  <wgt id="192">4.11806e-12</wgt>
  <wgt id="193">4.17936e-12</wgt>
  <wgt id="194">4.09719e-12</wgt>
  <wgt id="195">4.0382e-12</wgt>
  <wgt id="196">4.28558e-12</wgt>
  <wgt id="197">4.14389e-12</wgt>
  <wgt id="198">4.1197e-12</wgt>
  <wgt id="199">4.12445e-12</wgt>
  <wgt id="200">4.1582e-12</wgt>
  <wgt id="201">4.14579e-12</wgt>
  <wgt id="202">4.13369e-12</wgt>
  <wgt id="203">4.11544e-12</wgt>
  <wgt id="204">4.10683e-12</wgt>
  <wgt id="205">4.09969e-12</wgt>
  <wgt id="206">4.01847e-12</wgt>
  <wgt id="207">4.0417e-12</wgt>
  <wgt id="208">3.99551e-12</wgt>
  <wgt id="209">4.02944e-12</wgt>
  <wgt id="210">4.01052e-12</wgt>
  <wgt id="211">4.01736e-12</wgt>
  <wgt id="212">4.01939e-12</wgt>
  <wgt id="213">4.01814e-12</wgt>
  <wgt id="214">4.01898e-12</wgt>
  <wgt id="215">4.02103e-12</wgt>
  <wgt id="216">4.0166e-12</wgt>
  <wgt id="217">4.02922e-12</wgt>
  <wgt id="218">4.01003e-12</wgt>
  <wgt id="219">4.01336e-12</wgt>
  <wgt id="220">4.02162e-12</wgt>
  <wgt id="221">4.01667e-12</wgt>
  <wgt id="222">4.02252e-12</wgt>
  <wgt id="223">3.81522e-12</wgt>
  <wgt id="224">4.20297e-12</wgt>
  <wgt id="225">3.97319e-12</wgt>
  <wgt id="226">4.07521e-12</wgt>
  <wgt id="227">3.98222e-12</wgt>
  <wgt id="228">4.03443e-12</wgt>
  <wgt id="229">3.96502e-12</wgt>
  <wgt id="230">4.04506e-12</wgt>
  <wgt id="231">4.12795e-12</wgt>
  <wgt id="232">3.92814e-12</wgt>
  <wgt id="233">3.99874e-12</wgt>
  <wgt id="234">4.04878e-12</wgt>
  <wgt id="235">3.94923e-12</wgt>
  <wgt id="236">4.08622e-12</wgt>
  <wgt id="237">3.96956e-12</wgt>
  <wgt id="238">4.03534e-12</wgt>
  <wgt id="239">3.99686e-12</wgt>
  <wgt id="240">4.05785e-12</wgt>
  <wgt id="241">3.98007e-12</wgt>
  <wgt id="242">4.06452e-12</wgt>
  <wgt id="243">4.05801e-12</wgt>
  <wgt id="244">4.04351e-12</wgt>
  <wgt id="245">4.01517e-12</wgt>
  <wgt id="246">4.04913e-12</wgt>
  <wgt id="247">4.01847e-12</wgt>
  <wgt id="248">4.05192e-12</wgt>
  <wgt id="249">4.03905e-12</wgt>
  <wgt id="250">4.02715e-12</wgt>
  <wgt id="251">4.00916e-12</wgt>
  <wgt id="252">4.00081e-12</wgt>
  <wgt id="253">3.99461e-12</wgt>
  <wgt id="254">3.9329e-12</wgt>
  <wgt id="255">3.9365e-12</wgt>
  <wgt id="256">3.92883e-12</wgt>
  <wgt id="257">3.93591e-12</wgt>
  <wgt id="258">3.93058e-12</wgt>
  <wgt id="259">3.95886e-12</wgt>
  <wgt id="260">3.90768e-12</wgt>
  <wgt id="261">3.93712e-12</wgt>
  <wgt id="262">3.92777e-12</wgt>
  <wgt id="263">3.93135e-12</wgt>
  <wgt id="264">3.93448e-12</wgt>
  <wgt id="265">3.92877e-12</wgt>
  <wgt id="266">3.94107e-12</wgt>
  <wgt id="267">3.93403e-12</wgt>
  <wgt id="268">3.93122e-12</wgt>
  <wgt id="269">3.94433e-12</wgt>
  <wgt id="270">3.92503e-12</wgt>
  <wgt id="271">3.92617e-12</wgt>
  <wgt id="272">3.94026e-12</wgt>
  <wgt id="273">3.92128e-12</wgt>
  <wgt id="274">3.94165e-12</wgt>
  <wgt id="275">3.9179e-12</wgt>
  <wgt id="276">3.94836e-12</wgt>
  <wgt id="277">3.91137e-12</wgt>
  <wgt id="278">3.95269e-12</wgt>
  <wgt id="279">3.86167e-12</wgt>
  <wgt id="280">4.022e-12</wgt>
  <wgt id="281">3.91682e-12</wgt>
  <wgt id="282">3.93321e-12</wgt>
  <wgt id="283">3.82735e-12</wgt>
  <wgt id="284">4.06234e-12</wgt>
  <wgt id="285">3.75671e-12</wgt>
  <wgt id="286">4.07777e-12</wgt>
  <wgt id="287">3.94451e-12</wgt>
  <wgt id="288">3.91793e-12</wgt>
  <wgt id="289">3.95864e-12</wgt>
  <wgt id="290">3.87218e-12</wgt>
  <wgt id="291">3.92336e-12</wgt>
  <wgt id="292">3.93509e-12</wgt>
  <wgt id="293">3.90461e-12</wgt>
  <wgt id="294">3.96088e-12</wgt>
  <wgt id="295">3.86272e-12</wgt>
  <wgt id="296">4.01821e-12</wgt>
  <wgt id="297">3.93443e-12</wgt>
  <wgt id="298">3.94515e-12</wgt>
  <wgt id="299">3.92116e-12</wgt>
  <wgt id="300">3.96374e-12</wgt>
  <wgt id="301">3.88951e-12</wgt>
  <wgt id="302">4.05044e-12</wgt>
  <wgt id="303">3.90767e-12</wgt>
  <wgt id="304">3.94741e-12</wgt>
  <wgt id="305">3.95097e-12</wgt>
  <wgt id="306">3.95504e-12</wgt>
  <wgt id="307">3.94658e-12</wgt>
  <wgt id="308">3.95442e-12</wgt>
  <wgt id="309">3.94877e-12</wgt>
  <wgt id="310">3.97817e-12</wgt>
  <wgt id="311">3.92577e-12</wgt>
  <wgt id="312">3.95414e-12</wgt>
  <wgt id="313">3.94792e-12</wgt>
  <wgt id="314">3.94954e-12</wgt>
  <wgt id="315">3.95237e-12</wgt>
  <wgt id="316">3.94706e-12</wgt>
  <wgt id="317">3.95943e-12</wgt>
  <wgt id="318">3.95363e-12</wgt>
  <wgt id="319">3.94653e-12</wgt>
  <wgt id="320">3.96294e-12</wgt>
  <wgt id="321">3.94435e-12</wgt>
  <wgt id="322">3.94226e-12</wgt>
  <wgt id="323">3.9612e-12</wgt>
  <wgt id="324">3.94141e-12</wgt>
  <wgt id="325">3.95937e-12</wgt>
  <wgt id="326">3.93892e-12</wgt>
  <wgt id="327">3.96649e-12</wgt>
  <wgt id="328">3.93124e-12</wgt>
  <wgt id="329">3.96234e-12</wgt>
  <wgt id="330">4.06175e-12</wgt>
  <wgt id="331">3.84503e-12</wgt>
  <wgt id="332">3.93772e-12</wgt>
  <wgt id="333">3.95085e-12</wgt>
  <wgt id="334">3.86786e-12</wgt>
  <wgt id="335">4.054e-12</wgt>
  <wgt id="336">3.82259e-12</wgt>
  <wgt id="337">4.10625e-12</wgt>
  <wgt id="338">3.99214e-12</wgt>
  <wgt id="339">3.9127e-12</wgt>
  <wgt id="340">3.97547e-12</wgt>
  <wgt id="341">3.88719e-12</wgt>
  <wgt id="342">3.94457e-12</wgt>
  <wgt id="343">3.9474e-12</wgt>
  <wgt id="344">3.92512e-12</wgt>
  <wgt id="345">3.98093e-12</wgt>
  <wgt id="346">3.87795e-12</wgt>
  <wgt id="347">4.03487e-12</wgt>
  <wgt id="348">3.95454e-12</wgt>
  <wgt id="349">3.96063e-12</wgt>
  <wgt id="350">3.9361e-12</wgt>
  <wgt id="351">3.98861e-12</wgt>
  <wgt id="352">3.90271e-12</wgt>
  <wgt id="353">4.07525e-12</wgt>
  <wgt id="354">3.9125e-12</wgt>
  <wgt id="355">3.97497e-12</wgt>
  <wgt id="356">3.9329e-12</wgt>
  <wgt id="357">3.96884e-12</wgt>
  <wgt id="358">3.95097e-12</wgt>
  <wgt id="359">3.94827e-12</wgt>
  <wgt id="360">3.95286e-12</wgt>
  <wgt id="361">3.94372e-12</wgt>
  <wgt id="362">4.00747e-12</wgt>
  <wgt id="363">3.9985e-12</wgt>
  <wgt id="364">3.98623e-12</wgt>
  <wgt id="365">3.97373e-12</wgt>
  <wgt id="366">3.95945e-12</wgt>
  <wgt id="367">3.92994e-12</wgt>
  <wgt id="368">3.91368e-12</wgt>
  <wgt id="369">3.89629e-12</wgt>
  <wgt id="370">3.94372e-12</wgt>
  <wgt id="371">3.96116e-12</wgt>
  <wgt id="372">3.95152e-12</wgt>
  <wgt id="373">3.93729e-12</wgt>
  <wgt id="374">3.9354e-12</wgt>
  <wgt id="375">4.17816e-12</wgt>
  <wgt id="376">4.17864e-12</wgt>
  <wgt id="377">4.17751e-12</wgt>
  <wgt id="378">4.1931e-12</wgt>
  <wgt id="379">4.16319e-12</wgt>
  <wgt id="380">4.18944e-12</wgt>
  <wgt id="381">4.17365e-12</wgt>
  <wgt id="382">4.19825e-12</wgt>
  <wgt id="383">4.15825e-12</wgt>
  <wgt id="384">4.1808e-12</wgt>
  <wgt id="385">4.17561e-12</wgt>
  <wgt id="386">4.19351e-12</wgt>
  <wgt id="387">4.17145e-12</wgt>
  <wgt id="388">4.17436e-12</wgt>
  <wgt id="389">4.18259e-12</wgt>
  <wgt id="390">4.18879e-12</wgt>
  <wgt id="391">4.16693e-12</wgt>
  <wgt id="392">4.14957e-12</wgt>
  <wgt id="393">4.19442e-12</wgt>
  <wgt id="394">4.18398e-12</wgt>
  <wgt id="395">4.17022e-12</wgt>
  <wgt id="396">4.1796e-12</wgt>
  <wgt id="397">4.17716e-12</wgt>
  <wgt id="398">4.16218e-12</wgt>
  <wgt id="399">4.19358e-12</wgt>
  <wgt id="400">4.17183e-12</wgt>
  <wgt id="401">4.19217e-12</wgt>
  <wgt id="402">4.1468e-12</wgt>
  <wgt id="403">4.19116e-12</wgt>
  <wgt id="404">4.26751e-12</wgt>
  <wgt id="405">3.96202e-12</wgt>
  <wgt id="406">4.11368e-12</wgt>
  <wgt id="407">4.31731e-12</wgt>
  <wgt id="408">4.21115e-12</wgt>
  <wgt id="409">4.11467e-12</wgt>
  <wgt id="410">4.07199e-12</wgt>
  <wgt id="411">4.22687e-12</wgt>
  <wgt id="412">4.17129e-12</wgt>
  <wgt id="413">4.18768e-12</wgt>
  <wgt id="414">4.1357e-12</wgt>
  <wgt id="415">4.21113e-12</wgt>
  <wgt id="416">4.27773e-12</wgt>
  <wgt id="417">4.04022e-12</wgt>
  <wgt id="418">4.18339e-12</wgt>
  <wgt id="419">4.15003e-12</wgt>
  <wgt id="420">4.22741e-12</wgt>
  <wgt id="421">4.15225e-12</wgt>
  <wgt id="422">4.17607e-12</wgt>
  <wgt id="423">4.18009e-12</wgt>
  <wgt id="424">4.24994e-12</wgt>
  <wgt id="425">4.13404e-12</wgt>
  <wgt id="426">4.17816e-12</wgt>
  <wgt id="427">4.14731e-12</wgt>
  <wgt id="428">4.27132e-12</wgt>
  <wgt id="429">4.21069e-12</wgt>
  <wgt id="430">4.32077e-12</wgt>
  <wgt id="431">4.29887e-12</wgt>
  <wgt id="432">4.27807e-12</wgt>
  <wgt id="433">4.25782e-12</wgt>
  <wgt id="434">4.2335e-12</wgt>
  <wgt id="435">4.1821e-12</wgt>
  <wgt id="436">4.15552e-12</wgt>
  <wgt id="437">4.1303e-12</wgt>
  <wgt id="438">4.21069e-12</wgt>
  <wgt id="439">4.22451e-12</wgt>
  <wgt id="440">4.21645e-12</wgt>
  <wgt id="441">4.20634e-12</wgt>
  <wgt id="442">4.20264e-12</wgt>
  <wgt id="443">4.10964e-12</wgt>
  <wgt id="444">4.1295e-12</wgt>
  <wgt id="445">4.09874e-12</wgt>
  <wgt id="446">4.08439e-12</wgt>
  <wgt id="447">4.09789e-12</wgt>
  <wgt id="448">4.00967e-12</wgt>
  <wgt id="449">4.16849e-12</wgt>
  <wgt id="450">4.09801e-12</wgt>
  <wgt id="451">4.10367e-12</wgt>
  <wgt id="452">4.19273e-12</wgt>
  <wgt id="453">4.14179e-12</wgt>
  <wgt id="454">3.95295e-12</wgt>
  <wgt id="455">4.11627e-12</wgt>
  <wgt id="456">4.0634e-12</wgt>
  <wgt id="457">4.1236e-12</wgt>
  <wgt id="458">4.15478e-12</wgt>
  <wgt id="459">4.13586e-12</wgt>
  <wgt id="460">4.13517e-12</wgt>
  <wgt id="461">4.0428e-12</wgt>
  <wgt id="462">4.08208e-12</wgt>
  <wgt id="463">4.06858e-12</wgt>
  <wgt id="464">4.09071e-12</wgt>
  <wgt id="465">4.14673e-12</wgt>
  <wgt id="466">4.06692e-12</wgt>
  <wgt id="467">4.07544e-12</wgt>
  <wgt id="468">4.10008e-12</wgt>
  <wgt id="469">4.10111e-12</wgt>
  <wgt id="470">4.0749e-12</wgt>
  <wgt id="471">4.0781e-12</wgt>
  <wgt id="472">4.12584e-12</wgt>
  <wgt id="473">3.99746e-12</wgt>
  <wgt id="474">3.0282e-12</wgt>
  <wgt id="475">3.19217e-12</wgt>
  <wgt id="476">2.97217e-12</wgt>
  <wgt id="477">2.95382e-12</wgt>
  <wgt id="478">3.04875e-12</wgt>
  <wgt id="479">2.988e-12</wgt>
  <wgt id="480">3.12659e-12</wgt>
  <wgt id="481">2.96735e-12</wgt>
  <wgt id="482">2.92678e-12</wgt>
  <wgt id="483">2.95295e-12</wgt>
  <wgt id="484">3.20764e-12</wgt>
  <wgt id="485">3.02037e-12</wgt>
  <wgt id="486">3.0992e-12</wgt>
  <wgt id="487">3.06047e-12</wgt>
  <wgt id="488">3.07185e-12</wgt>
  <wgt id="489">2.90645e-12</wgt>
  <wgt id="490">2.93838e-12</wgt>
  <wgt id="491">3.00377e-12</wgt>
  <wgt id="492">2.9469e-12</wgt>
  <wgt id="493">2.92329e-12</wgt>
  <wgt id="494">2.93938e-12</wgt>
  <wgt id="495">3.06258e-12</wgt>
  <wgt id="496">2.9293e-12</wgt>
  <wgt id="497">2.92009e-12</wgt>
  <wgt id="498">3.07588e-12</wgt>
  <wgt id="499">2.96318e-12</wgt>
  <wgt id="500">2.97215e-12</wgt>
  <wgt id="501">3.15177e-12</wgt>
  <wgt id="502">2.9617e-12</wgt>
  <wgt id="503">3.02475e-12</wgt>
  <wgt id="504">3.04444e-12</wgt>
  <wgt id="505">3.00407e-12</wgt>
  <wgt id="506">3.0606e-12</wgt>
  <wgt id="507">3.00546e-12</wgt>
  <wgt id="508">3.09082e-12</wgt>
  <wgt id="509">2.95152e-12</wgt>
  <wgt id="510">3.09605e-12</wgt>
  <wgt id="511">2.95577e-12</wgt>
  <wgt id="512">3.07525e-12</wgt>
  <wgt id="513">3.12811e-12</wgt>
  <wgt id="514">3.01894e-12</wgt>
  <wgt id="515">2.99879e-12</wgt>
  <wgt id="516">3.12636e-12</wgt>
  <wgt id="517">3.0974e-12</wgt>
  <wgt id="518">3.10941e-12</wgt>
  <wgt id="519">2.95845e-12</wgt>
  <wgt id="520">3.05524e-12</wgt>
  <wgt id="521">3.13022e-12</wgt>
  <wgt id="522">3.14682e-12</wgt>
  <wgt id="523">3.06396e-12</wgt>
  <wgt id="524">3.06134e-12</wgt>
  <wgt id="525">3.10433e-12</wgt>
  <wgt id="526">3.03474e-12</wgt>
  <wgt id="527">3.07636e-12</wgt>
  <wgt id="528">3.03099e-12</wgt>
  <wgt id="529">2.9951e-12</wgt>
  <wgt id="530">3.06005e-12</wgt>
  <wgt id="531">2.98672e-12</wgt>
  <wgt id="532">3.19156e-12</wgt>
  <wgt id="533">2.86348e-12</wgt>
  <wgt id="534">3.02777e-12</wgt>
  <wgt id="535">3.06313e-12</wgt>
  <wgt id="536">3.01907e-12</wgt>
  <wgt id="537">3.03614e-12</wgt>
  <wgt id="538">3.07666e-12</wgt>
  <wgt id="539">2.96593e-12</wgt>
  <wgt id="540">2.99905e-12</wgt>
  <wgt id="541">2.96418e-12</wgt>
  <wgt id="542">2.9723e-12</wgt>
  <wgt id="543">3.02383e-12</wgt>
  <wgt id="544">3.17079e-12</wgt>
  <wgt id="545">2.98347e-12</wgt>
  <wgt id="546">2.98121e-12</wgt>
  <wgt id="547">2.94716e-12</wgt>
  <wgt id="548">2.90674e-12</wgt>
  <wgt id="549">2.98362e-12</wgt>
  <wgt id="550">3.01312e-12</wgt>
  <wgt id="551">3.0685e-12</wgt>
  <wgt id="552">2.98119e-12</wgt>
  <wgt id="553">3.01591e-12</wgt>
  <wgt id="554">3.24856e-12</wgt>
  <wgt id="555">3.11364e-12</wgt>
  <wgt id="556">2.93838e-12</wgt>
  <wgt id="557">3.0832e-12</wgt>
  <wgt id="558">2.9399e-12</wgt>
  <wgt id="559">2.98231e-12</wgt>
  <wgt id="560">3.28037e-12</wgt>
  <wgt id="561">2.96825e-12</wgt>
  <wgt id="562">3.0816e-12</wgt>
  <wgt id="563">2.97223e-12</wgt>
  <wgt id="564">3.05034e-12</wgt>
  <wgt id="565">2.94187e-12</wgt>
  <wgt id="566">3.0631e-12</wgt>
  <wgt id="567">2.98947e-12</wgt>
  <wgt id="568">3.0288e-12</wgt>
  <wgt id="569">3.06101e-12</wgt>
  <wgt id="570">2.94512e-12</wgt>
  <wgt id="571">3.34504e-12</wgt>
  <wgt id="572">2.9707e-12</wgt>
  <wgt id="573">2.90493e-12</wgt>
  <wgt id="574">2.92969e-12</wgt>
  <wgt id="575">3.31731e-12</wgt>
  <wgt id="576">3.29088e-12</wgt>
  <wgt id="577">3.43071e-12</wgt>
  <wgt id="578">3.391e-12</wgt>
  <wgt id="579">3.36394e-12</wgt>
  <wgt id="580">3.38414e-12</wgt>
  <wgt id="581">3.52776e-12</wgt>
  <wgt id="582">3.28532e-12</wgt>
  <wgt id="583">3.34595e-12</wgt>
  <wgt id="584">3.31545e-12</wgt>
  <wgt id="585">3.31555e-12</wgt>
  <wgt id="586">3.23442e-12</wgt>
  <wgt id="587">3.35737e-12</wgt>
  <wgt id="588">3.30386e-12</wgt>
  <wgt id="589">3.37256e-12</wgt>
  <wgt id="590">3.35467e-12</wgt>
  <wgt id="591">3.44726e-12</wgt>
  <wgt id="592">3.2296e-12</wgt>
  <wgt id="593">3.29785e-12</wgt>
  <wgt id="594">3.44012e-12</wgt>
  <wgt id="595">3.30612e-12</wgt>
  <wgt id="596">3.37711e-12</wgt>
  <wgt id="597">3.21512e-12</wgt>
  <wgt id="598">3.25674e-12</wgt>
  <wgt id="599">3.45333e-12</wgt>
  <wgt id="600">3.29782e-12</wgt>
  <wgt id="601">3.2238e-12</wgt>
  <wgt id="602">3.24552e-12</wgt>
  <wgt id="603">3.26428e-12</wgt>
  <wgt id="604">3.36243e-12</wgt>
  <wgt id="605">3.44802e-12</wgt>
  <wgt id="606">3.25768e-12</wgt>
  <wgt id="607">3.28504e-12</wgt>
  <wgt id="608">3.32516e-12</wgt>
  <wgt id="609">3.1415e-12</wgt>
  <wgt id="610">3.19508e-12</wgt>
  <wgt id="611">3.35514e-12</wgt>
  <wgt id="612">3.56496e-12</wgt>
  <wgt id="613">3.31555e-12</wgt>
  <wgt id="614">3.34804e-12</wgt>
  <wgt id="615">3.26123e-12</wgt>
  <wgt id="616">3.51343e-12</wgt>
  <wgt id="617">3.40945e-12</wgt>
  <wgt id="618">3.39293e-12</wgt>
  <wgt id="619">3.29706e-12</wgt>
  <wgt id="620">3.42184e-12</wgt>
  <wgt id="621">3.35145e-12</wgt>
  <wgt id="622">3.35737e-12</wgt>
  <wgt id="623">3.40032e-12</wgt>
  <wgt id="624">3.29983e-12</wgt>
  <wgt id="625">3.27319e-12</wgt>
  <wgt id="626">3.23231e-12</wgt>
  <wgt id="627">3.19477e-12</wgt>
  <wgt id="628">3.44655e-12</wgt>
  <wgt id="629">3.25882e-12</wgt>
  <wgt id="630">3.22341e-12</wgt>
  <wgt id="631">3.3232e-12</wgt>
  <wgt id="632">3.20865e-12</wgt>
  <wgt id="633">3.28363e-12</wgt>
  <wgt id="634">3.31742e-12</wgt>
  <wgt id="635">3.26123e-12</wgt>
  <wgt id="636">3.34498e-12</wgt>
  <wgt id="637">3.33e-12</wgt>
  <wgt id="638">3.20884e-12</wgt>
  <wgt id="639">3.28078e-12</wgt>
  <wgt id="640">3.3245e-12</wgt>
  <wgt id="641">3.34011e-12</wgt>
  <wgt id="642">3.22147e-12</wgt>
  <wgt id="643">3.30476e-12</wgt>
  <wgt id="644">3.17682e-12</wgt>
  <wgt id="645">3.33567e-12</wgt>
  <wgt id="646">3.35816e-12</wgt>
  <wgt id="647">3.26868e-12</wgt>
  <wgt id="648">3.34244e-12</wgt>
  <wgt id="649">3.35931e-12</wgt>
  <wgt id="650">3.25131e-12</wgt>
  <wgt id="651">3.36767e-12</wgt>
  <wgt id="652">3.30409e-12</wgt>
  <wgt id="653">3.22962e-12</wgt>
  <wgt id="654">3.28925e-12</wgt>
  <wgt id="655">3.25552e-12</wgt>
  <wgt id="656">3.307e-12</wgt>
  <wgt id="657">3.42699e-12</wgt>
  <wgt id="658">3.35196e-12</wgt>
  <wgt id="659">3.19232e-12</wgt>
  <wgt id="660">3.37215e-12</wgt>
  <wgt id="661">3.27269e-12</wgt>
  <wgt id="662">3.30277e-12</wgt>
  <wgt id="663">3.31493e-12</wgt>
  <wgt id="664">3.27316e-12</wgt>
  <wgt id="665">3.31018e-12</wgt>
  <wgt id="666">3.30402e-12</wgt>
  <wgt id="667">3.42683e-12</wgt>
  <wgt id="668">3.30591e-12</wgt>
  <wgt id="669">3.3972e-12</wgt>
  <wgt id="670">3.37024e-12</wgt>
  <wgt id="671">3.27511e-12</wgt>
  <wgt id="672">3.18224e-12</wgt>
  <wgt id="673">3.32162e-12</wgt>
  <wgt id="674">3.24772e-12</wgt>
  <wgt id="675">3.2574e-12</wgt>
  <wgt id="676">4.13723e-12</wgt>
  <wgt id="677">4.19341e-12</wgt>
  <wgt id="678">4.33062e-12</wgt>
  <wgt id="679">3.94232e-12</wgt>
  <wgt id="680">4.0171e-12</wgt>
  <wgt id="681">4.23719e-12</wgt>
  <wgt id="682">4.21385e-12</wgt>
  <wgt id="683">4.09052e-12</wgt>
  <wgt id="684">4.30815e-12</wgt>
  <wgt id="685">3.94972e-12</wgt>
  <wgt id="686">4.11369e-12</wgt>
  <wgt id="687">4.30559e-12</wgt>
  <wgt id="688">4.10009e-12</wgt>
  <wgt id="689">4.39505e-12</wgt>
  <wgt id="690">4.3477e-12</wgt>
  <wgt id="691">4.34406e-12</wgt>
  <wgt id="692">4.11751e-12</wgt>
  <wgt id="693">4.7839e-12</wgt>
  <wgt id="694">4.37564e-12</wgt>
  <wgt id="695">4.00704e-12</wgt>
  <wgt id="696">3.96762e-12</wgt>
  <wgt id="697">3.99796e-12</wgt>
  <wgt id="698">3.8521e-12</wgt>
  <wgt id="699">3.80571e-12</wgt>
  <wgt id="700">3.68469e-12</wgt>
  <wgt id="701">4.14174e-12</wgt>
  <wgt id="702">4.00094e-12</wgt>
  <wgt id="703">4.68763e-12</wgt>
  <wgt id="704">4.47504e-12</wgt>
  <wgt id="705">4.32594e-12</wgt>
  <wgt id="706">3.89177e-12</wgt>
  <wgt id="707">3.9802e-12</wgt>
  <wgt id="708">4.08089e-12</wgt>
  <wgt id="709">4.06416e-12</wgt>
  <wgt id="710">3.75698e-12</wgt>
  <wgt id="711">4.12772e-12</wgt>
  <wgt id="712">4.06666e-12</wgt>
  <wgt id="713">4.41654e-12</wgt>
  <wgt id="714">4.08835e-12</wgt>
  <wgt id="715">4.09158e-12</wgt>
  <wgt id="716">3.99112e-12</wgt>
  <wgt id="717">3.95477e-12</wgt>
  <wgt id="718">4.1039e-12</wgt>
  <wgt id="719">3.78994e-12</wgt>
  <wgt id="720">3.94324e-12</wgt>
  <wgt id="721">3.88256e-12</wgt>
  <wgt id="722">3.7274e-12</wgt>
  <wgt id="723">4.37763e-12</wgt>
  <wgt id="724">4.30807e-12</wgt>
  <wgt id="725">4.35679e-12</wgt>
  <wgt id="726">4.17246e-12</wgt>
  <wgt id="727">4.05033e-12</wgt>
  <wgt id="728">4.0787e-12</wgt>
  <wgt id="729">3.84315e-12</wgt>
  <wgt id="730">4.38783e-12</wgt>
  <wgt id="731">4.08825e-12</wgt>
  <wgt id="732">4.51531e-12</wgt>
  <wgt id="733">4.10757e-12</wgt>
  <wgt id="734">4.22806e-12</wgt>
  <wgt id="735">4.13968e-12</wgt>
  <wgt id="736">4.06801e-12</wgt>
  <wgt id="737">4.19554e-12</wgt>
  <wgt id="738">3.9835e-12</wgt>
  <wgt id="739">4.16073e-12</wgt>
  <wgt id="740">4.56984e-12</wgt>
  <wgt id="741">3.71373e-12</wgt>
  <wgt id="742">4.08297e-12</wgt>
  <wgt id="743">3.99414e-12</wgt>
  <wgt id="744">4.05371e-12</wgt>
  <wgt id="745">4.29088e-12</wgt>
  <wgt id="746">4.3489e-12</wgt>
  <wgt id="747">3.79384e-12</wgt>
  <wgt id="748">4.07731e-12</wgt>
  <wgt id="749">4.34838e-12</wgt>
  <wgt id="750">4.19959e-12</wgt>
  <wgt id="751">4.26308e-12</wgt>
  <wgt id="752">3.82581e-12</wgt>
  <wgt id="753">3.93223e-12</wgt>
  <wgt id="754">4.25476e-12</wgt>
  <wgt id="755">4.15331e-12</wgt>
  <wgt id="756">4.14438e-12</wgt>
  <wgt id="757">3.84035e-12</wgt>
  <wgt id="758">4.16935e-12</wgt>
  <wgt id="759">4.20729e-12</wgt>
  <wgt id="760">4.19195e-12</wgt>
  <wgt id="761">4.35584e-12</wgt>
  <wgt id="762">4.35917e-12</wgt>
  <wgt id="763">4.14093e-12</wgt>
  <wgt id="764">4.28222e-12</wgt>
  <wgt id="765">4.17024e-12</wgt>
  <wgt id="766">4.12513e-12</wgt>
  <wgt id="767">4.22242e-12</wgt>
  <wgt id="768">3.92641e-12</wgt>
  <wgt id="769">4.36769e-12</wgt>
  <wgt id="770">4.05702e-12</wgt>
  <wgt id="771">4.8243e-12</wgt>
  <wgt id="772">3.91298e-12</wgt>
  <wgt id="773">4.11646e-12</wgt>
  <wgt id="774">3.71353e-12</wgt>
  <wgt id="775">4.31537e-12</wgt>
  <wgt id="776">4.48667e-12</wgt>
  <wgt id="777">3.98488e-12</wgt>
  <wgt id="778">3.09286e-12</wgt>
  <wgt id="779">2.60074e-12</wgt>
  <wgt id="780">2.1747e-12</wgt>
  <wgt id="781">3.1903e-12</wgt>
  <wgt id="782">3.28162e-12</wgt>
  <wgt id="783">2.6432e-12</wgt>
  <wgt id="784">2.73171e-12</wgt>
  <wgt id="785">3.7327e-12</wgt>
  <wgt id="786">2.41699e-12</wgt>
  <wgt id="787">3.47299e-12</wgt>
  <wgt id="788">2.01564e-12</wgt>
  <wgt id="789">2.56007e-12</wgt>
  <wgt id="790">2.39719e-12</wgt>
  <wgt id="791">2.92494e-12</wgt>
  <wgt id="792">4.03438e-12</wgt>
  <wgt id="793">3.02314e-12</wgt>
  <wgt id="794">2.42205e-12</wgt>
  <wgt id="795">3.55111e-12</wgt>
  <wgt id="796">4.00026e-12</wgt>
  <wgt id="797">3.54528e-12</wgt>
  <wgt id="798">2.8571e-12</wgt>
  <wgt id="799">3.47603e-12</wgt>
  <wgt id="800">2.56479e-12</wgt>
  <wgt id="801">2.90806e-12</wgt>
  <wgt id="802">2.43948e-12</wgt>
  <wgt id="803">4.04564e-12</wgt>
  <wgt id="804">3.53083e-12</wgt>
  <wgt id="805">3.58149e-12</wgt>
  <wgt id="806">3.4509e-12</wgt>
  <wgt id="807">2.96925e-12</wgt>
  <wgt id="808">3.00955e-12</wgt>
  <wgt id="809">2.87083e-12</wgt>
  <wgt id="810">3.49629e-12</wgt>
  <wgt id="811">3.34138e-12</wgt>
  <wgt id="812">2.4144e-12</wgt>
  <wgt id="813">2.44616e-12</wgt>
  <wgt id="814">2.59546e-12</wgt>
  <wgt id="815">2.60913e-12</wgt>
  <wgt id="816">2.34697e-12</wgt>
  <wgt id="817">3.23679e-12</wgt>
  <wgt id="818">3.06377e-12</wgt>
  <wgt id="819">2.6131e-12</wgt>
  <wgt id="820">3.09312e-12</wgt>
  <wgt id="821">3.49531e-12</wgt>
  <wgt id="822">2.63795e-12</wgt>
  <wgt id="823">3.51762e-12</wgt>
  <wgt id="824">4.09128e-12</wgt>
  <wgt id="825">2.33946e-12</wgt>
  <wgt id="826">3.23693e-12</wgt>
  <wgt id="827">1.9723e-12</wgt>
  <wgt id="828">3.94392e-12</wgt>
  <wgt id="829">3.18408e-12</wgt>
  <wgt id="830">2.2261e-12</wgt>
  <wgt id="831">3.30445e-12</wgt>
  <wgt id="832">4.94513e-12</wgt>
  <wgt id="833">2.90529e-12</wgt>
  <wgt id="834">4.66505e-12</wgt>
  <wgt id="835">2.54932e-12</wgt>
  <wgt id="836">3.06465e-12</wgt>
  <wgt id="837">3.45384e-12</wgt>
  <wgt id="838">2.9336e-12</wgt>
  <wgt id="839">3.28932e-12</wgt>
  <wgt id="840">2.91756e-12</wgt>
  <wgt id="841">3.728e-12</wgt>
  <wgt id="842">2.8519e-12</wgt>
  <wgt id="843">3.03543e-12</wgt>
  <wgt id="844">3.20298e-12</wgt>
  <wgt id="845">4.27643e-12</wgt>
  <wgt id="846">2.95126e-12</wgt>
  <wgt id="847">3.09394e-12</wgt>
  <wgt id="848">2.70857e-12</wgt>
  <wgt id="849">3.16429e-12</wgt>
  <wgt id="850">3.94184e-12</wgt>
  <wgt id="851">3.37125e-12</wgt>
  <wgt id="852">2.65062e-12</wgt>
  <wgt id="853">3.36672e-12</wgt>
  <wgt id="854">3.7194e-12</wgt>
  <wgt id="855">3.50826e-12</wgt>
  <wgt id="856">2.27542e-12</wgt>
  <wgt id="857">3.09855e-12</wgt>
  <wgt id="858">3.02616e-12</wgt>
  <wgt id="859">2.90122e-12</wgt>
  <wgt id="860">3.29389e-12</wgt>
  <wgt id="861">2.77101e-12</wgt>
  <wgt id="862">3.13219e-12</wgt>
  <wgt id="863">3.24643e-12</wgt>
  <wgt id="864">3.2464e-12</wgt>
  <wgt id="865">4.30488e-12</wgt>
  <wgt id="866">4.72006e-12</wgt>
  <wgt id="867">3.1182e-12</wgt>
  <wgt id="868">3.03738e-12</wgt>
  <wgt id="869">2.44279e-12</wgt>
  <wgt id="870">2.57175e-12</wgt>
  <wgt id="871">2.50123e-12</wgt>
  <wgt id="872">3.62733e-12</wgt>
  <wgt id="873">2.60237e-12</wgt>
  <wgt id="874">3.23186e-12</wgt>
  <wgt id="875">2.70252e-12</wgt>
  <wgt id="876">3.6194e-12</wgt>
  <wgt id="877">3.47551e-12</wgt>
  <wgt id="878">2.69684e-12</wgt>
  <wgt id="879">4.13723e-12</wgt>
  <wgt id="880">4.19341e-12</wgt>
  <wgt id="881">4.33062e-12</wgt>
  <wgt id="882">3.94232e-12</wgt>
  <wgt id="883">4.0171e-12</wgt>
  <wgt id="884">4.23719e-12</wgt>
  <wgt id="885">4.21385e-12</wgt>
  <wgt id="886">4.09052e-12</wgt>
  <wgt id="887">4.30815e-12</wgt>
  <wgt id="888">3.94972e-12</wgt>
  <wgt id="889">4.11369e-12</wgt>
  <wgt id="890">4.30559e-12</wgt>
  <wgt id="891">4.10009e-12</wgt>
  <wgt id="892">4.39505e-12</wgt>
  <wgt id="893">4.3477e-12</wgt>
  <wgt id="894">4.34406e-12</wgt>
  <wgt id="895">4.11751e-12</wgt>
  <wgt id="896">4.7839e-12</wgt>
  <wgt id="897">4.37564e-12</wgt>
  <wgt id="898">4.00704e-12</wgt>
  <wgt id="899">3.96762e-12</wgt>
  <wgt id="900">3.99796e-12</wgt>
  <wgt id="901">3.8521e-12</wgt>
  <wgt id="902">3.80571e-12</wgt>
  <wgt id="903">3.68469e-12</wgt>
  <wgt id="904">4.14174e-12</wgt>
  <wgt id="905">4.00094e-12</wgt>
  <wgt id="906">4.68763e-12</wgt>
  <wgt id="907">4.47504e-12</wgt>
  <wgt id="908">4.32594e-12</wgt>
  <wgt id="909">3.89177e-12</wgt>
  <wgt id="910">3.9802e-12</wgt>
  <wgt id="911">4.08089e-12</wgt>
  <wgt id="912">4.06416e-12</wgt>
  <wgt id="913">3.75698e-12</wgt>
  <wgt id="914">4.12772e-12</wgt>
  <wgt id="915">4.06666e-12</wgt>
  <wgt id="916">4.41654e-12</wgt>
  <wgt id="917">4.08835e-12</wgt>
  <wgt id="918">4.09158e-12</wgt>
  <wgt id="919">3.99112e-12</wgt>
  <wgt id="920">3.95477e-12</wgt>
  <wgt id="921">4.1039e-12</wgt>
  <wgt id="922">3.78994e-12</wgt>
  <wgt id="923">3.94324e-12</wgt>
  <wgt id="924">3.88256e-12</wgt>
  <wgt id="925">3.7274e-12</wgt>
  <wgt id="926">4.37763e-12</wgt>
  <wgt id="927">4.30807e-12</wgt>
  <wgt id="928">4.35679e-12</wgt>
  <wgt id="929">4.17246e-12</wgt>
  <wgt id="930">4.05033e-12</wgt>
  <wgt id="931">4.0787e-12</wgt>
  <wgt id="932">3.84315e-12</wgt>
  <wgt id="933">4.38783e-12</wgt>
  <wgt id="934">4.08825e-12</wgt>
  <wgt id="935">4.51531e-12</wgt>
  <wgt id="936">4.10757e-12</wgt>
  <wgt id="937">4.22806e-12</wgt>
  <wgt id="938">4.13968e-12</wgt>
  <wgt id="939">4.06801e-12</wgt>
  <wgt id="940">4.19554e-12</wgt>
  <wgt id="941">3.9835e-12</wgt>
  <wgt id="942">4.16073e-12</wgt>
  <wgt id="943">4.56984e-12</wgt>
  <wgt id="944">3.71373e-12</wgt>
  <wgt id="945">4.08297e-12</wgt>
  <wgt id="946">3.99414e-12</wgt>
  <wgt id="947">4.05371e-12</wgt>
  <wgt id="948">4.29088e-12</wgt>
  <wgt id="949">4.3489e-12</wgt>
  <wgt id="950">3.79384e-12</wgt>
  <wgt id="951">4.07731e-12</wgt>
  <wgt id="952">4.34838e-12</wgt>
  <wgt id="953">4.19959e-12</wgt>
  <wgt id="954">4.26308e-12</wgt>
  <wgt id="955">3.82581e-12</wgt>
  <wgt id="956">3.93223e-12</wgt>
  <wgt id="957">4.25476e-12</wgt>
  <wgt id="958">4.15331e-12</wgt>
  <wgt id="959">4.14438e-12</wgt>
  <wgt id="960">3.84035e-12</wgt>
  <wgt id="961">4.16935e-12</wgt>
  <wgt id="962">4.20729e-12</wgt>
  <wgt id="963">4.19195e-12</wgt>
  <wgt id="964">4.35584e-12</wgt>
  <wgt id="965">4.35917e-12</wgt>
  <wgt id="966">4.14093e-12</wgt>
  <wgt id="967">4.28222e-12</wgt>
  <wgt id="968">4.17024e-12</wgt>
  <wgt id="969">4.12513e-12</wgt>
  <wgt id="970">4.22242e-12</wgt>
  <wgt id="971">3.92641e-12</wgt>
  <wgt id="972">4.36769e-12</wgt>
  <wgt id="973">4.05702e-12</wgt>
  <wgt id="974">4.8243e-12</wgt>
  <wgt id="975">3.91298e-12</wgt>
  <wgt id="976">4.11646e-12</wgt>
  <wgt id="977">3.71353e-12</wgt>
  <wgt id="978">4.31537e-12</wgt>
  <wgt id="979">4.48667e-12</wgt>
  <wgt id="980">4.1407e-12</wgt>
  <wgt id="981">4.15188e-12</wgt>
  <wgt id="982">4.01934e-12</wgt>
</rwgt>
</event>
<event>
 5   1  0.3028200E-11  0.2168270E+04  0.7818608E-02  0.7760927E-01
       21   -1    0    0  502  501  0.00000000000E+00  0.00000000000E+00  0.10688028160E+04  0.10688028160E+04  0.00000000000E+00 0.  1.
       21   -1    0    0  501  502 -0.00000000000E+00 -0.00000000000E+00 -0.10996875422E+04  0.10996875422E+04  0.00000000000E+00 0. -1.
       39    2    1    2    0    0  0.00000000000E+00  0.00000000000E+00 -0.30884726153E+02  0.21684903581E+04  0.21682704091E+04 0.  0.
       25    1    3    3    0    0 -0.19950490215E+03 -0.83710649763E+03 -0.66294502234E+03  0.10934672364E+04  0.12500000000E+03 0.  0.
       25    1    3    3    0    0  0.19950490215E+03  0.83710649763E+03  0.63206029619E+03  0.10750231218E+04  0.12500000000E+03 0.  0.
<mgrwt>
<rscale>  0 0.21682704E+04</rscale>
<asrwt>0</asrwt>
<pdfrwt beam="1">  1       21 0.16443120E+00 0.21682704E+04</pdfrwt>
<pdfrwt beam="2">  1       21 0.16918270E+00 0.21682704E+04</pdfrwt>
<totfact> 0.21015273E+01</totfact>
</mgrwt>
<rwgt>
  <wgt id="1">3.0282e-12</wgt>
  <wgt id="2">2.64647e-12</wgt>
  <wgt id="3">3.50005e-12</wgt>
  <wgt id="4">3.0282e-12</wgt>
  <wgt id="5">2.64647e-12</wgt>
  <wgt id="6">3.50005e-12</wgt>
  <wgt id="7">3.0282e-12</wgt>
  <wgt id="8">2.64647e-12</wgt>
  <wgt id="9">3.50005e-12</wgt>
  <wgt id="10">3.10889e-12</wgt>
  <wgt id="11">3.10566e-12</wgt>
  <wgt id="12">3.1027e-12</wgt>
  <wgt id="13">3.09815e-12</wgt>
  <wgt id="14">3.11985e-12</wgt>
  <wgt id="15">3.11307e-12</wgt>
  <wgt id="16">3.1015e-12</wgt>
  <wgt id="17">3.1133e-12</wgt>
  <wgt id="18">3.10493e-12</wgt>
  <wgt id="19">3.11526e-12</wgt>
  <wgt id="20">3.09946e-12</wgt>
  <wgt id="21">3.09363e-12</wgt>
  <wgt id="22">3.10069e-12</wgt>
  <wgt id="23">3.08374e-12</wgt>
  <wgt id="24">3.09604e-12</wgt>
  <wgt id="25">3.10132e-12</wgt>
  <wgt id="26">3.1222e-12</wgt>
  <wgt id="27">3.10875e-12</wgt>
  <wgt id="28">3.09437e-12</wgt>
  <wgt id="29">3.11251e-12</wgt>
  <wgt id="30">3.10215e-12</wgt>
  <wgt id="31">3.11639e-12</wgt>
  <wgt id="32">3.10272e-12</wgt>
  <wgt id="33">3.11554e-12</wgt>
  <wgt id="34">3.10055e-12</wgt>
  <wgt id="35">3.10547e-12</wgt>
  <wgt id="36">3.11548e-12</wgt>
  <wgt id="37">3.10101e-12</wgt>
  <wgt id="38">3.10179e-12</wgt>
  <wgt id="39">3.13937e-12</wgt>
  <wgt id="40">3.11748e-12</wgt>
  <wgt id="41">3.10824e-12</wgt>
  <wgt id="42">3.12007e-12</wgt>
  <wgt id="43">3.11266e-12</wgt>
  <wgt id="44">3.09407e-12</wgt>
  <wgt id="45">3.11336e-12</wgt>
  <wgt id="46">3.11278e-12</wgt>
  <wgt id="47">3.09347e-12</wgt>
  <wgt id="48">3.10965e-12</wgt>
  <wgt id="49">3.12436e-12</wgt>
  <wgt id="50">3.13148e-12</wgt>
  <wgt id="51">3.12302e-12</wgt>
  <wgt id="52">3.0946e-12</wgt>
  <wgt id="53">3.09074e-12</wgt>
  <wgt id="54">3.1024e-12</wgt>
  <wgt id="55">3.10792e-12</wgt>
  <wgt id="56">3.11703e-12</wgt>
  <wgt id="57">3.11978e-12</wgt>
  <wgt id="58">3.08684e-12</wgt>
  <wgt id="59">3.09858e-12</wgt>
  <wgt id="60">3.10875e-12</wgt>
  <wgt id="61">3.10864e-12</wgt>
  <wgt id="62">3.11089e-12</wgt>
  <wgt id="63">3.11463e-12</wgt>
  <wgt id="64">3.11264e-12</wgt>
  <wgt id="65">3.11072e-12</wgt>
  <wgt id="66">3.10545e-12</wgt>
  <wgt id="67">3.10797e-12</wgt>
  <wgt id="68">3.10561e-12</wgt>
  <wgt id="69">3.10717e-12</wgt>
  <wgt id="70">3.10625e-12</wgt>
  <wgt id="71">3.10651e-12</wgt>
  <wgt id="72">3.10614e-12</wgt>
  <wgt id="73">3.11162e-12</wgt>
  <wgt id="74">3.11041e-12</wgt>
  <wgt id="75">3.11013e-12</wgt>
  <wgt id="76">3.11662e-12</wgt>
  <wgt id="77">3.10837e-12</wgt>
  <wgt id="78">3.10984e-12</wgt>
  <wgt id="79">3.11331e-12</wgt>
  <wgt id="80">3.09696e-12</wgt>
  <wgt id="81">3.10512e-12</wgt>
  <wgt id="82">3.10902e-12</wgt>
  <wgt id="83">3.09908e-12</wgt>
  <wgt id="84">3.10264e-12</wgt>
  <wgt id="85">3.10521e-12</wgt>
  <wgt id="86">3.1135e-12</wgt>
  <wgt id="87">3.09693e-12</wgt>
  <wgt id="88">3.11182e-12</wgt>
  <wgt id="89">3.11129e-12</wgt>
  <wgt id="90">3.11169e-12</wgt>
  <wgt id="91">3.11054e-12</wgt>
  <wgt id="92">3.11366e-12</wgt>
  <wgt id="93">3.10834e-12</wgt>
  <wgt id="94">3.10688e-12</wgt>
  <wgt id="95">3.11023e-12</wgt>
  <wgt id="96">3.11073e-12</wgt>
  <wgt id="97">3.10579e-12</wgt>
  <wgt id="98">3.11049e-12</wgt>
  <wgt id="99">3.10812e-12</wgt>
  <wgt id="100">3.11205e-12</wgt>
  <wgt id="101">3.10809e-12</wgt>
  <wgt id="102">3.10641e-12</wgt>
  <wgt id="103">3.11235e-12</wgt>
  <wgt id="104">3.10645e-12</wgt>
  <wgt id="105">3.11093e-12</wgt>
  <wgt id="106">3.1059e-12</wgt>
  <wgt id="107">3.11568e-12</wgt>
  <wgt id="108">3.10618e-12</wgt>
  <wgt id="109">3.1108e-12</wgt>
  <wgt id="110">3.10795e-12</wgt>
  <wgt id="111">3.14807e-12</wgt>
  <wgt id="112">3.09877e-12</wgt>
  <wgt id="113">4.07272e-12</wgt>
  <wgt id="114">4.25601e-12</wgt>
  <wgt id="115">4.1996e-12</wgt>
  <wgt id="116">5.73325e-12</wgt>
  <wgt id="117">3.41979e-12</wgt>
  <wgt id="118">3.43068e-12</wgt>
  <wgt id="119">3.41368e-12</wgt>
  <wgt id="120">3.4202e-12</wgt>
  <wgt id="121">3.41952e-12</wgt>
  <wgt id="122">3.41361e-12</wgt>
  <wgt id="123">3.42837e-12</wgt>
  <wgt id="124">3.41486e-12</wgt>
  <wgt id="125">3.42311e-12</wgt>
  <wgt id="126">3.42557e-12</wgt>
  <wgt id="127">3.41602e-12</wgt>
  <wgt id="128">3.4306e-12</wgt>
  <wgt id="129">3.40907e-12</wgt>
  <wgt id="130">3.43962e-12</wgt>
  <wgt id="131">3.39952e-12</wgt>
  <wgt id="132">3.33436e-12</wgt>
  <wgt id="133">3.52028e-12</wgt>
  <wgt id="134">3.3849e-12</wgt>
  <wgt id="135">3.44698e-12</wgt>
  <wgt id="136">3.46022e-12</wgt>
  <wgt id="137">3.37081e-12</wgt>
  <wgt id="138">3.5426e-12</wgt>
  <wgt id="139">3.30024e-12</wgt>
  <wgt id="140">3.39605e-12</wgt>
  <wgt id="141">3.4385e-12</wgt>
  <wgt id="142">3.42047e-12</wgt>
  <wgt id="143">3.4234e-12</wgt>
  <wgt id="144">3.34052e-12</wgt>
  <wgt id="145">3.49203e-12</wgt>
  <wgt id="146">3.44494e-12</wgt>
  <wgt id="147">3.40034e-12</wgt>
  <wgt id="148">3.42936e-12</wgt>
  <wgt id="149">3.41918e-12</wgt>
  <wgt id="150">3.44856e-12</wgt>
  <wgt id="151">3.40639e-12</wgt>
  <wgt id="152">3.42114e-12</wgt>
  <wgt id="153">3.41929e-12</wgt>
  <wgt id="154">3.45138e-12</wgt>
  <wgt id="155">3.3831e-12</wgt>
  <wgt id="156">3.47205e-12</wgt>
  <wgt id="157">3.36007e-12</wgt>
  <wgt id="158">4.11601e-12</wgt>
  <wgt id="159">4.13301e-12</wgt>
  <wgt id="160">4.10231e-12</wgt>
  <wgt id="161">4.10641e-12</wgt>
  <wgt id="162">4.12676e-12</wgt>
  <wgt id="163">4.11197e-12</wgt>
  <wgt id="164">4.12222e-12</wgt>
  <wgt id="165">4.11771e-12</wgt>
  <wgt id="166">4.11492e-12</wgt>
  <wgt id="167">4.11303e-12</wgt>
  <wgt id="168">4.12035e-12</wgt>
  <wgt id="169">4.0983e-12</wgt>
  <wgt id="170">4.12722e-12</wgt>
  <wgt id="171">4.11175e-12</wgt>
  <wgt id="172">4.12216e-12</wgt>
  <wgt id="173">4.11719e-12</wgt>
  <wgt id="174">4.11547e-12</wgt>
  <wgt id="175">4.00585e-12</wgt>
  <wgt id="176">4.25908e-12</wgt>
  <wgt id="177">4.13663e-12</wgt>
  <wgt id="178">4.09692e-12</wgt>
  <wgt id="179">4.27386e-12</wgt>
  <wgt id="180">3.86534e-12</wgt>
  <wgt id="181">4.00502e-12</wgt>
  <wgt id="182">4.18912e-12</wgt>
  <wgt id="183">4.04801e-12</wgt>
  <wgt id="184">4.14991e-12</wgt>
  <wgt id="185">4.08552e-12</wgt>
  <wgt id="186">4.15193e-12</wgt>
  <wgt id="187">4.08132e-12</wgt>
  <wgt id="188">4.1788e-12</wgt>
  <wgt id="189">4.09203e-12</wgt>
  <wgt id="190">4.12593e-12</wgt>
  <wgt id="191">4.12622e-12</wgt>
  <wgt id="192">4.11011e-12</wgt>
  <wgt id="193">4.16958e-12</wgt>
  <wgt id="194">4.08959e-12</wgt>
  <wgt id="195">4.03641e-12</wgt>
  <wgt id="196">4.26902e-12</wgt>
  <wgt id="197">4.13522e-12</wgt>
  <wgt id="198">4.11153e-12</wgt>
  <wgt id="199">4.11601e-12</wgt>
  <wgt id="200">4.14922e-12</wgt>
  <wgt id="201">4.13673e-12</wgt>
  <wgt id="202">4.12494e-12</wgt>
  <wgt id="203">4.10674e-12</wgt>
  <wgt id="204">4.09821e-12</wgt>
  <wgt id="205">4.09112e-12</wgt>
  <wgt id="206">4.00793e-12</wgt>
  <wgt id="207">4.03101e-12</wgt>
  <wgt id="208">3.98516e-12</wgt>
  <wgt id="209">4.01877e-12</wgt>
  <wgt id="210">4.00002e-12</wgt>
  <wgt id="211">4.00679e-12</wgt>
  <wgt id="212">4.0089e-12</wgt>
  <wgt id="213">4.00755e-12</wgt>
  <wgt id="214">4.00853e-12</wgt>
  <wgt id="215">4.01057e-12</wgt>
  <wgt id="216">4.00615e-12</wgt>
  <wgt id="217">4.01911e-12</wgt>
  <wgt id="218">3.9995e-12</wgt>
  <wgt id="219">4.00288e-12</wgt>
  <wgt id="220">4.01099e-12</wgt>
  <wgt id="221">4.00588e-12</wgt>
  <wgt id="222">4.01303e-12</wgt>
  <wgt id="223">3.80747e-12</wgt>
  <wgt id="224">4.18996e-12</wgt>
  <wgt id="225">3.96335e-12</wgt>
  <wgt id="226">4.06383e-12</wgt>
  <wgt id="227">3.9721e-12</wgt>
  <wgt id="228">4.02366e-12</wgt>
  <wgt id="229">3.95488e-12</wgt>
  <wgt id="230">4.03433e-12</wgt>
  <wgt id="231">4.11448e-12</wgt>
  <wgt id="232">3.92021e-12</wgt>
  <wgt id="233">3.98877e-12</wgt>
  <wgt id="234">4.03684e-12</wgt>
  <wgt id="235">3.94969e-12</wgt>
  <wgt id="236">4.0682e-12</wgt>
  <wgt id="237">3.96426e-12</wgt>
  <wgt id="238">4.0231e-12</wgt>
  <wgt id="239">3.98833e-12</wgt>
  <wgt id="240">4.04384e-12</wgt>
  <wgt id="241">3.97082e-12</wgt>
  <wgt id="242">4.05273e-12</wgt>
  <wgt id="243">4.04449e-12</wgt>
  <wgt id="244">4.03632e-12</wgt>
  <wgt id="245">4.00449e-12</wgt>
  <wgt id="246">4.03988e-12</wgt>
  <wgt id="247">4.00793e-12</wgt>
  <wgt id="248">4.04025e-12</wgt>
  <wgt id="249">4.02765e-12</wgt>
  <wgt id="250">4.01617e-12</wgt>
  <wgt id="251">3.99853e-12</wgt>
  <wgt id="252">3.99034e-12</wgt>
  <wgt id="253">3.98429e-12</wgt>
  <wgt id="254">3.93012e-12</wgt>
  <wgt id="255">3.93407e-12</wgt>
  <wgt id="256">3.92605e-12</wgt>
  <wgt id="257">3.93324e-12</wgt>
  <wgt id="258">3.92788e-12</wgt>
  <wgt id="259">3.95636e-12</wgt>
  <wgt id="260">3.905e-12</wgt>
  <wgt id="261">3.93441e-12</wgt>
  <wgt id="262">3.92519e-12</wgt>
  <wgt id="263">3.92887e-12</wgt>
  <wgt id="264">3.9317e-12</wgt>
  <wgt id="265">3.9261e-12</wgt>
  <wgt id="266">3.93809e-12</wgt>
  <wgt id="267">3.93137e-12</wgt>
  <wgt id="268">3.92864e-12</wgt>
  <wgt id="269">3.94159e-12</wgt>
  <wgt id="270">3.92241e-12</wgt>
  <wgt id="271">3.92408e-12</wgt>
  <wgt id="272">3.93711e-12</wgt>
  <wgt id="273">3.91845e-12</wgt>
  <wgt id="274">3.93921e-12</wgt>
  <wgt id="275">3.91615e-12</wgt>
  <wgt id="276">3.94453e-12</wgt>
  <wgt id="277">3.909e-12</wgt>
  <wgt id="278">3.94965e-12</wgt>
  <wgt id="279">3.85879e-12</wgt>
  <wgt id="280">4.01937e-12</wgt>
  <wgt id="281">3.91442e-12</wgt>
  <wgt id="282">3.93024e-12</wgt>
  <wgt id="283">3.82703e-12</wgt>
  <wgt id="284">4.0566e-12</wgt>
  <wgt id="285">3.75788e-12</wgt>
  <wgt id="286">4.07129e-12</wgt>
  <wgt id="287">3.94142e-12</wgt>
  <wgt id="288">3.91566e-12</wgt>
  <wgt id="289">3.95517e-12</wgt>
  <wgt id="290">3.87053e-12</wgt>
  <wgt id="291">3.92153e-12</wgt>
  <wgt id="292">3.93235e-12</wgt>
  <wgt id="293">3.90261e-12</wgt>
  <wgt id="294">3.95753e-12</wgt>
  <wgt id="295">3.86164e-12</wgt>
  <wgt id="296">4.01361e-12</wgt>
  <wgt id="297">3.93292e-12</wgt>
  <wgt id="298">3.94168e-12</wgt>
  <wgt id="299">3.91863e-12</wgt>
  <wgt id="300">3.96047e-12</wgt>
  <wgt id="301">3.89055e-12</wgt>
  <wgt id="302">4.04117e-12</wgt>
  <wgt id="303">3.9072e-12</wgt>
  <wgt id="304">3.9438e-12</wgt>
  <wgt id="305">3.95441e-12</wgt>
  <wgt id="306">3.9585e-12</wgt>
  <wgt id="307">3.95022e-12</wgt>
  <wgt id="308">3.95799e-12</wgt>
  <wgt id="309">3.95205e-12</wgt>
  <wgt id="310">3.98165e-12</wgt>
  <wgt id="311">3.92929e-12</wgt>
  <wgt id="312">3.95741e-12</wgt>
  <wgt id="313">3.95168e-12</wgt>
  <wgt id="314">3.95325e-12</wgt>
  <wgt id="315">3.95568e-12</wgt>
  <wgt id="316">3.95066e-12</wgt>
  <wgt id="317">3.9628e-12</wgt>
  <wgt id="318">3.95701e-12</wgt>
  <wgt id="319">3.95017e-12</wgt>
  <wgt id="320">3.96634e-12</wgt>
  <wgt id="321">3.9478e-12</wgt>
  <wgt id="322">3.94603e-12</wgt>
  <wgt id="323">3.96433e-12</wgt>
  <wgt id="324">3.94466e-12</wgt>
  <wgt id="325">3.96306e-12</wgt>
  <wgt id="326">3.94322e-12</wgt>
  <wgt id="327">3.9688e-12</wgt>
  <wgt id="328">3.93507e-12</wgt>
  <wgt id="329">3.96555e-12</wgt>
  <wgt id="330">4.06572e-12</wgt>
  <wgt id="331">3.84808e-12</wgt>
  <wgt id="332">3.94139e-12</wgt>
  <wgt id="333">3.95403e-12</wgt>
  <wgt id="334">3.87266e-12</wgt>
  <wgt id="335">4.05547e-12</wgt>
  <wgt id="336">3.82861e-12</wgt>
  <wgt id="337">4.10633e-12</wgt>
  <wgt id="338">3.99477e-12</wgt>
  <wgt id="339">3.91705e-12</wgt>
  <wgt id="340">3.97855e-12</wgt>
  <wgt id="341">3.89156e-12</wgt>
  <wgt id="342">3.94871e-12</wgt>
  <wgt id="343">3.95125e-12</wgt>
  <wgt id="344">3.92921e-12</wgt>
  <wgt id="345">3.98379e-12</wgt>
  <wgt id="346">3.88298e-12</wgt>
  <wgt id="347">4.03687e-12</wgt>
  <wgt id="348">3.95933e-12</wgt>
  <wgt id="349">3.96314e-12</wgt>
  <wgt id="350">3.93987e-12</wgt>
  <wgt id="351">3.99165e-12</wgt>
  <wgt id="352">3.90955e-12</wgt>
  <wgt id="353">4.0732e-12</wgt>
  <wgt id="354">3.91845e-12</wgt>
  <wgt id="355">3.97712e-12</wgt>
  <wgt id="356">3.93012e-12</wgt>
  <wgt id="357">3.97417e-12</wgt>
  <wgt id="358">3.95441e-12</wgt>
  <wgt id="359">3.94744e-12</wgt>
  <wgt id="360">3.94472e-12</wgt>
  <wgt id="361">3.93994e-12</wgt>
  <wgt id="362">4.00221e-12</wgt>
  <wgt id="363">3.99333e-12</wgt>
  <wgt id="364">3.98175e-12</wgt>
  <wgt id="365">3.96949e-12</wgt>
  <wgt id="366">3.95547e-12</wgt>
  <wgt id="367">3.92577e-12</wgt>
  <wgt id="368">3.90992e-12</wgt>
  <wgt id="369">3.89275e-12</wgt>
  <wgt id="370">3.93994e-12</wgt>
  <wgt id="371">3.95739e-12</wgt>
  <wgt id="372">3.94786e-12</wgt>
  <wgt id="373">3.93351e-12</wgt>
  <wgt id="374">3.93083e-12</wgt>
  <wgt id="375">4.14095e-12</wgt>
  <wgt id="376">4.14149e-12</wgt>
  <wgt id="377">4.1403e-12</wgt>
  <wgt id="378">4.15568e-12</wgt>
  <wgt id="379">4.12634e-12</wgt>
  <wgt id="380">4.15221e-12</wgt>
  <wgt id="381">4.1364e-12</wgt>
  <wgt id="382">4.16099e-12</wgt>
  <wgt id="383">4.12103e-12</wgt>
  <wgt id="384">4.14365e-12</wgt>
  <wgt id="385">4.13833e-12</wgt>
  <wgt id="386">4.15644e-12</wgt>
  <wgt id="387">4.1342e-12</wgt>
  <wgt id="388">4.13724e-12</wgt>
  <wgt id="389">4.14542e-12</wgt>
  <wgt id="390">4.15159e-12</wgt>
  <wgt id="391">4.12969e-12</wgt>
  <wgt id="392">4.11342e-12</wgt>
  <wgt id="393">4.15644e-12</wgt>
  <wgt id="394">4.1469e-12</wgt>
  <wgt id="395">4.13252e-12</wgt>
  <wgt id="396">4.14163e-12</wgt>
  <wgt id="397">4.14032e-12</wgt>
  <wgt id="398">4.12367e-12</wgt>
  <wgt id="399">4.15761e-12</wgt>
  <wgt id="400">4.1345e-12</wgt>
  <wgt id="401">4.15527e-12</wgt>
  <wgt id="402">4.11032e-12</wgt>
  <wgt id="403">4.15274e-12</wgt>
  <wgt id="404">4.22635e-12</wgt>
  <wgt id="405">3.93384e-12</wgt>
  <wgt id="406">4.0794e-12</wgt>
  <wgt id="407">4.27323e-12</wgt>
  <wgt id="408">4.1725e-12</wgt>
  <wgt id="409">4.07989e-12</wgt>
  <wgt id="410">4.03924e-12</wgt>
  <wgt id="411">4.18707e-12</wgt>
  <wgt id="412">4.13452e-12</wgt>
  <wgt id="413">4.14957e-12</wgt>
  <wgt id="414">4.10044e-12</wgt>
  <wgt id="415">4.17234e-12</wgt>
  <wgt id="416">4.23509e-12</wgt>
  <wgt id="417">4.01052e-12</wgt>
  <wgt id="418">4.14566e-12</wgt>
  <wgt id="419">4.11512e-12</wgt>
  <wgt id="420">4.18436e-12</wgt>
  <wgt id="421">4.11955e-12</wgt>
  <wgt id="422">4.14124e-12</wgt>
  <wgt id="423">4.14196e-12</wgt>
  <wgt id="424">4.20675e-12</wgt>
  <wgt id="425">4.1015e-12</wgt>
  <wgt id="426">4.14095e-12</wgt>
  <wgt id="427">4.11572e-12</wgt>
  <wgt id="428">4.22323e-12</wgt>
  <wgt id="429">4.17068e-12</wgt>
  <wgt id="430">4.27711e-12</wgt>
  <wgt id="431">4.25609e-12</wgt>
  <wgt id="432">4.23577e-12</wgt>
  <wgt id="433">4.21611e-12</wgt>
  <wgt id="434">4.19289e-12</wgt>
  <wgt id="435">4.14289e-12</wgt>
  <wgt id="436">4.11692e-12</wgt>
  <wgt id="437">4.09261e-12</wgt>
  <wgt id="438">4.17068e-12</wgt>
  <wgt id="439">4.1844e-12</wgt>
  <wgt id="440">4.17651e-12</wgt>
  <wgt id="441">4.1663e-12</wgt>
  <wgt id="442">4.16245e-12</wgt>
  <wgt id="443">4.09394e-12</wgt>
  <wgt id="444">4.11043e-12</wgt>
  <wgt id="445">4.07663e-12</wgt>
  <wgt id="446">4.0701e-12</wgt>
  <wgt id="447">4.07926e-12</wgt>
  <wgt id="448">3.99488e-12</wgt>
  <wgt id="449">4.14988e-12</wgt>
  <wgt id="450">4.07357e-12</wgt>
  <wgt id="451">4.08878e-12</wgt>
  <wgt id="452">4.17521e-12</wgt>
  <wgt id="453">4.12464e-12</wgt>
  <wgt id="454">3.9438e-12</wgt>
  <wgt id="455">4.09748e-12</wgt>
  <wgt id="456">4.02639e-12</wgt>
  <wgt id="457">4.10834e-12</wgt>
  <wgt id="458">4.13452e-12</wgt>
  <wgt id="459">4.11752e-12</wgt>
  <wgt id="460">4.11275e-12</wgt>
  <wgt id="461">4.03243e-12</wgt>
  <wgt id="462">4.06601e-12</wgt>
  <wgt id="463">4.05728e-12</wgt>
  <wgt id="464">4.07527e-12</wgt>
  <wgt id="465">4.12916e-12</wgt>
  <wgt id="466">4.05621e-12</wgt>
  <wgt id="467">4.06064e-12</wgt>
  <wgt id="468">4.08438e-12</wgt>
  <wgt id="469">4.0847e-12</wgt>
  <wgt id="470">4.06284e-12</wgt>
  <wgt id="471">4.06463e-12</wgt>
  <wgt id="472">4.10943e-12</wgt>
  <wgt id="473">3.98309e-12</wgt>
  <wgt id="474">3.0282e-12</wgt>
  <wgt id="475">3.22947e-12</wgt>
  <wgt id="476">2.96883e-12</wgt>
  <wgt id="477">2.98326e-12</wgt>
  <wgt id="478">3.04395e-12</wgt>
  <wgt id="479">2.99505e-12</wgt>
  <wgt id="480">3.11375e-12</wgt>
  <wgt id="481">2.94375e-12</wgt>
  <wgt id="482">2.89803e-12</wgt>
  <wgt id="483">2.95134e-12</wgt>
  <wgt id="484">3.26419e-12</wgt>
  <wgt id="485">3.04652e-12</wgt>
  <wgt id="486">3.06336e-12</wgt>
  <wgt id="487">3.0746e-12</wgt>
  <wgt id="488">3.05934e-12</wgt>
  <wgt id="489">2.92788e-12</wgt>
  <wgt id="490">2.94265e-12</wgt>
  <wgt id="491">2.99251e-12</wgt>
  <wgt id="492">2.92969e-12</wgt>
  <wgt id="493">2.92907e-12</wgt>
  <wgt id="494">2.93904e-12</wgt>
  <wgt id="495">3.08731e-12</wgt>
  <wgt id="496">2.92408e-12</wgt>
  <wgt id="497">2.92443e-12</wgt>
  <wgt id="498">3.05606e-12</wgt>
  <wgt id="499">2.9464e-12</wgt>
  <wgt id="500">2.9763e-12</wgt>
  <wgt id="501">3.15515e-12</wgt>
  <wgt id="502">2.93808e-12</wgt>
  <wgt id="503">3.01411e-12</wgt>
  <wgt id="504">3.02118e-12</wgt>
  <wgt id="505">3.10861e-12</wgt>
  <wgt id="506">3.06568e-12</wgt>
  <wgt id="507">2.98822e-12</wgt>
  <wgt id="508">3.06999e-12</wgt>
  <wgt id="509">3.03971e-12</wgt>
  <wgt id="510">3.09509e-12</wgt>
  <wgt id="511">2.96695e-12</wgt>
  <wgt id="512">3.05495e-12</wgt>
  <wgt id="513">3.1334e-12</wgt>
  <wgt id="514">2.99622e-12</wgt>
  <wgt id="515">2.98835e-12</wgt>
  <wgt id="516">3.09643e-12</wgt>
  <wgt id="517">3.09434e-12</wgt>
  <wgt id="518">3.10607e-12</wgt>
  <wgt id="519">2.96173e-12</wgt>
  <wgt id="520">3.03352e-12</wgt>
  <wgt id="521">3.14088e-12</wgt>
  <wgt id="522">3.13671e-12</wgt>
  <wgt id="523">3.09758e-12</wgt>
  <wgt id="524">3.09917e-12</wgt>
  <wgt id="525">3.09724e-12</wgt>
  <wgt id="526">3.01752e-12</wgt>
  <wgt id="527">3.08759e-12</wgt>
  <wgt id="528">3.02104e-12</wgt>
  <wgt id="529">2.99156e-12</wgt>
  <wgt id="530">3.03565e-12</wgt>
  <wgt id="531">2.99007e-12</wgt>
  <wgt id="532">3.17817e-12</wgt>
  <wgt id="533">2.84184e-12</wgt>
  <wgt id="534">3.03213e-12</wgt>
  <wgt id="535">3.08385e-12</wgt>
  <wgt id="536">3.04114e-12</wgt>
  <wgt id="537">3.03962e-12</wgt>
  <wgt id="538">3.08249e-12</wgt>
  <wgt id="539">2.95639e-12</wgt>
  <wgt id="540">3.00163e-12</wgt>
  <wgt id="541">2.9909e-12</wgt>
  <wgt id="542">2.95507e-12</wgt>
  <wgt id="543">3.02229e-12</wgt>
  <wgt id="544">3.17424e-12</wgt>
  <wgt id="545">2.99023e-12</wgt>
  <wgt id="546">3.0059e-12</wgt>
  <wgt id="547">2.93597e-12</wgt>
  <wgt id="548">2.90547e-12</wgt>
  <wgt id="549">2.98323e-12</wgt>
  <wgt id="550">3.05992e-12</wgt>
  <wgt id="551">3.06314e-12</wgt>
  <wgt id="552">3.00825e-12</wgt>
  <wgt id="553">3.02308e-12</wgt>
  <wgt id="554">3.25503e-12</wgt>
  <wgt id="555">3.11192e-12</wgt>
  <wgt id="556">2.94265e-12</wgt>
  <wgt id="557">3.06751e-12</wgt>
  <wgt id="558">2.92637e-12</wgt>
  <wgt id="559">2.99685e-12</wgt>
  <wgt id="560">3.25609e-12</wgt>
  <wgt id="561">2.95211e-12</wgt>
  <wgt id="562">3.05852e-12</wgt>
  <wgt id="563">2.94856e-12</wgt>
  <wgt id="564">3.01494e-12</wgt>
  <wgt id="565">2.93178e-12</wgt>
  <wgt id="566">3.0539e-12</wgt>
  <wgt id="567">2.97797e-12</wgt>
  <wgt id="568">3.03224e-12</wgt>
  <wgt id="569">3.04626e-12</wgt>
  <wgt id="570">2.96722e-12</wgt>
  <wgt id="571">3.34472e-12</wgt>
  <wgt id="572">2.95975e-12</wgt>
  <wgt id="573">2.88964e-12</wgt>
  <wgt id="574">2.92041e-12</wgt>
  <wgt id="575">3.31192e-12</wgt>
  <wgt id="576">3.24572e-12</wgt>
  <wgt id="577">3.4343e-12</wgt>
  <wgt id="578">3.36236e-12</wgt>
  <wgt id="579">3.33282e-12</wgt>
  <wgt id="580">3.35131e-12</wgt>
  <wgt id="581">3.49492e-12</wgt>
  <wgt id="582">3.23408e-12</wgt>
  <wgt id="583">3.34331e-12</wgt>
  <wgt id="584">3.31586e-12</wgt>
  <wgt id="585">3.34793e-12</wgt>
  <wgt id="586">3.23988e-12</wgt>
  <wgt id="587">3.34506e-12</wgt>
  <wgt id="588">3.28744e-12</wgt>
  <wgt id="589">3.33704e-12</wgt>
  <wgt id="590">3.36787e-12</wgt>
  <wgt id="591">3.44399e-12</wgt>
  <wgt id="592">3.26715e-12</wgt>
  <wgt id="593">3.29679e-12</wgt>
  <wgt id="594">3.45512e-12</wgt>
  <wgt id="595">3.28238e-12</wgt>
  <wgt id="596">3.3571e-12</wgt>
  <wgt id="597">3.18093e-12</wgt>
  <wgt id="598">3.30328e-12</wgt>
  <wgt id="599">3.4883e-12</wgt>
  <wgt id="600">3.27615e-12</wgt>
  <wgt id="601">3.21769e-12</wgt>
  <wgt id="602">3.25973e-12</wgt>
  <wgt id="603">3.27631e-12</wgt>
  <wgt id="604">3.35154e-12</wgt>
  <wgt id="605">3.44591e-12</wgt>
  <wgt id="606">3.21983e-12</wgt>
  <wgt id="607">3.25949e-12</wgt>
  <wgt id="608">3.2876e-12</wgt>
  <wgt id="609">3.11037e-12</wgt>
  <wgt id="610">3.18131e-12</wgt>
  <wgt id="611">3.37473e-12</wgt>
  <wgt id="612">3.56126e-12</wgt>
  <wgt id="613">3.32036e-12</wgt>
  <wgt id="614">3.35529e-12</wgt>
  <wgt id="615">3.24254e-12</wgt>
  <wgt id="616">3.54143e-12</wgt>
  <wgt id="617">3.43223e-12</wgt>
  <wgt id="618">3.26669e-12</wgt>
  <wgt id="619">3.29856e-12</wgt>
  <wgt id="620">3.41913e-12</wgt>
  <wgt id="621">3.36684e-12</wgt>
  <wgt id="622">3.34506e-12</wgt>
  <wgt id="623">3.39326e-12</wgt>
  <wgt id="624">3.28782e-12</wgt>
  <wgt id="625">3.27729e-12</wgt>
  <wgt id="626">3.24994e-12</wgt>
  <wgt id="627">3.20142e-12</wgt>
  <wgt id="628">3.49962e-12</wgt>
  <wgt id="629">3.23892e-12</wgt>
  <wgt id="630">3.23415e-12</wgt>
  <wgt id="631">3.30789e-12</wgt>
  <wgt id="632">3.23033e-12</wgt>
  <wgt id="633">3.26605e-12</wgt>
  <wgt id="634">3.34017e-12</wgt>
  <wgt id="635">3.30191e-12</wgt>
  <wgt id="636">3.32868e-12</wgt>
  <wgt id="637">3.32418e-12</wgt>
  <wgt id="638">3.19857e-12</wgt>
  <wgt id="639">3.27989e-12</wgt>
  <wgt id="640">3.32081e-12</wgt>
  <wgt id="641">3.30867e-12</wgt>
  <wgt id="642">3.2845e-12</wgt>
  <wgt id="643">3.30271e-12</wgt>
  <wgt id="644">3.22112e-12</wgt>
  <wgt id="645">3.32949e-12</wgt>
  <wgt id="646">3.39128e-12</wgt>
  <wgt id="647">3.25382e-12</wgt>
  <wgt id="648">3.31931e-12</wgt>
  <wgt id="649">3.36424e-12</wgt>
  <wgt id="650">3.25596e-12</wgt>
  <wgt id="651">3.34383e-12</wgt>
  <wgt id="652">3.31332e-12</wgt>
  <wgt id="653">3.22955e-12</wgt>
  <wgt id="654">3.30621e-12</wgt>
  <wgt id="655">3.23533e-12</wgt>
  <wgt id="656">3.30572e-12</wgt>
  <wgt id="657">3.36231e-12</wgt>
  <wgt id="658">3.38285e-12</wgt>
  <wgt id="659">3.19946e-12</wgt>
  <wgt id="660">3.37552e-12</wgt>
  <wgt id="661">3.2643e-12</wgt>
  <wgt id="662">3.29608e-12</wgt>
  <wgt id="663">3.29745e-12</wgt>
  <wgt id="664">3.25444e-12</wgt>
  <wgt id="665">3.297e-12</wgt>
  <wgt id="666">3.30928e-12</wgt>
  <wgt id="667">3.41114e-12</wgt>
  <wgt id="668">3.29049e-12</wgt>
  <wgt id="669">3.39398e-12</wgt>
  <wgt id="670">3.34031e-12</wgt>
  <wgt id="671">3.25161e-12</wgt>
  <wgt id="672">3.17341e-12</wgt>
  <wgt id="673">3.29014e-12</wgt>
  <wgt id="674">3.24536e-12</wgt>
  <wgt id="675">3.23451e-12</wgt>
  <wgt id="676">4.09895e-12</wgt>
  <wgt id="677">4.1581e-12</wgt>
  <wgt id="678">4.27691e-12</wgt>
  <wgt id="679">3.9137e-12</wgt>
  <wgt id="680">3.94398e-12</wgt>
  <wgt id="681">4.22859e-12</wgt>
  <wgt id="682">4.14662e-12</wgt>
  <wgt id="683">4.07516e-12</wgt>
  <wgt id="684">4.27446e-12</wgt>
  <wgt id="685">3.87739e-12</wgt>
  <wgt id="686">4.14389e-12</wgt>
  <wgt id="687">4.27728e-12</wgt>
  <wgt id="688">4.08406e-12</wgt>
  <wgt id="689">4.39041e-12</wgt>
  <wgt id="690">4.3378e-12</wgt>
  <wgt id="691">4.3188e-12</wgt>
  <wgt id="692">4.09104e-12</wgt>
  <wgt id="693">4.67973e-12</wgt>
  <wgt id="694">4.31985e-12</wgt>
  <wgt id="695">3.96557e-12</wgt>
  <wgt id="696">3.90426e-12</wgt>
  <wgt id="697">3.98032e-12</wgt>
  <wgt id="698">3.87818e-12</wgt>
  <wgt id="699">3.82812e-12</wgt>
  <wgt id="700">3.6685e-12</wgt>
  <wgt id="701">4.10816e-12</wgt>
  <wgt id="702">3.90727e-12</wgt>
  <wgt id="703">4.61446e-12</wgt>
  <wgt id="704">4.3737e-12</wgt>
  <wgt id="705">4.22806e-12</wgt>
  <wgt id="706">3.82455e-12</wgt>
  <wgt id="707">3.95014e-12</wgt>
  <wgt id="708">4.05575e-12</wgt>
  <wgt id="709">4.03619e-12</wgt>
  <wgt id="710">3.6739e-12</wgt>
  <wgt id="711">4.10138e-12</wgt>
  <wgt id="712">4.05819e-12</wgt>
  <wgt id="713">4.36504e-12</wgt>
  <wgt id="714">4.10148e-12</wgt>
  <wgt id="715">4.0598e-12</wgt>
  <wgt id="716">3.95507e-12</wgt>
  <wgt id="717">3.95923e-12</wgt>
  <wgt id="718">4.00823e-12</wgt>
  <wgt id="719">3.76707e-12</wgt>
  <wgt id="720">3.88974e-12</wgt>
  <wgt id="721">3.93006e-12</wgt>
  <wgt id="722">3.74148e-12</wgt>
  <wgt id="723">4.31467e-12</wgt>
  <wgt id="724">4.24814e-12</wgt>
  <wgt id="725">4.33377e-12</wgt>
  <wgt id="726">4.14937e-12</wgt>
  <wgt id="727">4.00573e-12</wgt>
  <wgt id="728">4.07561e-12</wgt>
  <wgt id="729">3.70337e-12</wgt>
  <wgt id="730">4.33861e-12</wgt>
  <wgt id="731">4.06631e-12</wgt>
  <wgt id="732">4.44688e-12</wgt>
  <wgt id="733">4.1075e-12</wgt>
  <wgt id="734">4.19308e-12</wgt>
  <wgt id="735">4.06803e-12</wgt>
  <wgt id="736">4.05906e-12</wgt>
  <wgt id="737">4.16898e-12</wgt>
  <wgt id="738">3.95419e-12</wgt>
  <wgt id="739">4.0654e-12</wgt>
  <wgt id="740">4.51291e-12</wgt>
  <wgt id="741">3.65061e-12</wgt>
  <wgt id="742">4.03935e-12</wgt>
  <wgt id="743">3.99798e-12</wgt>
  <wgt id="744">4.02146e-12</wgt>
  <wgt id="745">4.23999e-12</wgt>
  <wgt id="746">4.28286e-12</wgt>
  <wgt id="747">3.81476e-12</wgt>
  <wgt id="748">4.03012e-12</wgt>
  <wgt id="749">4.33438e-12</wgt>
  <wgt id="750">4.02415e-12</wgt>
  <wgt id="751">4.25617e-12</wgt>
  <wgt id="752">3.80255e-12</wgt>
  <wgt id="753">3.92067e-12</wgt>
  <wgt id="754">4.20604e-12</wgt>
  <wgt id="755">4.13059e-12</wgt>
  <wgt id="756">4.1248e-12</wgt>
  <wgt id="757">3.83319e-12</wgt>
  <wgt id="758">4.16163e-12</wgt>
  <wgt id="759">4.0428e-12</wgt>
  <wgt id="760">4.1862e-12</wgt>
  <wgt id="761">4.31029e-12</wgt>
  <wgt id="762">4.30636e-12</wgt>
  <wgt id="763">4.11545e-12</wgt>
  <wgt id="764">4.23529e-12</wgt>
  <wgt id="765">4.13223e-12</wgt>
  <wgt id="766">4.08175e-12</wgt>
  <wgt id="767">4.18963e-12</wgt>
  <wgt id="768">3.91485e-12</wgt>
  <wgt id="769">4.32297e-12</wgt>
  <wgt id="770">3.97619e-12</wgt>
  <wgt id="771">4.76624e-12</wgt>
  <wgt id="772">3.8575e-12</wgt>
  <wgt id="773">4.08862e-12</wgt>
  <wgt id="774">3.74223e-12</wgt>
  <wgt id="775">4.27877e-12</wgt>
  <wgt id="776">4.47446e-12</wgt>
  <wgt id="777">4.00312e-12</wgt>
  <wgt id="778">3.10484e-12</wgt>
  <wgt id="779">2.69096e-12</wgt>
  <wgt id="780">2.31768e-12</wgt>
  <wgt id="781">3.0581e-12</wgt>
  <wgt id="782">3.28236e-12</wgt>
  <wgt id="783">2.74952e-12</wgt>
  <wgt id="784">2.79488e-12</wgt>
  <wgt id="785">3.68043e-12</wgt>
  <wgt id="786">2.45502e-12</wgt>
  <wgt id="787">3.43688e-12</wgt>
  <wgt id="788">2.15529e-12</wgt>
  <wgt id="789">2.50803e-12</wgt>
  <wgt id="790">2.45783e-12</wgt>
  <wgt id="791">2.86325e-12</wgt>
  <wgt id="792">3.89185e-12</wgt>
  <wgt id="793">2.98156e-12</wgt>
  <wgt id="794">2.52383e-12</wgt>
  <wgt id="795">3.49326e-12</wgt>
  <wgt id="796">3.99327e-12</wgt>
  <wgt id="797">3.48144e-12</wgt>
  <wgt id="798">2.93047e-12</wgt>
  <wgt id="799">3.46264e-12</wgt>
  <wgt id="800">2.54831e-12</wgt>
  <wgt id="801">2.95479e-12</wgt>
  <wgt id="802">2.55048e-12</wgt>
  <wgt id="803">4.00815e-12</wgt>
  <wgt id="804">3.47179e-12</wgt>
  <wgt id="805">3.54395e-12</wgt>
  <wgt id="806">3.52212e-12</wgt>
  <wgt id="807">2.99387e-12</wgt>
  <wgt id="808">3.04544e-12</wgt>
  <wgt id="809">2.87197e-12</wgt>
  <wgt id="810">3.55307e-12</wgt>
  <wgt id="811">3.35992e-12</wgt>
  <wgt id="812">2.50087e-12</wgt>
  <wgt id="813">2.52526e-12</wgt>
  <wgt id="814">2.64137e-12</wgt>
  <wgt id="815">2.70169e-12</wgt>
  <wgt id="816">2.40607e-12</wgt>
  <wgt id="817">3.27992e-12</wgt>
  <wgt id="818">2.98883e-12</wgt>
  <wgt id="819">2.70296e-12</wgt>
  <wgt id="820">3.12315e-12</wgt>
  <wgt id="821">3.48717e-12</wgt>
  <wgt id="822">2.73244e-12</wgt>
  <wgt id="823">3.48281e-12</wgt>
  <wgt id="824">4.09115e-12</wgt>
  <wgt id="825">2.42708e-12</wgt>
  <wgt id="826">3.18847e-12</wgt>
  <wgt id="827">2.06095e-12</wgt>
  <wgt id="828">3.96401e-12</wgt>
  <wgt id="829">3.19154e-12</wgt>
  <wgt id="830">2.31093e-12</wgt>
  <wgt id="831">3.28668e-12</wgt>
  <wgt id="832">4.89263e-12</wgt>
  <wgt id="833">2.97609e-12</wgt>
  <wgt id="834">4.57589e-12</wgt>
  <wgt id="835">2.56516e-12</wgt>
  <wgt id="836">3.15231e-12</wgt>
  <wgt id="837">3.44458e-12</wgt>
  <wgt id="838">3.00011e-12</wgt>
  <wgt id="839">3.27512e-12</wgt>
  <wgt id="840">2.97315e-12</wgt>
  <wgt id="841">3.66245e-12</wgt>
  <wgt id="842">2.87292e-12</wgt>
  <wgt id="843">2.99808e-12</wgt>
  <wgt id="844">3.19422e-12</wgt>
  <wgt id="845">4.09495e-12</wgt>
  <wgt id="846">2.84597e-12</wgt>
  <wgt id="847">3.04463e-12</wgt>
  <wgt id="848">2.80627e-12</wgt>
  <wgt id="849">3.16539e-12</wgt>
  <wgt id="850">3.87765e-12</wgt>
  <wgt id="851">3.35918e-12</wgt>
  <wgt id="852">2.78002e-12</wgt>
  <wgt id="853">3.33126e-12</wgt>
  <wgt id="854">3.67764e-12</wgt>
  <wgt id="855">3.48457e-12</wgt>
  <wgt id="856">2.37085e-12</wgt>
  <wgt id="857">3.15687e-12</wgt>
  <wgt id="858">3.09921e-12</wgt>
  <wgt id="859">2.90158e-12</wgt>
  <wgt id="860">3.2253e-12</wgt>
  <wgt id="861">2.83218e-12</wgt>
  <wgt id="862">3.15199e-12</wgt>
  <wgt id="863">3.22148e-12</wgt>
  <wgt id="864">3.24573e-12</wgt>
  <wgt id="865">4.25524e-12</wgt>
  <wgt id="866">4.64754e-12</wgt>
  <wgt id="867">3.11674e-12</wgt>
  <wgt id="868">3.04803e-12</wgt>
  <wgt id="869">2.51837e-12</wgt>
  <wgt id="870">2.64577e-12</wgt>
  <wgt id="871">2.57636e-12</wgt>
  <wgt id="872">3.5609e-12</wgt>
  <wgt id="873">2.61666e-12</wgt>
  <wgt id="874">3.21565e-12</wgt>
  <wgt id="875">2.73585e-12</wgt>
  <wgt id="876">3.57134e-12</wgt>
  <wgt id="877">3.46956e-12</wgt>
  <wgt id="878">2.77512e-12</wgt>
  <wgt id="879">4.09895e-12</wgt>
  <wgt id="880">4.1581e-12</wgt>
  <wgt id="881">4.27691e-12</wgt>
  <wgt id="882">3.9137e-12</wgt>
  <wgt id="883">3.94398e-12</wgt>
  <wgt id="884">4.22859e-12</wgt>
  <wgt id="885">4.14662e-12</wgt>
  <wgt id="886">4.07516e-12</wgt>
  <wgt id="887">4.27446e-12</wgt>
  <wgt id="888">3.87739e-12</wgt>
  <wgt id="889">4.14389e-12</wgt>
  <wgt id="890">4.27728e-12</wgt>
  <wgt id="891">4.08406e-12</wgt>
  <wgt id="892">4.39041e-12</wgt>
  <wgt id="893">4.3378e-12</wgt>
  <wgt id="894">4.3188e-12</wgt>
  <wgt id="895">4.09104e-12</wgt>
  <wgt id="896">4.67973e-12</wgt>
  <wgt id="897">4.31985e-12</wgt>
  <wgt id="898">3.96557e-12</wgt>
  <wgt id="899">3.90426e-12</wgt>
  <wgt id="900">3.98032e-12</wgt>
  <wgt id="901">3.87818e-12</wgt>
  <wgt id="902">3.82812e-12</wgt>
  <wgt id="903">3.6685e-12</wgt>
  <wgt id="904">4.10816e-12</wgt>
  <wgt id="905">3.90727e-12</wgt>
  <wgt id="906">4.61446e-12</wgt>
  <wgt id="907">4.3737e-12</wgt>
  <wgt id="908">4.22806e-12</wgt>
  <wgt id="909">3.82455e-12</wgt>
  <wgt id="910">3.95014e-12</wgt>
  <wgt id="911">4.05575e-12</wgt>
  <wgt id="912">4.03619e-12</wgt>
  <wgt id="913">3.6739e-12</wgt>
  <wgt id="914">4.10138e-12</wgt>
  <wgt id="915">4.05819e-12</wgt>
  <wgt id="916">4.36504e-12</wgt>
  <wgt id="917">4.10148e-12</wgt>
  <wgt id="918">4.0598e-12</wgt>
  <wgt id="919">3.95507e-12</wgt>
  <wgt id="920">3.95923e-12</wgt>
  <wgt id="921">4.00823e-12</wgt>
  <wgt id="922">3.76707e-12</wgt>
  <wgt id="923">3.88974e-12</wgt>
  <wgt id="924">3.93006e-12</wgt>
  <wgt id="925">3.74148e-12</wgt>
  <wgt id="926">4.31467e-12</wgt>
  <wgt id="927">4.24814e-12</wgt>
  <wgt id="928">4.33377e-12</wgt>
  <wgt id="929">4.14937e-12</wgt>
  <wgt id="930">4.00573e-12</wgt>
  <wgt id="931">4.07561e-12</wgt>
  <wgt id="932">3.70337e-12</wgt>
  <wgt id="933">4.33861e-12</wgt>
  <wgt id="934">4.06631e-12</wgt>
  <wgt id="935">4.44688e-12</wgt>
  <wgt id="936">4.1075e-12</wgt>
  <wgt id="937">4.19308e-12</wgt>
  <wgt id="938">4.06803e-12</wgt>
  <wgt id="939">4.05906e-12</wgt>
  <wgt id="940">4.16898e-12</wgt>
  <wgt id="941">3.95419e-12</wgt>
  <wgt id="942">4.0654e-12</wgt>
  <wgt id="943">4.51291e-12</wgt>
  <wgt id="944">3.65061e-12</wgt>
  <wgt id="945">4.03935e-12</wgt>
  <wgt id="946">3.99798e-12</wgt>
  <wgt id="947">4.02146e-12</wgt>
  <wgt id="948">4.23999e-12</wgt>
  <wgt id="949">4.28286e-12</wgt>
  <wgt id="950">3.81476e-12</wgt>
  <wgt id="951">4.03012e-12</wgt>
  <wgt id="952">4.33438e-12</wgt>
  <wgt id="953">4.02415e-12</wgt>
  <wgt id="954">4.25617e-12</wgt>
  <wgt id="955">3.80255e-12</wgt>
  <wgt id="956">3.92067e-12</wgt>
  <wgt id="957">4.20604e-12</wgt>
  <wgt id="958">4.13059e-12</wgt>
  <wgt id="959">4.1248e-12</wgt>
  <wgt id="960">3.83319e-12</wgt>
  <wgt id="961">4.16163e-12</wgt>
  <wgt id="962">4.0428e-12</wgt>
  <wgt id="963">4.1862e-12</wgt>
  <wgt id="964">4.31029e-12</wgt>
  <wgt id="965">4.30636e-12</wgt>
  <wgt id="966">4.11545e-12</wgt>
  <wgt id="967">4.23529e-12</wgt>
  <wgt id="968">4.13223e-12</wgt>
  <wgt id="969">4.08175e-12</wgt>
  <wgt id="970">4.18963e-12</wgt>
  <wgt id="971">3.91485e-12</wgt>
  <wgt id="972">4.32297e-12</wgt>
  <wgt id="973">3.97619e-12</wgt>
  <wgt id="974">4.76624e-12</wgt>
  <wgt id="975">3.8575e-12</wgt>
  <wgt id="976">4.08862e-12</wgt>
  <wgt id="977">3.74223e-12</wgt>
  <wgt id="978">4.27877e-12</wgt>
  <wgt id="979">4.47446e-12</wgt>
  <wgt id="980">4.1102e-12</wgt>
  <wgt id="981">4.11056e-12</wgt>
  <wgt id="982">3.98933e-12</wgt>
</rwgt>
</event>
<event>
 5   1  0.3028200E-11  0.2459997E+04  0.7818608E-02  0.7657463E-01
       21   -1    0    0  502  501  0.00000000000E+00  0.00000000000E+00  0.15276976764E+04  0.15276976764E+04  0.00000000000E+00 0. -1.
       21   -1    0    0  501  502 -0.00000000000E+00 -0.00000000000E+00 -0.99031096000E+03  0.99031096000E+03  0.00000000000E+00 0.  1.
       39    2    1    2    0    0  0.00000000000E+00  0.00000000000E+00  0.53738671636E+03  0.25180086364E+04  0.24599965467E+04 0.  0.
       25    1    3    3    0    0 -0.26865743621E+03  0.11884121801E+04  0.38436459734E+03  0.12836905669E+04  0.12500000000E+03 0.  0.
       25    1    3    3    0    0  0.26865743621E+03 -0.11884121801E+04  0.15302211902E+03  0.12343180695E+04  0.12500000000E+03 0.  0.
<mgrwt>
<rscale>  0 0.24599965E+04</rscale>
<asrwt>0</asrwt>
<pdfrwt beam="1">  1       21 0.23503041E+00 0.24599965E+04</pdfrwt>
<pdfrwt beam="2">  1       21 0.15235553E+00 0.24599965E+04</pdfrwt>
<totfact> 0.80791857E+00</totfact>
</mgrwt>
<rwgt>
  <wgt id="1">3.0282e-12</wgt>
  <wgt id="2">2.62666e-12</wgt>
  <wgt id="3">3.52864e-12</wgt>
  <wgt id="4">3.0282e-12</wgt>
  <wgt id="5">2.62666e-12</wgt>
  <wgt id="6">3.52864e-12</wgt>
  <wgt id="7">3.0282e-12</wgt>
  <wgt id="8">2.62666e-12</wgt>
  <wgt id="9">3.52864e-12</wgt>
  <wgt id="10">3.15547e-12</wgt>
  <wgt id="11">3.1527e-12</wgt>
  <wgt id="12">3.14933e-12</wgt>
  <wgt id="13">3.14491e-12</wgt>
  <wgt id="14">3.16721e-12</wgt>
  <wgt id="15">3.16055e-12</wgt>
  <wgt id="16">3.14984e-12</wgt>
  <wgt id="17">3.16236e-12</wgt>
  <wgt id="18">3.14878e-12</wgt>
  <wgt id="19">3.16339e-12</wgt>
  <wgt id="20">3.14679e-12</wgt>
  <wgt id="21">3.13481e-12</wgt>
  <wgt id="22">3.1418e-12</wgt>
  <wgt id="23">3.12402e-12</wgt>
  <wgt id="24">3.13991e-12</wgt>
  <wgt id="25">3.14749e-12</wgt>
  <wgt id="26">3.16797e-12</wgt>
  <wgt id="27">3.15481e-12</wgt>
  <wgt id="28">3.14066e-12</wgt>
  <wgt id="29">3.15796e-12</wgt>
  <wgt id="30">3.14578e-12</wgt>
  <wgt id="31">3.16536e-12</wgt>
  <wgt id="32">3.14996e-12</wgt>
  <wgt id="33">3.16365e-12</wgt>
  <wgt id="34">3.1437e-12</wgt>
  <wgt id="35">3.15284e-12</wgt>
  <wgt id="36">3.16763e-12</wgt>
  <wgt id="37">3.14706e-12</wgt>
  <wgt id="38">3.14508e-12</wgt>
  <wgt id="39">3.19076e-12</wgt>
  <wgt id="40">3.16055e-12</wgt>
  <wgt id="41">3.15443e-12</wgt>
  <wgt id="42">3.16035e-12</wgt>
  <wgt id="43">3.15473e-12</wgt>
  <wgt id="44">3.14953e-12</wgt>
  <wgt id="45">3.1637e-12</wgt>
  <wgt id="46">3.15937e-12</wgt>
  <wgt id="47">3.14868e-12</wgt>
  <wgt id="48">3.15628e-12</wgt>
  <wgt id="49">3.1545e-12</wgt>
  <wgt id="50">3.16634e-12</wgt>
  <wgt id="51">3.16536e-12</wgt>
  <wgt id="52">3.15808e-12</wgt>
  <wgt id="53">3.13493e-12</wgt>
  <wgt id="54">3.1503e-12</wgt>
  <wgt id="55">3.15553e-12</wgt>
  <wgt id="56">3.16678e-12</wgt>
  <wgt id="57">3.16327e-12</wgt>
  <wgt id="58">3.13647e-12</wgt>
  <wgt id="59">3.14527e-12</wgt>
  <wgt id="60">3.15565e-12</wgt>
  <wgt id="61">3.14126e-12</wgt>
  <wgt id="62">3.14997e-12</wgt>
  <wgt id="63">3.15506e-12</wgt>
  <wgt id="64">3.15765e-12</wgt>
  <wgt id="65">3.15909e-12</wgt>
  <wgt id="66">3.15107e-12</wgt>
  <wgt id="67">3.14437e-12</wgt>
  <wgt id="68">3.15282e-12</wgt>
  <wgt id="69">3.15553e-12</wgt>
  <wgt id="70">3.15424e-12</wgt>
  <wgt id="71">3.15439e-12</wgt>
  <wgt id="72">3.14877e-12</wgt>
  <wgt id="73">3.15916e-12</wgt>
  <wgt id="74">3.15785e-12</wgt>
  <wgt id="75">3.15228e-12</wgt>
  <wgt id="76">3.16513e-12</wgt>
  <wgt id="77">3.15419e-12</wgt>
  <wgt id="78">3.1549e-12</wgt>
  <wgt id="79">3.16329e-12</wgt>
  <wgt id="80">3.1409e-12</wgt>
  <wgt id="81">3.15303e-12</wgt>
  <wgt id="82">3.15567e-12</wgt>
  <wgt id="83">3.14203e-12</wgt>
  <wgt id="84">3.14981e-12</wgt>
  <wgt id="85">3.14796e-12</wgt>
  <wgt id="86">3.16529e-12</wgt>
  <wgt id="87">3.13693e-12</wgt>
  <wgt id="88">3.15941e-12</wgt>
  <wgt id="89">3.15838e-12</wgt>
  <wgt id="90">3.16257e-12</wgt>
  <wgt id="91">3.15865e-12</wgt>
  <wgt id="92">3.16224e-12</wgt>
  <wgt id="93">3.157e-12</wgt>
  <wgt id="94">3.15211e-12</wgt>
  <wgt id="95">3.1607e-12</wgt>
  <wgt id="96">3.15844e-12</wgt>
  <wgt id="97">3.14905e-12</wgt>
  <wgt id="98">3.15709e-12</wgt>
  <wgt id="99">3.15058e-12</wgt>
  <wgt id="100">3.1599e-12</wgt>
  <wgt id="101">3.15578e-12</wgt>
  <wgt id="102">3.15272e-12</wgt>
  <wgt id="103">3.16052e-12</wgt>
  <wgt id="104">3.15351e-12</wgt>
  <wgt id="105">3.16005e-12</wgt>
  <wgt id="106">3.15026e-12</wgt>
  <wgt id="107">3.16577e-12</wgt>
  <wgt id="108">3.15142e-12</wgt>
  <wgt id="109">3.15663e-12</wgt>
  <wgt id="110">3.15541e-12</wgt>
  <wgt id="111">3.1813e-12</wgt>
  <wgt id="112">3.16205e-12</wgt>
  <wgt id="113">4.34599e-12</wgt>
  <wgt id="114">4.4138e-12</wgt>
  <wgt id="115">4.34951e-12</wgt>
  <wgt id="116">6.20248e-12</wgt>
  <wgt id="117">3.54309e-12</wgt>
  <wgt id="118">3.55637e-12</wgt>
  <wgt id="119">3.53542e-12</wgt>
  <wgt id="120">3.54329e-12</wgt>
  <wgt id="121">3.54296e-12</wgt>
  <wgt id="122">3.53687e-12</wgt>
  <wgt id="123">3.5513e-12</wgt>
  <wgt id="124">3.5381e-12</wgt>
  <wgt id="125">3.54616e-12</wgt>
  <wgt id="126">3.54978e-12</wgt>
  <wgt id="127">3.53863e-12</wgt>
  <wgt id="128">3.5541e-12</wgt>
  <wgt id="129">3.53209e-12</wgt>
  <wgt id="130">3.56366e-12</wgt>
  <wgt id="131">3.52206e-12</wgt>
  <wgt id="132">3.44796e-12</wgt>
  <wgt id="133">3.65603e-12</wgt>
  <wgt id="134">3.50364e-12</wgt>
  <wgt id="135">3.57399e-12</wgt>
  <wgt id="136">3.5914e-12</wgt>
  <wgt id="137">3.48458e-12</wgt>
  <wgt id="138">3.68854e-12</wgt>
  <wgt id="139">3.40313e-12</wgt>
  <wgt id="140">3.52085e-12</wgt>
  <wgt id="141">3.56034e-12</wgt>
  <wgt id="142">3.54335e-12</wgt>
  <wgt id="143">3.54923e-12</wgt>
  <wgt id="144">3.42898e-12</wgt>
  <wgt id="145">3.65039e-12</wgt>
  <wgt id="146">3.57962e-12</wgt>
  <wgt id="147">3.51385e-12</wgt>
  <wgt id="148">3.55471e-12</wgt>
  <wgt id="149">3.5422e-12</wgt>
  <wgt id="150">3.57433e-12</wgt>
  <wgt id="151">3.52853e-12</wgt>
  <wgt id="152">3.54481e-12</wgt>
  <wgt id="153">3.54232e-12</wgt>
  <wgt id="154">3.56724e-12</wgt>
  <wgt id="155">3.51282e-12</wgt>
  <wgt id="156">3.62723e-12</wgt>
  <wgt id="157">3.45897e-12</wgt>
  <wgt id="158">4.25942e-12</wgt>
  <wgt id="159">4.2774e-12</wgt>
  <wgt id="160">4.24523e-12</wgt>
  <wgt id="161">4.24827e-12</wgt>
  <wgt id="162">4.27215e-12</wgt>
  <wgt id="163">4.25439e-12</wgt>
  <wgt id="164">4.2668e-12</wgt>
  <wgt id="165">4.26103e-12</wgt>
  <wgt id="166">4.25814e-12</wgt>
  <wgt id="167">4.25641e-12</wgt>
  <wgt id="168">4.26397e-12</wgt>
  <wgt id="169">4.2414e-12</wgt>
  <wgt id="170">4.27074e-12</wgt>
  <wgt id="171">4.25461e-12</wgt>
  <wgt id="172">4.26625e-12</wgt>
  <wgt id="173">4.25768e-12</wgt>
  <wgt id="174">4.26004e-12</wgt>
  <wgt id="175">4.13558e-12</wgt>
  <wgt id="176">4.42138e-12</wgt>
  <wgt id="177">4.28315e-12</wgt>
  <wgt id="178">4.23791e-12</wgt>
  <wgt id="179">4.45052e-12</wgt>
  <wgt id="180">3.95989e-12</wgt>
  <wgt id="181">4.12846e-12</wgt>
  <wgt id="182">4.34623e-12</wgt>
  <wgt id="183">4.17971e-12</wgt>
  <wgt id="184">4.2991e-12</wgt>
  <wgt id="185">4.22225e-12</wgt>
  <wgt id="186">4.30529e-12</wgt>
  <wgt id="187">4.21897e-12</wgt>
  <wgt id="188">4.33221e-12</wgt>
  <wgt id="189">4.22988e-12</wgt>
  <wgt id="190">4.27149e-12</wgt>
  <wgt id="191">4.27195e-12</wgt>
  <wgt id="192">4.25198e-12</wgt>
  <wgt id="193">4.32426e-12</wgt>
  <wgt id="194">4.2274e-12</wgt>
  <wgt id="195">4.13622e-12</wgt>
  <wgt id="196">4.47038e-12</wgt>
  <wgt id="197">4.28178e-12</wgt>
  <wgt id="198">4.25422e-12</wgt>
  <wgt id="199">4.25942e-12</wgt>
  <wgt id="200">4.29758e-12</wgt>
  <wgt id="201">4.28394e-12</wgt>
  <wgt id="202">4.27061e-12</wgt>
  <wgt id="203">4.2506e-12</wgt>
  <wgt id="204">4.24109e-12</wgt>
  <wgt id="205">4.23331e-12</wgt>
  <wgt id="206">4.12362e-12</wgt>
  <wgt id="207">4.14802e-12</wgt>
  <wgt id="208">4.09968e-12</wgt>
  <wgt id="209">4.13762e-12</wgt>
  <wgt id="210">4.11378e-12</wgt>
  <wgt id="211">4.12207e-12</wgt>
  <wgt id="212">4.12499e-12</wgt>
  <wgt id="213">4.12345e-12</wgt>
  <wgt id="214">4.12428e-12</wgt>
  <wgt id="215">4.1271e-12</wgt>
  <wgt id="216">4.12138e-12</wgt>
  <wgt id="217">4.13564e-12</wgt>
  <wgt id="218">4.1145e-12</wgt>
  <wgt id="219">4.12021e-12</wgt>
  <wgt id="220">4.12603e-12</wgt>
  <wgt id="221">4.12257e-12</wgt>
  <wgt id="222">4.12674e-12</wgt>
  <wgt id="223">3.89787e-12</wgt>
  <wgt id="224">4.33001e-12</wgt>
  <wgt id="225">4.07214e-12</wgt>
  <wgt id="226">4.18889e-12</wgt>
  <wgt id="227">4.08372e-12</wgt>
  <wgt id="228">4.14132e-12</wgt>
  <wgt id="229">4.06494e-12</wgt>
  <wgt id="230">4.15309e-12</wgt>
  <wgt id="231">4.24769e-12</wgt>
  <wgt id="232">4.0222e-12</wgt>
  <wgt id="233">4.10112e-12</wgt>
  <wgt id="234">4.16051e-12</wgt>
  <wgt id="235">4.01952e-12</wgt>
  <wgt id="236">4.21578e-12</wgt>
  <wgt id="237">4.05668e-12</wgt>
  <wgt id="238">4.1464e-12</wgt>
  <wgt id="239">4.09544e-12</wgt>
  <wgt id="240">4.17496e-12</wgt>
  <wgt id="241">4.07925e-12</wgt>
  <wgt id="242">4.17744e-12</wgt>
  <wgt id="243">4.18415e-12</wgt>
  <wgt id="244">4.13947e-12</wgt>
  <wgt id="245">4.12138e-12</wgt>
  <wgt id="246">4.1523e-12</wgt>
  <wgt id="247">4.12362e-12</wgt>
  <wgt id="248">4.16137e-12</wgt>
  <wgt id="249">4.14726e-12</wgt>
  <wgt id="250">4.13384e-12</wgt>
  <wgt id="251">4.11422e-12</wgt>
  <wgt id="252">4.10474e-12</wgt>
  <wgt id="253">4.09824e-12</wgt>
  <wgt id="254">4.03253e-12</wgt>
  <wgt id="255">4.03643e-12</wgt>
  <wgt id="256">4.02838e-12</wgt>
  <wgt id="257">4.03551e-12</wgt>
  <wgt id="258">4.03046e-12</wgt>
  <wgt id="259">4.05961e-12</wgt>
  <wgt id="260">4.00649e-12</wgt>
  <wgt id="261">4.03929e-12</wgt>
  <wgt id="262">4.02437e-12</wgt>
  <wgt id="263">4.03026e-12</wgt>
  <wgt id="264">4.03504e-12</wgt>
  <wgt id="265">4.0275e-12</wgt>
  <wgt id="266">4.04272e-12</wgt>
  <wgt id="267">4.03382e-12</wgt>
  <wgt id="268">4.03056e-12</wgt>
  <wgt id="269">4.04624e-12</wgt>
  <wgt id="270">4.02321e-12</wgt>
  <wgt id="271">4.02519e-12</wgt>
  <wgt id="272">4.04085e-12</wgt>
  <wgt id="273">4.0199e-12</wgt>
  <wgt id="274">4.0422e-12</wgt>
  <wgt id="275">4.01418e-12</wgt>
  <wgt id="276">4.0515e-12</wgt>
  <wgt id="277">4.00885e-12</wgt>
  <wgt id="278">4.05426e-12</wgt>
  <wgt id="279">3.95288e-12</wgt>
  <wgt id="280">4.13262e-12</wgt>
  <wgt id="281">4.01398e-12</wgt>
  <wgt id="282">4.03424e-12</wgt>
  <wgt id="283">3.91169e-12</wgt>
  <wgt id="284">4.18163e-12</wgt>
  <wgt id="285">3.83297e-12</wgt>
  <wgt id="286">4.1983e-12</wgt>
  <wgt id="287">4.04577e-12</wgt>
  <wgt id="288">4.01578e-12</wgt>
  <wgt id="289">4.06216e-12</wgt>
  <wgt id="290">3.96455e-12</wgt>
  <wgt id="291">4.02022e-12</wgt>
  <wgt id="292">4.03509e-12</wgt>
  <wgt id="293">4.00016e-12</wgt>
  <wgt id="294">4.06474e-12</wgt>
  <wgt id="295">3.95356e-12</wgt>
  <wgt id="296">4.12898e-12</wgt>
  <wgt id="297">4.03003e-12</wgt>
  <wgt id="298">4.04957e-12</wgt>
  <wgt id="299">4.01907e-12</wgt>
  <wgt id="300">4.06839e-12</wgt>
  <wgt id="301">3.96745e-12</wgt>
  <wgt id="302">4.18999e-12</wgt>
  <wgt id="303">3.99773e-12</wgt>
  <wgt id="304">4.05236e-12</wgt>
  <wgt id="305">4.03626e-12</wgt>
  <wgt id="306">4.04039e-12</wgt>
  <wgt id="307">4.03177e-12</wgt>
  <wgt id="308">4.03961e-12</wgt>
  <wgt id="309">4.03407e-12</wgt>
  <wgt id="310">4.06436e-12</wgt>
  <wgt id="311">4.01017e-12</wgt>
  <wgt id="312">4.04194e-12</wgt>
  <wgt id="313">4.03033e-12</wgt>
  <wgt id="314">4.03397e-12</wgt>
  <wgt id="315">4.03828e-12</wgt>
  <wgt id="316">4.03135e-12</wgt>
  <wgt id="317">4.04689e-12</wgt>
  <wgt id="318">4.03939e-12</wgt>
  <wgt id="319">4.03075e-12</wgt>
  <wgt id="320">4.05081e-12</wgt>
  <wgt id="321">4.02817e-12</wgt>
  <wgt id="322">4.02693e-12</wgt>
  <wgt id="323">4.047e-12</wgt>
  <wgt id="324">4.02567e-12</wgt>
  <wgt id="325">4.04538e-12</wgt>
  <wgt id="326">4.02145e-12</wgt>
  <wgt id="327">4.05525e-12</wgt>
  <wgt id="328">4.01505e-12</wgt>
  <wgt id="329">4.04805e-12</wgt>
  <wgt id="330">4.15797e-12</wgt>
  <wgt id="331">3.9204e-12</wgt>
  <wgt id="332">4.02063e-12</wgt>
  <wgt id="333">4.03698e-12</wgt>
  <wgt id="334">3.94179e-12</wgt>
  <wgt id="335">4.15372e-12</wgt>
  <wgt id="336">3.89177e-12</wgt>
  <wgt id="337">4.21282e-12</wgt>
  <wgt id="338">4.08268e-12</wgt>
  <wgt id="339">3.99325e-12</wgt>
  <wgt id="340">4.06382e-12</wgt>
  <wgt id="341">3.96554e-12</wgt>
  <wgt id="342">4.02743e-12</wgt>
  <wgt id="343">4.03177e-12</wgt>
  <wgt id="344">4.00701e-12</wgt>
  <wgt id="345">4.07006e-12</wgt>
  <wgt id="346">3.95427e-12</wgt>
  <wgt id="347">4.13056e-12</wgt>
  <wgt id="348">4.03514e-12</wgt>
  <wgt id="349">4.05092e-12</wgt>
  <wgt id="350">4.0193e-12</wgt>
  <wgt id="351">4.07911e-12</wgt>
  <wgt id="352">3.96519e-12</wgt>
  <wgt id="353">4.19877e-12</wgt>
  <wgt id="354">3.98365e-12</wgt>
  <wgt id="355">4.06804e-12</wgt>
  <wgt id="356">4.03253e-12</wgt>
  <wgt id="357">4.0504e-12</wgt>
  <wgt id="358">4.03626e-12</wgt>
  <wgt id="359">4.04418e-12</wgt>
  <wgt id="360">4.06794e-12</wgt>
  <wgt id="361">4.04707e-12</wgt>
  <wgt id="362">4.12087e-12</wgt>
  <wgt id="363">4.11067e-12</wgt>
  <wgt id="364">4.09506e-12</wgt>
  <wgt id="365">4.08062e-12</wgt>
  <wgt id="366">4.06472e-12</wgt>
  <wgt id="367">4.03275e-12</wgt>
  <wgt id="368">4.01463e-12</wgt>
  <wgt id="369">3.99507e-12</wgt>
  <wgt id="370">4.04707e-12</wgt>
  <wgt id="371">4.06529e-12</wgt>
  <wgt id="372">4.05536e-12</wgt>
  <wgt id="373">4.04041e-12</wgt>
  <wgt id="374">4.04031e-12</wgt>
  <wgt id="375">4.37003e-12</wgt>
  <wgt id="376">4.37065e-12</wgt>
  <wgt id="377">4.3692e-12</wgt>
  <wgt id="378">4.38625e-12</wgt>
  <wgt id="379">4.3541e-12</wgt>
  <wgt id="380">4.3817e-12</wgt>
  <wgt id="381">4.36552e-12</wgt>
  <wgt id="382">4.39363e-12</wgt>
  <wgt id="383">4.34675e-12</wgt>
  <wgt id="384">4.37299e-12</wgt>
  <wgt id="385">4.36718e-12</wgt>
  <wgt id="386">4.38817e-12</wgt>
  <wgt id="387">4.36236e-12</wgt>
  <wgt id="388">4.36573e-12</wgt>
  <wgt id="389">4.37533e-12</wgt>
  <wgt id="390">4.38218e-12</wgt>
  <wgt id="391">4.35744e-12</wgt>
  <wgt id="392">4.33388e-12</wgt>
  <wgt id="393">4.39082e-12</wgt>
  <wgt id="394">4.37601e-12</wgt>
  <wgt id="395">4.36218e-12</wgt>
  <wgt id="396">4.37444e-12</wgt>
  <wgt id="397">4.3671e-12</wgt>
  <wgt id="398">4.35129e-12</wgt>
  <wgt id="399">4.38834e-12</wgt>
  <wgt id="400">4.36246e-12</wgt>
  <wgt id="401">4.38757e-12</wgt>
  <wgt id="402">4.33246e-12</wgt>
  <wgt id="403">4.38799e-12</wgt>
  <wgt id="404">4.47739e-12</wgt>
  <wgt id="405">4.11199e-12</wgt>
  <wgt id="406">4.29314e-12</wgt>
  <wgt id="407">4.5379e-12</wgt>
  <wgt id="408">4.40975e-12</wgt>
  <wgt id="409">4.29473e-12</wgt>
  <wgt id="410">4.24441e-12</wgt>
  <wgt id="411">4.42881e-12</wgt>
  <wgt id="412">4.3618e-12</wgt>
  <wgt id="413">4.38279e-12</wgt>
  <wgt id="414">4.31987e-12</wgt>
  <wgt id="415">4.40922e-12</wgt>
  <wgt id="416">4.49493e-12</wgt>
  <wgt id="417">4.1979e-12</wgt>
  <wgt id="418">4.37637e-12</wgt>
  <wgt id="419">4.33584e-12</wgt>
  <wgt id="420">4.44728e-12</wgt>
  <wgt id="421">4.3237e-12</wgt>
  <wgt id="422">4.35856e-12</wgt>
  <wgt id="423">4.37629e-12</wgt>
  <wgt id="424">4.47002e-12</wgt>
  <wgt id="425">4.30596e-12</wgt>
  <wgt id="426">4.37003e-12</wgt>
  <wgt id="427">4.32261e-12</wgt>
  <wgt id="428">4.50198e-12</wgt>
  <wgt id="429">4.41441e-12</wgt>
  <wgt id="430">4.54372e-12</wgt>
  <wgt id="431">4.5178e-12</wgt>
  <wgt id="432">4.49351e-12</wgt>
  <wgt id="433">4.46998e-12</wgt>
  <wgt id="434">4.4411e-12</wgt>
  <wgt id="435">4.38141e-12</wgt>
  <wgt id="436">4.35107e-12</wgt>
  <wgt id="437">4.32177e-12</wgt>
  <wgt id="438">4.41441e-12</wgt>
  <wgt id="439">4.42891e-12</wgt>
  <wgt id="440">4.42029e-12</wgt>
  <wgt id="441">4.41004e-12</wgt>
  <wgt id="442">4.40659e-12</wgt>
  <wgt id="443">4.22898e-12</wgt>
  <wgt id="444">4.25673e-12</wgt>
  <wgt id="445">4.21755e-12</wgt>
  <wgt id="446">4.20062e-12</wgt>
  <wgt id="447">4.21579e-12</wgt>
  <wgt id="448">4.1143e-12</wgt>
  <wgt id="449">4.2988e-12</wgt>
  <wgt id="450">4.22265e-12</wgt>
  <wgt id="451">4.22091e-12</wgt>
  <wgt id="452">4.32847e-12</wgt>
  <wgt id="453">4.27284e-12</wgt>
  <wgt id="454">4.05102e-12</wgt>
  <wgt id="455">4.23769e-12</wgt>
  <wgt id="456">4.21105e-12</wgt>
  <wgt id="457">4.24723e-12</wgt>
  <wgt id="458">4.28206e-12</wgt>
  <wgt id="459">4.25981e-12</wgt>
  <wgt id="460">4.25986e-12</wgt>
  <wgt id="461">4.1434e-12</wgt>
  <wgt id="462">4.19238e-12</wgt>
  <wgt id="463">4.17794e-12</wgt>
  <wgt id="464">4.20367e-12</wgt>
  <wgt id="465">4.27678e-12</wgt>
  <wgt id="466">4.17233e-12</wgt>
  <wgt id="467">4.18606e-12</wgt>
  <wgt id="468">4.21735e-12</wgt>
  <wgt id="469">4.21628e-12</wgt>
  <wgt id="470">4.18669e-12</wgt>
  <wgt id="471">4.18764e-12</wgt>
  <wgt id="472">4.25066e-12</wgt>
  <wgt id="473">4.08326e-12</wgt>
  <wgt id="474">3.0282e-12</wgt>
  <wgt id="475">3.17982e-12</wgt>
  <wgt id="476">2.96619e-12</wgt>
  <wgt id="477">2.92755e-12</wgt>
  <wgt id="478">3.04581e-12</wgt>
  <wgt id="479">2.95535e-12</wgt>
  <wgt id="480">3.15174e-12</wgt>
  <wgt id="481">2.98956e-12</wgt>
  <wgt id="482">2.94056e-12</wgt>
  <wgt id="483">2.95195e-12</wgt>
  <wgt id="484">3.18863e-12</wgt>
  <wgt id="485">2.99194e-12</wgt>
  <wgt id="486">3.13691e-12</wgt>
  <wgt id="487">3.07717e-12</wgt>
  <wgt id="488">3.07912e-12</wgt>
  <wgt id="489">2.90478e-12</wgt>
  <wgt id="490">2.91329e-12</wgt>
  <wgt id="491">2.99822e-12</wgt>
  <wgt id="492">2.94674e-12</wgt>
  <wgt id="493">2.90204e-12</wgt>
  <wgt id="494">2.92829e-12</wgt>
  <wgt id="495">3.08701e-12</wgt>
  <wgt id="496">2.92849e-12</wgt>
  <wgt id="497">2.89766e-12</wgt>
  <wgt id="498">3.08895e-12</wgt>
  <wgt id="499">2.96949e-12</wgt>
  <wgt id="500">2.9763e-12</wgt>
  <wgt id="501">3.17084e-12</wgt>
  <wgt id="502">2.97916e-12</wgt>
  <wgt id="503">3.02661e-12</wgt>
  <wgt id="504">3.07663e-12</wgt>
  <wgt id="505">3.01886e-12</wgt>
  <wgt id="506">3.05386e-12</wgt>
  <wgt id="507">3.01319e-12</wgt>
  <wgt id="508">3.0927e-12</wgt>
  <wgt id="509">2.89688e-12</wgt>
  <wgt id="510">3.11551e-12</wgt>
  <wgt id="511">2.95758e-12</wgt>
  <wgt id="512">3.10111e-12</wgt>
  <wgt id="513">3.1735e-12</wgt>
  <wgt id="514">3.03314e-12</wgt>
  <wgt id="515">3.00013e-12</wgt>
  <wgt id="516">3.15072e-12</wgt>
  <wgt id="517">3.09341e-12</wgt>
  <wgt id="518">3.10081e-12</wgt>
  <wgt id="519">2.93142e-12</wgt>
  <wgt id="520">3.07582e-12</wgt>
  <wgt id="521">3.1137e-12</wgt>
  <wgt id="522">3.15368e-12</wgt>
  <wgt id="523">3.06558e-12</wgt>
  <wgt id="524">3.05245e-12</wgt>
  <wgt id="525">3.12427e-12</wgt>
  <wgt id="526">3.06398e-12</wgt>
  <wgt id="527">3.06034e-12</wgt>
  <wgt id="528">3.0528e-12</wgt>
  <wgt id="529">2.96873e-12</wgt>
  <wgt id="530">3.08425e-12</wgt>
  <wgt id="531">2.98812e-12</wgt>
  <wgt id="532">3.21871e-12</wgt>
  <wgt id="533">2.87011e-12</wgt>
  <wgt id="534">3.03238e-12</wgt>
  <wgt id="535">3.07198e-12</wgt>
  <wgt id="536">3.01044e-12</wgt>
  <wgt id="537">3.02346e-12</wgt>
  <wgt id="538">3.05281e-12</wgt>
  <wgt id="539">2.97468e-12</wgt>
  <wgt id="540">2.98577e-12</wgt>
  <wgt id="541">2.92911e-12</wgt>
  <wgt id="542">2.98854e-12</wgt>
  <wgt id="543">3.01463e-12</wgt>
  <wgt id="544">3.16646e-12</wgt>
  <wgt id="545">2.97704e-12</wgt>
  <wgt id="546">2.9626e-12</wgt>
  <wgt id="547">2.93997e-12</wgt>
  <wgt id="548">2.90513e-12</wgt>
  <wgt id="549">2.97268e-12</wgt>
  <wgt id="550">2.97474e-12</wgt>
  <wgt id="551">3.05977e-12</wgt>
  <wgt id="552">2.96692e-12</wgt>
  <wgt id="553">3.00267e-12</wgt>
  <wgt id="554">3.24591e-12</wgt>
  <wgt id="555">3.105e-12</wgt>
  <wgt id="556">2.91329e-12</wgt>
  <wgt id="557">3.09179e-12</wgt>
  <wgt id="558">2.9417e-12</wgt>
  <wgt id="559">2.97525e-12</wgt>
  <wgt id="560">3.30812e-12</wgt>
  <wgt id="561">2.98798e-12</wgt>
  <wgt id="562">3.09537e-12</wgt>
  <wgt id="563">2.98542e-12</wgt>
  <wgt id="564">3.06198e-12</wgt>
  <wgt id="565">2.9291e-12</wgt>
  <wgt id="566">3.07444e-12</wgt>
  <wgt id="567">2.99449e-12</wgt>
  <wgt id="568">3.00537e-12</wgt>
  <wgt id="569">3.08651e-12</wgt>
  <wgt id="570">2.90955e-12</wgt>
  <wgt id="571">3.36141e-12</wgt>
  <wgt id="572">2.95886e-12</wgt>
  <wgt id="573">2.90498e-12</wgt>
  <wgt id="574">2.92545e-12</wgt>
  <wgt id="575">3.34825e-12</wgt>
  <wgt id="576">3.36934e-12</wgt>
  <wgt id="577">3.43031e-12</wgt>
  <wgt id="578">3.44843e-12</wgt>
  <wgt id="579">3.42812e-12</wgt>
  <wgt id="580">3.44278e-12</wgt>
  <wgt id="581">3.59243e-12</wgt>
  <wgt id="582">3.35865e-12</wgt>
  <wgt id="583">3.38624e-12</wgt>
  <wgt id="584">3.34684e-12</wgt>
  <wgt id="585">3.32822e-12</wgt>
  <wgt id="586">3.25585e-12</wgt>
  <wgt id="587">3.40116e-12</wgt>
  <wgt id="588">3.35918e-12</wgt>
  <wgt id="589">3.45199e-12</wgt>
  <wgt id="590">3.38982e-12</wgt>
  <wgt id="591">3.46794e-12</wgt>
  <wgt id="592">3.22625e-12</wgt>
  <wgt id="593">3.32435e-12</wgt>
  <wgt id="594">3.41665e-12</wgt>
  <wgt id="595">3.35755e-12</wgt>
  <wgt id="596">3.41909e-12</wgt>
  <wgt id="597">3.2755e-12</wgt>
  <wgt id="598">3.22199e-12</wgt>
  <wgt id="599">3.51476e-12</wgt>
  <wgt id="600">3.33704e-12</wgt>
  <wgt id="601">3.24925e-12</wgt>
  <wgt id="602">3.25966e-12</wgt>
  <wgt id="603">3.26074e-12</wgt>
  <wgt id="604">3.4023e-12</wgt>
  <wgt id="605">3.4733e-12</wgt>
  <wgt id="606">3.30228e-12</wgt>
  <wgt id="607">3.33046e-12</wgt>
  <wgt id="608">3.40244e-12</wgt>
  <wgt id="609">3.19061e-12</wgt>
  <wgt id="610">3.22636e-12</wgt>
  <wgt id="611">3.35109e-12</wgt>
  <wgt id="612">3.57706e-12</wgt>
  <wgt id="613">3.31507e-12</wgt>
  <wgt id="614">3.38232e-12</wgt>
  <wgt id="615">3.29307e-12</wgt>
  <wgt id="616">3.48858e-12</wgt>
  <wgt id="617">3.48045e-12</wgt>
  <wgt id="618">3.4909e-12</wgt>
  <wgt id="619">3.29703e-12</wgt>
  <wgt id="620">3.49935e-12</wgt>
  <wgt id="621">3.37574e-12</wgt>
  <wgt id="622">3.40116e-12</wgt>
  <wgt id="623">3.4389e-12</wgt>
  <wgt id="624">3.3499e-12</wgt>
  <wgt id="625">3.29187e-12</wgt>
  <wgt id="626">3.23238e-12</wgt>
  <wgt id="627">3.18974e-12</wgt>
  <wgt id="628">3.52242e-12</wgt>
  <wgt id="629">3.28219e-12</wgt>
  <wgt id="630">3.22983e-12</wgt>
  <wgt id="631">3.37659e-12</wgt>
  <wgt id="632">3.19454e-12</wgt>
  <wgt id="633">3.318e-12</wgt>
  <wgt id="634">3.31235e-12</wgt>
  <wgt id="635">3.22634e-12</wgt>
  <wgt id="636">3.37454e-12</wgt>
  <wgt id="637">3.33874e-12</wgt>
  <wgt id="638">3.21573e-12</wgt>
  <wgt id="639">3.28946e-12</wgt>
  <wgt id="640">3.33999e-12</wgt>
  <wgt id="641">3.39521e-12</wgt>
  <wgt id="642">3.24406e-12</wgt>
  <wgt id="643">3.31872e-12</wgt>
  <wgt id="644">3.16032e-12</wgt>
  <wgt id="645">3.3775e-12</wgt>
  <wgt id="646">3.34965e-12</wgt>
  <wgt id="647">3.31529e-12</wgt>
  <wgt id="648">3.38623e-12</wgt>
  <wgt id="649">3.39265e-12</wgt>
  <wgt id="650">3.26689e-12</wgt>
  <wgt id="651">3.39231e-12</wgt>
  <wgt id="652">3.30367e-12</wgt>
  <wgt id="653">3.2477e-12</wgt>
  <wgt id="654">3.31919e-12</wgt>
  <wgt id="655">3.2942e-12</wgt>
  <wgt id="656">3.37243e-12</wgt>
  <wgt id="657">3.51652e-12</wgt>
  <wgt id="658">3.35297e-12</wgt>
  <wgt id="659">3.21375e-12</wgt>
  <wgt id="660">3.39429e-12</wgt>
  <wgt id="661">3.28863e-12</wgt>
  <wgt id="662">3.33892e-12</wgt>
  <wgt id="663">3.35909e-12</wgt>
  <wgt id="664">3.31019e-12</wgt>
  <wgt id="665">3.33853e-12</wgt>
  <wgt id="666">3.30824e-12</wgt>
  <wgt id="667">3.46349e-12</wgt>
  <wgt id="668">3.34597e-12</wgt>
  <wgt id="669">3.41979e-12</wgt>
  <wgt id="670">3.43815e-12</wgt>
  <wgt id="671">3.33219e-12</wgt>
  <wgt id="672">3.20774e-12</wgt>
  <wgt id="673">3.38725e-12</wgt>
  <wgt id="674">3.27991e-12</wgt>
  <wgt id="675">3.30265e-12</wgt>
  <wgt id="676">4.26684e-12</wgt>
  <wgt id="677">4.3113e-12</wgt>
  <wgt id="678">4.49938e-12</wgt>
  <wgt id="679">4.00445e-12</wgt>
  <wgt id="680">4.19972e-12</wgt>
  <wgt id="681">4.32666e-12</wgt>
  <wgt id="682">4.41941e-12</wgt>
  <wgt id="683">4.17677e-12</wgt>
  <wgt id="684">4.46482e-12</wgt>
  <wgt id="685">4.07205e-12</wgt>
  <wgt id="686">4.14568e-12</wgt>
  <wgt id="687">4.48212e-12</wgt>
  <wgt id="688">4.22542e-12</wgt>
  <wgt id="689">4.60786e-12</wgt>
  <wgt id="690">4.46242e-12</wgt>
  <wgt id="691">4.50725e-12</wgt>
  <wgt id="692">4.20541e-12</wgt>
  <wgt id="693">5.11445e-12</wgt>
  <wgt id="694">4.54849e-12</wgt>
  <wgt id="695">4.12384e-12</wgt>
  <wgt id="696">4.04488e-12</wgt>
  <wgt id="697">4.11051e-12</wgt>
  <wgt id="698">3.84094e-12</wgt>
  <wgt id="699">3.82566e-12</wgt>
  <wgt id="700">3.70387e-12</wgt>
  <wgt id="701">4.28167e-12</wgt>
  <wgt id="702">4.15266e-12</wgt>
  <wgt id="703">4.96287e-12</wgt>
  <wgt id="704">4.71016e-12</wgt>
  <wgt id="705">4.52092e-12</wgt>
  <wgt id="706">3.9824e-12</wgt>
  <wgt id="707">4.08132e-12</wgt>
  <wgt id="708">4.19919e-12</wgt>
  <wgt id="709">4.18446e-12</wgt>
  <wgt id="710">3.8351e-12</wgt>
  <wgt id="711">4.25011e-12</wgt>
  <wgt id="712">4.16054e-12</wgt>
  <wgt id="713">4.62807e-12</wgt>
  <wgt id="714">4.14021e-12</wgt>
  <wgt id="715">4.20442e-12</wgt>
  <wgt id="716">4.10642e-12</wgt>
  <wgt id="717">4.0104e-12</wgt>
  <wgt id="718">4.28799e-12</wgt>
  <wgt id="719">3.85869e-12</wgt>
  <wgt id="720">4.04508e-12</wgt>
  <wgt id="721">3.84589e-12</wgt>
  <wgt id="722">3.71086e-12</wgt>
  <wgt id="723">4.5925e-12</wgt>
  <wgt id="724">4.49937e-12</wgt>
  <wgt id="725">4.49591e-12</wgt>
  <wgt id="726">4.29796e-12</wgt>
  <wgt id="727">4.18005e-12</wgt>
  <wgt id="728">4.14863e-12</wgt>
  <wgt id="729">3.96818e-12</wgt>
  <wgt id="730">4.64841e-12</wgt>
  <wgt id="731">4.20507e-12</wgt>
  <wgt id="732">4.73842e-12</wgt>
  <wgt id="733">4.21917e-12</wgt>
  <wgt id="734">4.37756e-12</wgt>
  <wgt id="735">4.26246e-12</wgt>
  <wgt id="736">4.1478e-12</wgt>
  <wgt id="737">4.31518e-12</wgt>
  <wgt id="738">4.03817e-12</wgt>
  <wgt id="739">4.40337e-12</wgt>
  <wgt id="740">4.78528e-12</wgt>
  <wgt id="741">3.85798e-12</wgt>
  <wgt id="742">4.20498e-12</wgt>
  <wgt id="743">4.0245e-12</wgt>
  <wgt id="744">4.17973e-12</wgt>
  <wgt id="745">4.49753e-12</wgt>
  <wgt id="746">4.58801e-12</wgt>
  <wgt id="747">3.79681e-12</wgt>
  <wgt id="748">4.20756e-12</wgt>
  <wgt id="749">4.47806e-12</wgt>
  <wgt id="750">4.41199e-12</wgt>
  <wgt id="751">4.38049e-12</wgt>
  <wgt id="752">3.88954e-12</wgt>
  <wgt id="753">4.01953e-12</wgt>
  <wgt id="754">4.47862e-12</wgt>
  <wgt id="755">4.26627e-12</wgt>
  <wgt id="756">4.27566e-12</wgt>
  <wgt id="757">3.88442e-12</wgt>
  <wgt id="758">4.27799e-12</wgt>
  <wgt id="759">4.4482e-12</wgt>
  <wgt id="760">4.28328e-12</wgt>
  <wgt id="761">4.52081e-12</wgt>
  <wgt id="762">4.55679e-12</wgt>
  <wgt id="763">4.2466e-12</wgt>
  <wgt id="764">4.45793e-12</wgt>
  <wgt id="765">4.34112e-12</wgt>
  <wgt id="766">4.26973e-12</wgt>
  <wgt id="767">4.37796e-12</wgt>
  <wgt id="768">3.9954e-12</wgt>
  <wgt id="769">4.53557e-12</wgt>
  <wgt id="770">4.13628e-12</wgt>
  <wgt id="771">5.09649e-12</wgt>
  <wgt id="772">4.04756e-12</wgt>
  <wgt id="773">4.22929e-12</wgt>
  <wgt id="774">3.69999e-12</wgt>
  <wgt id="775">4.50478e-12</wgt>
  <wgt id="776">4.68474e-12</wgt>
  <wgt id="777">3.99537e-12</wgt>
  <wgt id="778">3.07781e-12</wgt>
  <wgt id="779">2.4405e-12</wgt>
  <wgt id="780">1.88668e-12</wgt>
  <wgt id="781">3.31142e-12</wgt>
  <wgt id="782">3.32035e-12</wgt>
  <wgt id="783">2.44464e-12</wgt>
  <wgt id="784">2.60307e-12</wgt>
  <wgt id="785">3.8945e-12</wgt>
  <wgt id="786">2.2868e-12</wgt>
  <wgt id="787">3.59692e-12</wgt>
  <wgt id="788">1.72242e-12</wgt>
  <wgt id="789">2.42805e-12</wgt>
  <wgt id="790">2.24349e-12</wgt>
  <wgt id="791">2.97826e-12</wgt>
  <wgt id="792">4.05874e-12</wgt>
  <wgt id="793">3.02047e-12</wgt>
  <wgt id="794">2.21046e-12</wgt>
  <wgt id="795">3.74375e-12</wgt>
  <wgt id="796">4.11781e-12</wgt>
  <wgt id="797">3.69031e-12</wgt>
  <wgt id="798">2.74986e-12</wgt>
  <wgt id="799">3.57356e-12</wgt>
  <wgt id="800">2.47496e-12</wgt>
  <wgt id="801">2.83763e-12</wgt>
  <wgt id="802">2.20649e-12</wgt>
  <wgt id="803">4.24797e-12</wgt>
  <wgt id="804">3.71332e-12</wgt>
  <wgt id="805">3.76009e-12</wgt>
  <wgt id="806">3.40255e-12</wgt>
  <wgt id="807">2.91645e-12</wgt>
  <wgt id="808">2.97164e-12</wgt>
  <wgt id="809">2.82211e-12</wgt>
  <wgt id="810">3.47202e-12</wgt>
  <wgt id="811">3.36179e-12</wgt>
  <wgt id="812">2.21701e-12</wgt>
  <wgt id="813">2.31269e-12</wgt>
  <wgt id="814">2.56695e-12</wgt>
  <wgt id="815">2.43498e-12</wgt>
  <wgt id="816">2.1704e-12</wgt>
  <wgt id="817">3.20254e-12</wgt>
  <wgt id="818">3.19802e-12</wgt>
  <wgt id="819">2.43327e-12</wgt>
  <wgt id="820">3.05589e-12</wgt>
  <wgt id="821">3.60891e-12</wgt>
  <wgt id="822">2.46245e-12</wgt>
  <wgt id="823">3.65843e-12</wgt>
  <wgt id="824">4.26613e-12</wgt>
  <wgt id="825">2.13416e-12</wgt>
  <wgt id="826">3.3603e-12</wgt>
  <wgt id="827">1.74056e-12</wgt>
  <wgt id="828">3.95096e-12</wgt>
  <wgt id="829">3.21733e-12</wgt>
  <wgt id="830">2.01508e-12</wgt>
  <wgt id="831">3.37708e-12</wgt>
  <wgt id="832">5.20104e-12</wgt>
  <wgt id="833">2.77823e-12</wgt>
  <wgt id="834">4.88961e-12</wgt>
  <wgt id="835">2.43991e-12</wgt>
  <wgt id="836">2.97236e-12</wgt>
  <wgt id="837">3.55476e-12</wgt>
  <wgt id="838">2.86729e-12</wgt>
  <wgt id="839">3.34821e-12</wgt>
  <wgt id="840">2.80854e-12</wgt>
  <wgt id="841">3.94355e-12</wgt>
  <wgt id="842">2.78165e-12</wgt>
  <wgt id="843">3.09322e-12</wgt>
  <wgt id="844">3.25985e-12</wgt>
  <wgt id="845">4.56502e-12</wgt>
  <wgt id="846">3.0044e-12</wgt>
  <wgt id="847">3.16102e-12</wgt>
  <wgt id="848">2.51573e-12</wgt>
  <wgt id="849">3.18552e-12</wgt>
  <wgt id="850">4.18664e-12</wgt>
  <wgt id="851">3.42857e-12</wgt>
  <wgt id="852">2.4657e-12</wgt>
  <wgt id="853">3.46472e-12</wgt>
  <wgt id="854">3.86332e-12</wgt>
  <wgt id="855">3.66302e-12</wgt>
  <wgt id="856">2.06009e-12</wgt>
  <wgt id="857">3.01798e-12</wgt>
  <wgt id="858">2.99115e-12</wgt>
  <wgt id="859">2.86575e-12</wgt>
  <wgt id="860">3.45201e-12</wgt>
  <wgt id="861">2.6414e-12</wgt>
  <wgt id="862">3.14325e-12</wgt>
  <wgt id="863">3.32856e-12</wgt>
  <wgt id="864">3.2879e-12</wgt>
  <wgt id="865">4.59674e-12</wgt>
  <wgt id="866">5.04102e-12</wgt>
  <wgt id="867">3.1709e-12</wgt>
  <wgt id="868">3.08299e-12</wgt>
  <wgt id="869">2.26839e-12</wgt>
  <wgt id="870">2.40921e-12</wgt>
  <wgt id="871">2.33218e-12</wgt>
  <wgt id="872">3.83645e-12</wgt>
  <wgt id="873">2.50646e-12</wgt>
  <wgt id="874">3.29052e-12</wgt>
  <wgt id="875">2.6251e-12</wgt>
  <wgt id="876">3.82272e-12</wgt>
  <wgt id="877">3.58488e-12</wgt>
  <wgt id="878">2.54751e-12</wgt>
  <wgt id="879">4.26684e-12</wgt>
  <wgt id="880">4.3113e-12</wgt>
  <wgt id="881">4.49938e-12</wgt>
  <wgt id="882">4.00445e-12</wgt>
  <wgt id="883">4.19972e-12</wgt>
  <wgt id="884">4.32666e-12</wgt>
  <wgt id="885">4.41941e-12</wgt>
  <wgt id="886">4.17677e-12</wgt>
  <wgt id="887">4.46482e-12</wgt>
  <wgt id="888">4.07205e-12</wgt>
  <wgt id="889">4.14568e-12</wgt>
  <wgt id="890">4.48212e-12</wgt>
  <wgt id="891">4.22542e-12</wgt>
  <wgt id="892">4.60786e-12</wgt>
  <wgt id="893">4.46242e-12</wgt>
  <wgt id="894">4.50725e-12</wgt>
  <wgt id="895">4.20541e-12</wgt>
  <wgt id="896">5.11445e-12</wgt>
  <wgt id="897">4.54849e-12</wgt>
  <wgt id="898">4.12384e-12</wgt>
  <wgt id="899">4.04488e-12</wgt>
  <wgt id="900">4.11051e-12</wgt>
  <wgt id="901">3.84094e-12</wgt>
  <wgt id="902">3.82566e-12</wgt>
  <wgt id="903">3.70387e-12</wgt>
  <wgt id="904">4.28167e-12</wgt>
  <wgt id="905">4.15266e-12</wgt>
  <wgt id="906">4.96287e-12</wgt>
  <wgt id="907">4.71016e-12</wgt>
  <wgt id="908">4.52092e-12</wgt>
  <wgt id="909">3.9824e-12</wgt>
  <wgt id="910">4.08132e-12</wgt>
  <wgt id="911">4.19919e-12</wgt>
  <wgt id="912">4.18446e-12</wgt>
  <wgt id="913">3.8351e-12</wgt>
  <wgt id="914">4.25011e-12</wgt>
  <wgt id="915">4.16054e-12</wgt>
  <wgt id="916">4.62807e-12</wgt>
  <wgt id="917">4.14021e-12</wgt>
  <wgt id="918">4.20442e-12</wgt>
  <wgt id="919">4.10642e-12</wgt>
  <wgt id="920">4.0104e-12</wgt>
  <wgt id="921">4.28799e-12</wgt>
  <wgt id="922">3.85869e-12</wgt>
  <wgt id="923">4.04508e-12</wgt>
  <wgt id="924">3.84589e-12</wgt>
  <wgt id="925">3.71086e-12</wgt>
  <wgt id="926">4.5925e-12</wgt>
  <wgt id="927">4.49937e-12</wgt>
  <wgt id="928">4.49591e-12</wgt>
  <wgt id="929">4.29796e-12</wgt>
  <wgt id="930">4.18005e-12</wgt>
  <wgt id="931">4.14863e-12</wgt>
  <wgt id="932">3.96818e-12</wgt>
  <wgt id="933">4.64841e-12</wgt>
  <wgt id="934">4.20507e-12</wgt>
  <wgt id="935">4.73842e-12</wgt>
  <wgt id="936">4.21917e-12</wgt>
  <wgt id="937">4.37756e-12</wgt>
  <wgt id="938">4.26246e-12</wgt>
  <wgt id="939">4.1478e-12</wgt>
  <wgt id="940">4.31518e-12</wgt>
  <wgt id="941">4.03817e-12</wgt>
  <wgt id="942">4.40337e-12</wgt>
  <wgt id="943">4.78528e-12</wgt>
  <wgt id="944">3.85798e-12</wgt>
  <wgt id="945">4.20498e-12</wgt>
  <wgt id="946">4.0245e-12</wgt>
  <wgt id="947">4.17973e-12</wgt>
  <wgt id="948">4.49753e-12</wgt>
  <wgt id="949">4.58801e-12</wgt>
  <wgt id="950">3.79681e-12</wgt>
  <wgt id="951">4.20756e-12</wgt>
  <wgt id="952">4.47806e-12</wgt>
  <wgt id="953">4.41199e-12</wgt>
  <wgt id="954">4.38049e-12</wgt>
  <wgt id="955">3.88954e-12</wgt>
  <wgt id="956">4.01953e-12</wgt>
  <wgt id="957">4.47862e-12</wgt>
  <wgt id="958">4.26627e-12</wgt>
  <wgt id="959">4.27566e-12</wgt>
  <wgt id="960">3.88442e-12</wgt>
  <wgt id="961">4.27799e-12</wgt>
  <wgt id="962">4.4482e-12</wgt>
  <wgt id="963">4.28328e-12</wgt>
  <wgt id="964">4.52081e-12</wgt>
  <wgt id="965">4.55679e-12</wgt>
  <wgt id="966">4.2466e-12</wgt>
  <wgt id="967">4.45793e-12</wgt>
  <wgt id="968">4.34112e-12</wgt>
  <wgt id="969">4.26973e-12</wgt>
  <wgt id="970">4.37796e-12</wgt>
  <wgt id="971">3.9954e-12</wgt>
  <wgt id="972">4.53557e-12</wgt>
  <wgt id="973">4.13628e-12</wgt>
  <wgt id="974">5.09649e-12</wgt>
  <wgt id="975">4.04756e-12</wgt>
  <wgt id="976">4.22929e-12</wgt>
  <wgt id="977">3.69999e-12</wgt>
  <wgt id="978">4.50478e-12</wgt>
  <wgt id="979">4.68474e-12</wgt>
  <wgt id="980">4.25803e-12</wgt>
  <wgt id="981">4.30171e-12</wgt>
  <wgt id="982">4.13918e-12</wgt>
</rwgt>
</event>
</LesHouchesEvents>